Control file title. For DL_FIELD 4.10
49898
    1MOL     C1    1   1.242   0.253   1.990 -0.2727  0.2141  0.4545
    1MOL     C2    2   1.278   0.307   2.129  0.0589 -0.3424  0.2908
    1MOL     F3    3   1.302   0.207   2.211 -0.3154 -0.0176  0.0479
    1MOL     H4    4   1.212   0.336   1.926  1.4116  2.4202  2.4059
    1MOL     H5    5   1.163   0.182   2.013  0.7849 -0.8247  0.9364
    1MOL     H6    6   1.192   0.360   2.170  0.5232  2.3266 -2.0193
    1MOL     H7    7   1.327   0.197   1.950 -1.1277  0.0197 -1.1314
    1MOL     C8    8   1.409   0.398   2.140  0.0190  0.8223  0.6836
    1MOL     C9    9   1.426   0.491   2.265 -0.2095  0.2164 -0.5560
    1MOL    F10   10   1.421   0.418   2.378 -0.2270  0.0119  0.2429
    1MOL    H11   11   1.501   0.341   2.131  0.6974  2.0945 -0.7623
    1MOL    H12   12   1.413   0.468   2.056 -0.5328  0.9530  0.7638
    1MOL    H13   13   1.343   0.560   2.279  0.2890  0.7511 -0.2270
    1MOL    C14   14   1.552   0.578   2.268  0.6645  0.8495  0.2881
    1MOL    C15   15   1.542   0.692   2.161  0.7077  0.4854 -0.0474
    1MOL    F16   16   1.437   0.776   2.185  0.5618  0.7284 -0.1111
    1MOL    H17   17   1.587   0.614   2.365  0.4909  0.6242  0.4356
    1MOL    H18   18   1.630   0.508   2.236  0.6741  1.0269 -0.0781
    1MOL    H19   19   1.522   0.642   2.066 -0.7694  0.1960  0.4058
    1MOL    C20   20   1.668   0.772   2.146  0.2643 -0.4744  0.7208
    1MOL    C21   21   1.790   0.691   2.100  0.3514  0.1276 -0.0068
    1MOL    F22   22   1.760   0.602   2.009  0.0105  0.6731 -0.2207
    1MOL    H23   23   1.655   0.852   2.074 -2.3035 -1.2267  0.3112
    1MOL    H24   24   1.682   0.819   2.244  0.2651  3.1748 -0.9539
    1MOL    H25   25   1.838   0.632   2.178  1.0967  0.0520 -0.5211
    1MOL    C26   26   1.911   0.776   2.040  0.1135  0.3753  0.1384
    1MOL    C27   27   2.001   0.844   2.148  0.0713  0.2199  0.2998
    1MOL    F28   28   2.015   0.767   2.257 -0.1247 -0.0001 -0.3835
    1MOL    H29   29   1.969   0.712   1.973 -1.5584  0.1913 -1.1660
    1MOL    H30   30   1.867   0.854   1.979 -1.5010 -2.7037 -2.7882
    1MOL    H31   31   1.944   0.925   2.193  0.2507  0.0191  0.8937
    1MOL    C32   32   2.144   0.895   2.096 -0.1163  0.1852  0.1786
    1MOL    C33   33   2.237   0.951   2.209  0.4963  0.1774 -0.0440
    1MOL    F34   34   2.354   0.988   2.157 -0.1365 -0.2791  0.0140
    1MOL    H35   35   2.194   0.826   2.029 -2.6507 -3.3622  1.7708
    1MOL    H36   36   2.129   0.983   2.035  2.0488 -0.4561 -1.3382
    1MOL    H37   37   2.269   0.869   2.274 -1.0020 -0.9932 -0.7437
    1MOL    C38   38   2.177   1.058   2.297  0.1967  0.8210  0.3414
    1MOL    C39   39   2.130   1.189   2.232  0.1547  0.3517 -0.1956
    1MOL    F40   40   2.015   1.163   2.168 -0.1101 -0.0087 -0.2193
    1MOL    H41   41   2.096   1.004   2.346 -0.1639  0.5203 -0.5818
    1MOL    H42   42   2.254   1.076   2.372  2.2641 -1.9191 -1.0340
    1MOL    H43   43   2.197   1.211   2.149  2.0827  0.1080  1.2507
    1MOL    C44   44   2.103   1.292   2.342  0.0118  0.1413 -0.0787
    1MOL    C45   45   2.068   1.430   2.283 -1.0826  0.2035 -0.0088
    1MOL    F46   46   2.022   1.513   2.383  0.1181  0.5233 -0.2307
    1MOL    H47   47   2.037   1.253   2.419  1.1068 -0.1631  0.7209
    1MOL    H48   48   2.199   1.304   2.392 -0.5856 -0.2045  1.1541
    1MOL    H49   49   1.978   1.435   2.222 -0.6664  2.0141 -0.4851
    1MOL    C50   50   2.172   1.507   2.202 -0.2415 -0.2281  0.5534
    1MOL    C51   51   2.300   1.543   2.277 -0.5451  0.0829  0.3936
    1MOL    F52   52   2.374   1.431   2.293  0.2520  0.1414 -0.3666
    1MOL    H53   53   2.204   1.456   2.111 -1.9801 -0.6243  0.1540
    1MOL    H54   54   2.119   1.592   2.159  1.2541 -0.9726 -2.9876
    1MOL    H55   55   2.277   1.573   2.379  1.5383 -0.8766  1.1826
    1MOL    C56   56   2.379   1.660   2.206 -0.0215 -0.0247  0.2443
    1MOL    C57   57   2.500   1.703   2.281 -0.0493  0.5925 -0.3623
    1MOL    F58   58   2.547   1.799   2.208 -0.1340  0.0470 -0.3575
    1MOL    H59   59   2.404   1.630   2.105  0.4607 -0.1677  0.4027
    1MOL    H60   60   2.311   1.744   2.193  1.2951  0.8232 -1.3477
    1MOL    H61   61   2.581   1.630   2.283  0.9179  1.6633 -0.1622
    1MOL    C62   62   2.486   1.760   2.423 -0.4154 -0.2148  0.2118
    1MOL    C63   63   2.615   1.821   2.476 -0.5328  0.2635 -0.1611
    1MOL    F64   64   2.572   1.931   2.533  0.3800  0.2481 -0.3993
    1MOL    H65   65   2.423   1.846   2.402  0.3430  0.4117  0.4504
    1MOL    H66   66   2.447   1.689   2.496 -1.2630  0.8899  0.8382
    1MOL    H67   67   2.692   1.842   2.401  0.4038  0.7330  0.9232
    1MOL    C68   68   2.692   1.740   2.581  0.0685  1.0158 -0.2974
    1MOL    C69   69   2.765   1.623   2.511 -0.0404 -0.8137  0.3268
    1MOL    F70   70   2.832   1.670   2.408 -0.3887  0.3828  0.2052
    1MOL    H71   71   2.761   1.816   2.618  2.1884 -0.5366 -0.9779
    1MOL    H72   72   2.624   1.698   2.655  0.9455 -0.6880 -0.4201
    1MOL    H73   73   2.696   1.549   2.471 -1.0726  0.2906  0.0437
    1MOL    C74   74   2.866   1.551   2.601  0.3953 -0.0417 -0.3499
    1MOL    C75   75   2.931   1.430   2.535  0.0285 -0.2940 -0.0085
    1MOL    F76   76   3.006   1.459   2.430 -0.6760  0.3063 -0.0697
    1MOL    H77   77   2.949   1.616   2.630  0.4387 -0.9128  1.5588
    1MOL    H78   78   2.810   1.528   2.692  1.6596  0.1691  0.5043
    1MOL    H79   79   2.853   1.362   2.500 -0.4164  0.1946  0.0369
    1MOL    C80   80   3.022   1.350   2.633  0.0041  0.0295  0.4166
    1MOL    C81   81   3.078   1.214   2.586 -0.9706 -0.9998  0.0398
    1MOL    F82   82   2.987   1.141   2.522  0.0373 -0.2756 -0.2126
    1MOL    H83   83   3.109   1.412   2.655  1.2053 -0.2360 -3.1992
    1MOL    H84   84   2.964   1.324   2.721 -3.1934 -1.8963 -2.1558
    1MOL    H85   85   3.107   1.146   2.666  0.7046 -2.1831 -1.5540
    1MOL    C86   86   3.210   1.213   2.500 -0.0556  0.2756  0.7757
    1MOL    C87   87   3.340   1.256   2.574 -0.3260 -0.0572 -0.5309
    1MOL    F88   88   3.381   1.170   2.666 -0.0621  0.7732 -0.5715
    1MOL    H89   89   3.218   1.116   2.451  3.7843  2.1654 -2.5961
    1MOL    H90   90   3.195   1.281   2.416 -2.7854 -0.4502  0.6294
    1MOL    H91   91   3.319   1.354   2.617  0.7463  0.7221 -1.7303
    1MOL    C92   92   3.453   1.261   2.464  0.5495  0.3971  0.3647
    1MOL    C93   93   3.588   1.327   2.508 -0.1892 -0.7767  0.4174
    1MOL    F94   94   3.562   1.435   2.584 -0.0147 -0.4307  0.2132
    1MOL    H95   95   3.483   1.166   2.421 -0.5305  0.8221 -1.4162
    1MOL    H96   96   3.414   1.328   2.386 -0.1438 -0.3503  0.0566
    1MOL    H97   97   3.635   1.361   2.416  1.1355 -0.0227  1.3524
    1MOL    C98   98   3.679   1.230   2.589  0.3801 -0.3019 -0.1041
    1MOL    C99   99   3.807   1.293   2.662 -0.4656  0.0360  0.0508
    1MOL   F100  100   3.874   1.204   2.732  1.1966  0.1938  0.2346
    1MOL   H101  101   3.606   1.185   2.657  1.2825 -1.0490  0.3817
    1MOL   H102  102   3.702   1.145   2.525 -1.4659 -1.1234  0.2688
    1MOL   H103  103   3.773   1.367   2.735  1.2048 -1.0493  1.9651
    1MOL   C104  104   3.910   1.361   2.563  0.3700  0.5470  0.8223
    1MOL   C105  105   4.013   1.446   2.643  0.0357 -0.4057  0.0260
    1MOL   F106  106   4.075   1.376   2.741  0.0750  0.4946 -0.6289
    1MOL   H107  107   3.961   1.285   2.505  0.5916  2.8539 -2.1312
    1MOL   H108  108   3.864   1.431   2.493  0.8562 -1.8691 -2.0143
    1MOL   H109  109   3.957   1.522   2.698  1.3579  0.3024  0.4372
    1MOL   C110  110   4.121   1.514   2.554 -0.3886  0.3472 -0.4625
    1MOL   C111  111   4.229   1.587   2.633 -0.4442  0.6896 -0.6005
    1MOL   F112  112   4.191   1.676   2.718  0.2259 -0.0308 -0.1932
    1MOL   H113  113   4.174   1.442   2.491  0.1925 -1.4608  2.0243
    1MOL   H114  114   4.074   1.582   2.483 -0.0385  1.3219  0.2261
    1MOL   H115  115   4.283   1.641   2.556 -0.6812  0.1479 -1.1535
    1MOL   C116  116   4.335   1.485   2.703 -0.0884 -0.1879 -0.2721
    1MOL   C117  117   4.458   1.560   2.749 -0.3133  0.0346 -0.2771
    1MOL   F118  118   4.533   1.472   2.807 -0.0508  0.1726 -0.1432
    1MOL   H119  119   4.284   1.446   2.791  0.6613 -2.1457 -0.6707
    1MOL   H120  120   4.362   1.403   2.636  0.1006 -1.7974  1.6859
    1MOL   H121  121   4.436   1.638   2.823 -1.2421  1.7955 -2.3462
    1MOL   H122  122   4.506   1.602   2.661 -1.1647  2.2678  0.2986
    2MOL     C1  123   7.626   4.837   2.772 -0.0041  0.1569 -0.3965
    2MOL     C2  124   7.577   4.694   2.748  0.4490  0.0465  0.0554
    2MOL     F3  125   7.654   4.608   2.823 -0.5348 -0.1555 -0.2563
    2MOL     H4  126   7.726   4.834   2.731  0.1349  2.6558 -0.2817
    2MOL     H5  127   7.617   4.875   2.874 -2.2268  1.1674 -0.9292
    2MOL     H6  128   7.596   4.674   2.642  0.5445 -2.3156  0.5089
    2MOL     H7  129   7.571   4.906   2.708  0.8306  0.8645 -0.3569
    2MOL     C8  130   7.430   4.681   2.792 -0.4960 -0.2328  0.3656
    2MOL     C9  131   7.346   4.579   2.719  0.0856 -0.5791 -0.1595
    2MOL    F10  132   7.394   4.458   2.741  0.5372 -0.2473 -0.3659
    2MOL    H11  133   7.411   4.658   2.897 -0.7069 -3.4194 -0.3354
    2MOL    H12  134   7.382   4.779   2.785 -1.1518 -0.7642 -4.1194
    2MOL    H13  135   7.363   4.602   2.614 -1.3252  0.2716 -0.2195
    2MOL    C14  136   7.196   4.564   2.769 -0.2755  0.1042  0.7147
    2MOL    C15  137   7.114   4.441   2.706 -0.3047 -0.6026 -0.4000
    2MOL    F16  138   7.009   4.418   2.787 -0.2208 -0.6126 -0.3807
    2MOL    H17  139   7.207   4.542   2.875  1.3799  1.5453  0.8555
    2MOL    H18  140   7.137   4.655   2.768  0.0619  0.3421  1.8716
    2MOL    H19  141   7.184   4.358   2.705  2.7121  1.8413  1.0316
    2MOL    C20  142   7.085   4.481   2.559  0.1202 -0.7997  0.9591
    2MOL    C21  143   7.005   4.371   2.484 -0.5084  0.2200 -0.5170
    2MOL    F22  144   6.930   4.429   2.385  0.3571 -0.2999  0.0805
    2MOL    H23  145   7.039   4.580   2.564 -1.1062 -1.3947  1.6794
    2MOL    H24  146   7.177   4.489   2.501 -1.1767 -1.6599 -1.2785
    2MOL    H25  147   6.927   4.330   2.549  1.7032  2.1718  3.4993
    2MOL    C26  148   7.086   4.251   2.424  0.2177  0.5231 -0.6801
    2MOL    C27  149   7.073   4.121   2.510  0.1016  0.1342 -0.5718
    2MOL    F28  150   6.948   4.089   2.514 -0.2594 -0.0322 -0.2780
    2MOL    H29  151   7.042   4.234   2.326  0.9849  0.0267 -0.9450
    2MOL    H30  152   7.191   4.279   2.417  0.7077 -1.3449 -1.1077
    2MOL    H31  153   7.099   4.143   2.614  3.6434 -2.2425 -0.8611
    2MOL    C32  154   7.170   4.008   2.475 -1.0251  0.3637 -0.0180
    2MOL    C33  155   7.322   4.045   2.487 -0.0748 -0.1515 -0.8584
    2MOL    F34  156   7.350   4.076   2.617  0.4632 -0.5418  0.6114
    2MOL    H35  157   7.156   3.923   2.541 -1.5013  0.9614  0.6505
    2MOL    H36  158   7.149   3.979   2.372 -0.4121 -1.2160  0.2893
    2MOL    H37  159   7.340   4.129   2.420  0.0246  1.6996  1.4520
    2MOL    C38  160   7.424   3.932   2.447  0.3714 -0.8233 -0.0505
    2MOL    C39  161   7.396   3.880   2.301  0.7969 -0.4149 -0.0609
    2MOL    F40  162   7.374   3.982   2.217  0.2340  0.1286  0.7308
    2MOL    H41  163   7.529   3.951   2.472  0.1235  0.4578  0.0784
    2MOL    H42  164   7.401   3.851   2.516 -1.5353 -0.4223 -0.1858
    2MOL    H43  165   7.305   3.821   2.303  0.0397  0.7355  3.1664
    2MOL    C44  166   7.499   3.780   2.240 -1.0739 -0.1166 -0.0507
    2MOL    C45  167   7.466   3.732   2.102 -0.4986 -0.4828  0.2437
    2MOL    F46  168   7.569   3.658   2.055  0.1738  0.0684 -0.3574
    2MOL    H47  169   7.600   3.822   2.238 -0.8670 -0.6352 -0.6378
    2MOL    H48  170   7.518   3.705   2.316 -0.4099  1.0390  0.9579
    2MOL    H49  171   7.471   3.815   2.031  2.2138  0.1693  1.1099
    2MOL    C50  172   7.336   3.647   2.080  0.3230 -0.3544 -0.8095
    2MOL    C51  173   7.282   3.642   1.933  0.2220  0.0930 -0.9620
    2MOL    F52  174   7.373   3.582   1.864 -0.0201 -0.0483  0.2644
    2MOL    H53  175   7.358   3.547   2.117  0.1541  0.1248  0.6113
    2MOL    H54  176   7.259   3.691   2.144  2.3035  1.6825  0.2306
    2MOL    H55  177   7.262   3.742   1.894  2.0525  1.2925  1.0752
    2MOL    C56  178   7.158   3.559   1.919  0.2653  0.5110  0.1458
    2MOL    C57  179   7.120   3.523   1.773 -0.4033 -0.2637  0.8050
    2MOL    F58  180   7.025   3.433   1.773 -0.0841 -0.3304  0.0078
    2MOL    H59  181   7.178   3.462   1.965  0.9762 -0.0884 -1.3746
    2MOL    H60  182   7.084   3.607   1.982  1.3914  1.5527  0.6971
    2MOL    H61  183   7.201   3.484   1.711  1.1464  1.5825  1.6383
    2MOL    C62  184   7.054   3.647   1.696 -0.2323 -0.4763  0.7333
    2MOL    C63  185   6.977   3.618   1.575  0.4991  0.2977 -0.0393
    2MOL    F64  186   6.926   3.735   1.520 -0.2628 -0.1563 -0.2629
    2MOL    H65  187   6.977   3.696   1.755 -0.6112  0.1621 -0.2727
    2MOL    H66  188   7.135   3.718   1.675 -0.1103 -0.1807  2.2054
    2MOL    H67  189   6.889   3.554   1.587 -0.5737  1.6826 -0.3331
    2MOL    C68  190   7.066   3.555   1.481 -0.0285  0.1360 -0.4060
    2MOL    C69  191   7.016   3.574   1.336  0.2542  0.1723  0.0192
    2MOL    F70  192   7.110   3.550   1.251  0.2700 -0.2121  0.6998
    2MOL    H71  193   7.161   3.607   1.488  0.1275 -0.2733  0.5518
    2MOL    H72  194   7.080   3.447   1.491  0.3344  0.3634  1.7974
    2MOL    H73  195   6.996   3.679   1.317 -0.5821 -0.1102 -0.7249
    2MOL    C74  196   6.891   3.490   1.283  0.6456  0.5717 -0.1631
    2MOL    C75  197   6.831   3.547   1.159 -0.0622  0.1969  0.1472
    2MOL    F76  198   6.754   3.469   1.077  0.6152  0.0036 -0.4887
    2MOL    H77  199   6.936   3.394   1.254  0.2514 -0.4066  2.3245
    2MOL    H78  200   6.817   3.478   1.362  1.8022 -1.6130  0.6436
    2MOL    H79  201   6.910   3.577   1.090  0.6893  0.4667  1.1183
    2MOL    C80  202   6.742   3.673   1.192 -0.2898 -0.2835  0.6770
    2MOL    C81  203   6.616   3.649   1.276  0.5536 -0.3585 -0.0318
    2MOL    F82  204   6.564   3.773   1.299  0.6979 -0.1505 -0.2237
    2MOL    H83  205   6.808   3.751   1.230  1.4528 -1.0198 -0.7892
    2MOL    H84  206   6.700   3.713   1.100  0.5884  0.8397  0.7457
    2MOL    H85  207   6.650   3.611   1.372  1.9856 -0.7493 -0.6909
    2MOL    C86  208   6.486   3.593   1.211  0.0126  0.6891 -0.0743
    2MOL    C87  209   6.384   3.559   1.314 -0.4444 -0.1028  0.7491
    2MOL    F88  210   6.332   3.671   1.357  0.1505 -0.6661 -0.6096
    2MOL    H89  211   6.447   3.664   1.138 -0.0390  0.5402 -0.1941
    2MOL    H90  212   6.510   3.500   1.158  3.2748 -0.9239  3.9965
    2MOL    H91  213   6.432   3.513   1.401  0.9401  0.2789  0.1920
    2MOL    C92  214   6.274   3.467   1.248  0.1290  0.1787  0.0469
    2MOL    C93  215   6.160   3.413   1.334 -0.1755  0.4670  0.6394
    2MOL    F94  216   6.220   3.342   1.433 -0.2640  0.1502 -0.1719
    2MOL    H95  217   6.236   3.524   1.164 -0.6572  0.5738  0.6720
    2MOL    H96  218   6.326   3.377   1.212 -0.1188  0.0271  0.0655
    2MOL    H97  219   6.087   3.353   1.278 -0.1965 -0.0418  1.2118
    2MOL    C98  220   6.076   3.533   1.394 -0.1085  0.1323  0.1787
    2MOL    C99  221   5.941   3.496   1.471  0.2570  0.8187 -1.1606
    2MOL   F100  222   5.958   3.386   1.549 -0.2267  0.4466 -0.2397
    2MOL   H101  223   6.144   3.585   1.462 -0.4088 -2.0409  2.1679
    2MOL   H102  224   6.053   3.601   1.311  1.8757  2.9774  1.8472
    2MOL   H103  225   5.855   3.468   1.410 -1.3002  0.4844  1.1274
    2MOL   C104  226   5.897   3.599   1.578 -0.1035 -0.4536  0.1684
    2MOL   C105  227   5.863   3.737   1.528  0.8551  0.2782 -0.1407
    2MOL   F106  228   5.781   3.724   1.425  0.3657 -0.1438 -0.3677
    2MOL   H107  229   5.806   3.556   1.621  0.8327  0.4970  3.2672
    2MOL   H108  230   5.973   3.605   1.657  0.4649 -1.9405 -0.2327
    2MOL   H109  231   5.952   3.785   1.486  0.4233 -0.3685 -1.8488
    2MOL   C110  232   5.790   3.823   1.634 -0.5919 -0.2920 -0.1331
    2MOL   C111  233   5.886   3.883   1.735 -0.3799  0.4029 -0.2440
    2MOL   F112  234   5.974   3.953   1.658 -0.2170 -0.2240 -0.3173
    2MOL   H113  235   5.742   3.917   1.606  2.4099  0.7765 -1.9171
    2MOL   H114  236   5.717   3.761   1.686 -1.3811  0.5941 -0.1731
    2MOL   H115  237   5.949   3.807   1.781 -2.9797 -2.8941 -1.8995
    2MOL   C116  238   5.823   3.986   1.834  0.4580 -0.0712 -0.3287
    2MOL   C117  239   5.727   3.925   1.933  0.7025 -0.1026 -0.1530
    2MOL   F118  240   5.787   3.818   1.995  0.3978 -0.1450  0.1892
    2MOL   H119  241   5.904   4.033   1.890  0.9556 -1.3813  0.0580
    2MOL   H120  242   5.768   4.064   1.780  0.1865  0.3483  0.5365
    2MOL   H121  243   5.633   3.883   1.899  0.8109 -0.3685 -0.1228
    2MOL   H122  244   5.712   4.001   2.009 -0.9997  0.2632 -0.8210
    3MOL     C1  245   4.454   3.634   3.360  0.3437 -0.3243 -0.2435
    3MOL     C2  246   4.479   3.651   3.204  0.0980  0.1194  1.0958
    3MOL     F3  247   4.385   3.566   3.148 -0.0625 -0.1857  0.1421
    3MOL     H4  248   4.473   3.529   3.386 -1.8594 -0.8088 -0.5363
    3MOL     H5  249   4.355   3.670   3.387  1.3371  2.1189  0.3264
    3MOL     H6  250   4.573   3.602   3.177  0.5558  0.9556  1.1545
    3MOL     H7  251   4.520   3.700   3.417 -2.2455  2.3846 -0.3156
    3MOL     C8  252   4.469   3.792   3.142  0.3018  0.2084  0.4097
    3MOL     C9  253   4.599   3.870   3.176  0.0757 -0.1323 -1.0041
    3MOL    F10  254   4.714   3.796   3.159 -0.2173  0.8141 -0.6510
    3MOL    H11  255   4.458   3.791   3.033 -0.8750  0.3899  0.5191
    3MOL    H12  256   4.382   3.849   3.176 -0.8225 -0.3762 -1.4145
    3MOL    H13  257   4.595   3.887   3.283  2.0546 -1.9295 -0.6100
    3MOL    C14  258   4.608   4.003   3.102 -0.4638  0.4330 -0.1570
    3MOL    C15  259   4.507   4.106   3.155  0.1278 -0.1409  0.2565
    3MOL    F16  260   4.533   4.133   3.280 -0.5320  0.8569 -0.3972
    3MOL    H17  261   4.707   4.044   3.119  0.1366 -0.5300 -1.2897
    3MOL    H18  262   4.594   3.981   2.997  0.1842  4.1131 -1.0724
    3MOL    H19  263   4.405   4.069   3.158  0.6257 -1.8046 -2.0084
    3MOL    C20  264   4.510   4.237   3.073  0.1949  0.3244 -0.5804
    3MOL    C21  265   4.462   4.224   2.928 -0.2943  0.5272 -0.4609
    3MOL    F22  266   4.334   4.196   2.924  0.2594 -0.3856 -0.1666
    3MOL    H23  267   4.457   4.319   3.121 -1.1892 -1.2316  0.5892
    3MOL    H24  268   4.611   4.278   3.071  0.6425 -0.7766 -1.3660
    3MOL    H25  269   4.526   4.162   2.865 -2.1353 -3.2492  1.2441
    3MOL    C26  270   4.452   4.368   2.879 -0.2551  0.7840  0.1244
    3MOL    C27  271   4.426   4.382   2.728  0.5007  0.0806  0.1628
    3MOL    F28  272   4.519   4.307   2.659  0.0653  0.6628  0.5138
    3MOL    H29  273   4.382   4.426   2.940  0.7302  0.9492  1.1061
    3MOL    H30  274   4.548   4.411   2.906 -0.1655 -1.5855  3.9085
    3MOL    H31  275   4.436   4.485   2.695 -0.6549  0.9268  2.3619
    3MOL    C32  276   4.283   4.335   2.690  0.1709  0.6402 -0.1855
    3MOL    C33  277   4.164   4.417   2.735 -0.1555 -0.7787  0.1614
    3MOL    F34  278   4.163   4.531   2.668 -0.2368 -0.6043 -0.4876
    3MOL    H35  279   4.283   4.350   2.582  1.5756 -0.2874 -0.3211
    3MOL    H36  280   4.270   4.229   2.712  0.3326 -0.0002 -2.9095
    3MOL    H37  281   4.169   4.442   2.841 -3.2219  0.1820  0.1380
    3MOL    C38  282   4.033   4.339   2.711 -0.0687  0.0810 -0.1107
    3MOL    C39  283   3.903   4.403   2.768  0.7247  0.0027 -0.2416
    3MOL    F40  284   3.883   4.506   2.683  0.1557 -0.1300 -0.1714
    3MOL    H41  285   4.018   4.330   2.603  0.1076 -0.2695 -0.1088
    3MOL    H42  286   4.034   4.237   2.750 -0.8054 -0.0959 -0.5460
    3MOL    H43  287   3.911   4.434   2.872  0.4352 -0.0894 -0.1936
    3MOL    C44  288   3.787   4.316   2.753  0.0944 -0.6905 -0.4681
    3MOL    C45  289   3.771   4.222   2.877 -0.2153  0.5225 -0.1289
    3MOL    F46  290   3.766   4.296   2.989 -0.9825  0.2313 -0.3334
    3MOL    H47  291   3.698   4.376   2.730  1.3800  0.9774 -1.2341
    3MOL    H48  292   3.802   4.258   2.662 -1.1188  0.2446 -1.2874
    3MOL    H49  293   3.851   4.150   2.892  0.8791  2.1583  2.1017
    3MOL    C50  294   3.644   4.135   2.869  0.1707 -0.3726  0.1898
    3MOL    C51  295   3.618   4.053   2.743  0.6379 -0.4596  0.5893
    3MOL    F52  296   3.731   3.982   2.735 -0.3688 -0.1972 -0.0516
    3MOL    H53  297   3.635   4.058   2.946  0.0478 -0.8582 -0.3081
    3MOL    H54  298   3.557   4.201   2.878  0.3978 -0.0889  0.2852
    3MOL    H55  299   3.621   4.115   2.654  1.4907 -0.4121  0.6468
    3MOL    C56  300   3.503   3.958   2.747  0.5501 -0.1241  0.2787
    3MOL    C57  301   3.375   4.035   2.718 -0.5031  0.1528  0.4962
    3MOL    F58  302   3.380   4.085   2.594  0.4518  0.1166 -0.3372
    3MOL    H59  303   3.508   3.868   2.685 -2.3812 -1.4633  1.8824
    3MOL    H60  304   3.496   3.913   2.846  0.2134 -0.4489  0.1093
    3MOL    H61  305   3.370   4.115   2.792  0.0228 -0.1642  0.8829
    3MOL    C62  306   3.244   3.958   2.733 -0.5078 -0.1129 -0.2230
    3MOL    C63  307   3.212   3.831   2.648 -0.2089 -0.0394 -0.4113
    3MOL    F64  308   3.126   3.755   2.719  0.0900 -0.3010 -0.4933
    3MOL    H65  309   3.244   3.920   2.835  3.9701  1.3779  0.4218
    3MOL    H66  310   3.157   4.022   2.720 -0.7476 -0.4382 -0.2441
    3MOL    H67  311   3.306   3.777   2.640  1.7320  3.5345 -2.9588
    3MOL    C68  312   3.140   3.863   2.512 -0.1512 -0.0662 -0.2883
    3MOL    C69  313   3.236   3.891   2.392  0.7151 -0.4386 -0.2064
    3MOL    F70  314   3.326   3.798   2.380 -0.2480 -0.7484  0.0285
    3MOL    H71  315   3.095   3.771   2.474  0.4828 -1.1574  1.5425
    3MOL    H72  316   3.077   3.949   2.530  1.9508  1.2638  0.9383
    3MOL    H73  317   3.290   3.983   2.418 -0.5023  0.5101 -0.9908
    3MOL    C74  318   3.168   3.920   2.254  0.0021  0.0986 -0.3421
    3MOL    C75  319   3.257   3.991   2.148  0.2015 -0.7177  0.1492
    3MOL    F76  320   3.181   3.998   2.037 -0.1377 -0.1923  0.0934
    3MOL    H77  321   3.121   3.829   2.216 -0.5845  0.5541 -0.7150
    3MOL    H78  322   3.084   3.983   2.281  0.3314  1.2496 -1.8742
    3MOL    H79  323   3.334   3.919   2.120  2.7551  2.1390 -0.3762
    3MOL    C80  324   3.301   4.127   2.187 -0.2443  0.2177 -0.2467
    3MOL    C81  325   3.408   4.175   2.083  0.6253  0.4396  0.0386
    3MOL    F82  326   3.343   4.195   1.968 -0.0746  0.1074  0.4753
    3MOL    H83  327   3.214   4.190   2.199 -0.4610  0.1124 -1.2305
    3MOL    H84  328   3.359   4.126   2.280  0.9829  1.1373 -0.9807
    3MOL    H85  329   3.476   4.091   2.064  0.0227 -0.0875  0.1974
    3MOL    C86  330   3.475   4.313   2.111 -0.4773 -0.0034  0.1056
    3MOL    C87  331   3.576   4.360   2.000  0.5345 -0.3837  0.1057
    3MOL    F88  332   3.617   4.479   2.043  0.3144 -0.3418 -0.1095
    3MOL    H89  333   3.399   4.388   2.129 -1.4745 -0.6361 -1.3144
    3MOL    H90  334   3.537   4.316   2.200 -0.1955  2.4955 -0.1353
    3MOL    H91  335   3.517   4.380   1.910 -0.9918  0.4402  1.2680
    3MOL    C92  336   3.699   4.266   1.966  0.2390  0.4746 -0.4766
    3MOL    C93  337   3.798   4.209   2.079 -0.2046 -0.1334  0.6920
    3MOL    F94  338   3.738   4.128   2.165 -0.4303  0.9500  0.1519
    3MOL    H95  339   3.658   4.184   1.907 -0.7166  1.5397 -1.3202
    3MOL    H96  340   3.755   4.331   1.898  0.6367  0.5313 -0.0918
    3MOL    H97  341   3.832   4.295   2.137 -1.1632  1.7933 -1.5238
    3MOL    C98  342   3.921   4.133   2.014  0.0897 -0.3988 -0.8119
    3MOL    C99  343   4.038   4.108   2.113 -0.1976  0.4512  0.9131
    3MOL   F100  344   4.123   4.025   2.049  0.2455  0.0372  0.2413
    3MOL   H101  345   3.889   4.039   1.970 -1.8527 -0.6429  1.0378
    3MOL   H102  346   3.947   4.198   1.930  1.6792 -1.8270 -1.4613
    3MOL   H103  347   3.997   4.048   2.195  0.7829 -0.4507  0.7521
    3MOL   C104  348   4.109   4.229   2.170  0.6449  0.4277 -0.1761
    3MOL   C105  349   4.242   4.203   2.245 -0.0545  0.0939 -0.8512
    3MOL   F106  350   4.279   4.319   2.310 -0.1546  0.5758  0.8594
    3MOL   H107  351   4.130   4.302   2.092  0.3133  0.7060 -0.0033
    3MOL   H108  352   4.042   4.285   2.234 -0.6119 -0.6030 -0.5780
    3MOL   H109  353   4.319   4.181   2.171  1.4201 -0.2446  0.7398
    3MOL   C110  354   4.237   4.078   2.346 -0.9884 -0.4411 -0.5261
    3MOL   C111  355   4.372   4.057   2.418  0.2002 -0.0941  0.2799
    3MOL   F112  356   4.346   3.962   2.505  0.4715  0.4564 -0.5937
    3MOL   H113  357   4.163   4.081   2.426 -1.1406  0.6304 -0.7063
    3MOL   H114  358   4.208   3.991   2.286  0.1586 -1.7468  0.7485
    3MOL   H115  359   4.384   4.143   2.484  3.9177 -1.4754  1.5510
    3MOL   C116  360   4.497   4.016   2.336 -0.0673  0.2339  0.2503
    3MOL   C117  361   4.625   3.981   2.422  0.0601  0.1222  0.2963
    3MOL   F118  362   4.739   3.978   2.356  0.2954  0.1404  0.2263
    3MOL   H119  363   4.474   3.936   2.266  1.5415 -0.1418  0.1414
    3MOL   H120  364   4.533   4.101   2.278  0.9794 -1.2072 -1.2347
    3MOL   H121  365   4.617   3.885   2.471  0.6272 -0.1715 -0.1813
    3MOL   H122  366   4.645   4.056   2.499  0.0113  0.1103  0.3207
    4MOL     C1  367   4.404   5.891   1.303  1.1648 -0.3209 -0.9105
    4MOL     C2  368   4.349   5.889   1.449  0.2856  0.2916  0.2055
    4MOL     F3  369   4.233   5.826   1.456  0.0820 -0.6908  0.0492
    4MOL     H4  370   4.451   5.798   1.270  2.4183  0.0266 -0.1535
    4MOL     H5  371   4.471   5.975   1.285  2.1960 -1.3525 -1.9729
    4MOL     H6  372   4.336   5.993   1.480 -0.4658  0.1652  0.3297
    4MOL     H7  373   4.323   5.899   1.231 -1.1390 -2.3052  1.3599
    4MOL     C8  374   4.443   5.830   1.559  0.1608  0.6230  0.2189
    4MOL     C9  375   4.554   5.928   1.605  0.4987  0.9835  0.7063
    4MOL    F10  376   4.498   6.037   1.645  0.7234  0.0971  0.0053
    4MOL    H11  377   4.386   5.817   1.651 -0.9295  0.6499 -0.4423
    4MOL    H12  378   4.487   5.734   1.532  0.8533  1.4287 -1.6366
    4MOL    H13  379   4.604   5.962   1.514  0.5807 -2.3188 -0.5728
    4MOL    C14  380   4.648   5.884   1.712 -0.1459  0.1673 -0.2423
    4MOL    C15  381   4.600   5.876   1.854 -0.6344 -0.2129 -0.3629
    4MOL    F16  382   4.520   5.772   1.870 -0.0370 -0.1237 -0.2689
    4MOL    H17  383   4.695   5.790   1.683  0.3548  0.4529 -0.3588
    4MOL    H18  384   4.729   5.957   1.712 -0.1595  0.1930  1.1238
    4MOL    H19  385   4.539   5.961   1.885 -0.4884  0.4515 -1.8316
    4MOL    C20  386   4.720   5.847   1.948  0.0423 -0.4523  0.4280
    4MOL    C21  387   4.817   5.959   1.993  0.3498 -0.4442  0.2671
    4MOL    F22  388   4.743   6.059   2.031  0.5271  0.8458 -0.0419
    4MOL    H23  389   4.692   5.793   2.038  2.2023 -0.9187  0.8455
    4MOL    H24  390   4.782   5.779   1.890  0.7521  0.4182  0.1551
    4MOL    H25  391   4.878   5.994   1.909  0.3137  0.2847  0.5419
    4MOL    C26  392   4.899   5.921   2.115 -0.3255  0.2527  0.6155
    4MOL    C27  393   5.007   5.810   2.097  0.0610 -0.3824  0.0649
    4MOL    F28  394   5.080   5.853   1.996  0.0238  0.2187  0.1048
    4MOL    H29  395   4.953   6.015   2.125 -0.5062  0.1742  2.4050
    4MOL    H30  396   4.838   5.913   2.204  0.0972  0.6015  0.9368
    4MOL    H31  397   4.958   5.720   2.060 -1.5581  0.3408  0.4120
    4MOL    C32  398   5.078   5.789   2.230 -0.0739  0.6320  0.6714
    4MOL    C33  399   5.198   5.701   2.221  0.0036  0.0106 -0.0440
    4MOL    F34  400   5.279   5.767   2.136  0.2266 -0.3623 -0.0583
    4MOL    H35  401   5.092   5.888   2.273  3.0933  0.2768  0.5307
    4MOL    H36  402   5.013   5.720   2.285  0.0602  0.0344  0.0904
    4MOL    H37  403   5.163   5.608   2.175 -0.7660 -0.3161  1.1792
    4MOL    C38  404   5.281   5.681   2.345 -1.0223  0.3181 -0.2698
    4MOL    C39  405   5.405   5.589   2.346 -0.1369 -0.2650 -0.6829
    4MOL    F40  406   5.349   5.473   2.336  0.0050 -0.2238 -0.7016
    4MOL    H41  407   5.315   5.775   2.389  2.5281  0.2010 -2.5790
    4MOL    H42  408   5.228   5.648   2.434 -0.5861  1.7128  0.5189
    4MOL    H43  409   5.448   5.586   2.446  1.4376  0.4066 -1.3174
    4MOL    C44  410   5.505   5.606   2.233 -0.3649 -0.4631 -0.2146
    4MOL    C45  411   5.577   5.741   2.235  0.8670  0.0220  0.0105
    4MOL    F46  412   5.629   5.760   2.357 -0.4213 -0.2770 -0.7916
    4MOL    H47  413   5.582   5.531   2.251 -0.0925 -0.2986 -0.6937
    4MOL    H48  414   5.470   5.593   2.130 -1.1057  1.7780 -0.2639
    4MOL    H49  415   5.511   5.827   2.219 -0.3627 -0.8608  0.2965
    4MOL    C50  416   5.697   5.752   2.136  0.4217 -0.1111 -0.1519
    4MOL    C51  417   5.778   5.883   2.148  0.5364  0.6248  0.4839
    4MOL    F52  418   5.901   5.887   2.093 -0.4231 -0.0314 -0.2176
    4MOL    H53  419   5.767   5.677   2.173  0.8206  0.0634 -0.5583
    4MOL    H54  420   5.663   5.729   2.036  0.0040 -0.1203 -0.0072
    4MOL    H55  421   5.782   5.911   2.253  0.6944  0.1327  0.6130
    4MOL    C56  422   5.712   6.000   2.070  0.1827  0.1442 -0.0631
    4MOL    C57  423   5.770   6.137   2.100  0.4591  0.2748  0.4472
    4MOL    F58  424   5.753   6.151   2.237  0.3461 -0.0771  0.4553
    4MOL    H59  425   5.721   5.973   1.965  0.0673 -1.5198  0.3336
    4MOL    H60  426   5.604   5.992   2.084  0.0280  3.1539  0.7408
    4MOL    H61  427   5.703   6.216   2.065  0.0860  0.0023  0.5504
    4MOL    C62  428   5.917   6.151   2.049  0.9482 -0.0272 -0.6309
    4MOL    C63  429   5.958   6.298   2.031 -0.6700  0.2923 -0.4520
    4MOL    F64  430   5.870   6.351   1.959 -0.4871  0.0837  0.7475
    4MOL    H65  431   5.990   6.112   2.120 -0.0884  2.4081  1.9183
    4MOL    H66  432   5.937   6.105   1.953  1.8238  2.2178 -1.5479
    4MOL    H67  433   6.052   6.306   1.976 -0.7531 -0.7454 -0.7496
    4MOL    C68  434   5.990   6.373   2.158 -0.0659  0.1108 -0.5154
    4MOL    C69  435   6.134   6.340   2.222 -0.4388 -0.3863  0.8146
    4MOL    F70  436   6.220   6.361   2.130 -0.8846  0.7498 -0.2872
    4MOL    H71  437   5.977   6.480   2.141  0.9148  0.2944 -0.1453
    4MOL    H72  438   5.903   6.355   2.221  0.3494 -1.5518 -0.3908
    4MOL    H73  439   6.148   6.233   2.243  3.2600 -0.7174 -2.6850
    4MOL    C74  440   6.168   6.416   2.348 -0.5879  1.0178  0.4994
    4MOL    C75  441   6.304   6.376   2.409  0.0589 -0.1842 -0.0116
    4MOL    F76  442   6.327   6.453   2.515  0.3713  0.2785 -0.1729
    4MOL    H77  443   6.146   6.523   2.347 -0.7255  1.0363  2.4814
    4MOL    H78  444   6.092   6.371   2.412 -0.5042  0.1418 -0.0156
    4MOL    H79  445   6.383   6.385   2.335  1.1613  0.1472  1.1828
    4MOL    C80  446   6.306   6.232   2.471  0.0625 -0.4054  0.5164
    4MOL    C81  447   6.446   6.212   2.531  0.1042 -0.3281 -0.0574
    4MOL    F82  448   6.429   6.116   2.618  0.2786 -0.1306  0.1393
    4MOL    H83  449   6.226   6.208   2.541  1.9040 -0.9555  2.5114
    4MOL    H84  450   6.297   6.158   2.392 -0.8310  0.5950 -0.3316
    4MOL    H85  451   6.489   6.297   2.584  0.1120 -0.3829  0.0256
    4MOL    C86  452   6.546   6.152   2.432 -0.1655 -0.4882  0.4658
    4MOL    C87  453   6.681   6.106   2.485  0.8324  0.6047  0.0572
    4MOL    F88  454   6.737   6.040   2.389  0.1227 -0.4936 -0.3632
    4MOL    H89  455   6.491   6.077   2.375 -0.9897 -1.7381  2.8802
    4MOL    H90  456   6.573   6.234   2.365  2.9230 -0.9995  1.0172
    4MOL    H91  457   6.658   6.041   2.569 -0.6807  0.8669 -0.1476
    4MOL    C92  458   6.772   6.220   2.525  0.4221  0.5984  0.4707
    4MOL    C93  459   6.907   6.182   2.578  0.9151 -0.3532  0.8063
    4MOL    F94  460   6.890   6.109   2.684 -0.0560  0.3074 -0.0895
    4MOL    H95  461   6.772   6.287   2.439 -1.2216 -0.5467 -0.4654
    4MOL    H96  462   6.720   6.265   2.609 -0.9303  2.3403 -1.2593
    4MOL    H97  463   6.959   6.268   2.622 -2.1004  0.7910  2.2970
    4MOL    C98  464   7.009   6.110   2.480  0.2011 -0.2399 -0.2542
    4MOL    C99  465   7.160   6.111   2.520  0.1947  1.1675 -0.3709
    4MOL   F100  466   7.213   6.234   2.507  0.0772  0.8638 -0.0623
    4MOL   H101  467   6.975   6.008   2.461 -0.9367  0.1199 -0.2332
    4MOL   H102  468   7.000   6.143   2.377  0.2950 -1.9811 -0.8319
    4MOL   H103  469   7.212   6.062   2.438 -1.3976 -0.8849 -0.1653
    4MOL   C104  470   7.192   6.061   2.665  0.1228  0.4839  0.4231
    4MOL   C105  471   7.147   5.907   2.673 -0.4805 -0.1510  0.1239
    4MOL   F106  472   7.193   5.827   2.578 -0.2272 -0.0420  0.2223
    4MOL   H107  473   7.297   6.083   2.682  0.3180 -0.4087  0.4151
    4MOL   H108  474   7.149   6.119   2.747  1.3607 -0.8521  2.0680
    4MOL   H109  475   7.038   5.898   2.664 -0.4388 -1.0876  0.4845
    4MOL   C110  476   7.175   5.835   2.807 -0.3139 -0.0520  0.1116
    4MOL   C111  477   7.326   5.804   2.837  0.4677 -0.3812 -0.3405
    4MOL   F112  478   7.398   5.913   2.866 -0.2820  0.5359  0.1117
    4MOL   H113  479   7.126   5.893   2.886  1.3742  0.1798  1.0044
    4MOL   H114  480   7.127   5.737   2.800  1.0302 -0.6896 -0.3912
    4MOL   H115  481   7.376   5.760   2.751  1.3391 -0.5280  0.2369
    4MOL   C116  482   7.337   5.714   2.957 -0.0125  0.7071  0.6291
    4MOL   C117  483   7.487   5.658   2.960 -0.2693 -0.3810 -0.5980
    4MOL   F118  484   7.515   5.558   2.875  0.1959 -0.2949 -0.2118
    4MOL   H119  485   7.328   5.768   3.051  2.9916  0.1403  1.2873
    4MOL   H120  486   7.261   5.636   2.956  1.8780 -1.2001 -2.5899
    4MOL   H121  487   7.496   5.620   3.062  1.5251  2.3295  0.3129
    4MOL   H122  488   7.559   5.740   2.949  0.5398 -0.9452  0.3852
    5MOL     C1  489   1.744   5.634   2.771 -0.0154 -0.4657 -0.9138
    5MOL     C2  490   1.694   5.681   2.644 -0.2065 -0.0144  0.1131
    5MOL     F3  491   1.570   5.635   2.615 -0.7183 -0.0399  0.0191
    5MOL     H4  492   1.693   5.689   2.850  1.6061 -1.4575  0.8607
    5MOL     H5  493   1.851   5.651   2.782 -0.0444 -0.0596 -1.2619
    5MOL     H6  494   1.748   5.645   2.557  1.1652  0.5080  0.7342
    5MOL     H7  495   1.728   5.528   2.788 -3.3367  0.3330  1.5600
    5MOL     C8  496   1.684   5.833   2.631 -0.2892 -0.5344 -0.1398
    5MOL     C9  497   1.829   5.896   2.628  0.0930 -0.5740 -0.5371
    5MOL    F10  498   1.895   5.830   2.532  0.0937 -0.4450 -0.0505
    5MOL    H11  499   1.636   5.861   2.538  1.8163  0.7277 -0.8840
    5MOL    H12  500   1.625   5.883   2.707  1.1508  0.4260  0.3759
    5MOL    H13  501   1.874   5.880   2.726 -0.1998  1.7966  0.0213
    5MOL    C14  502   1.829   6.048   2.599  0.7128  0.4061  1.1131
    5MOL    C15  503   1.963   6.124   2.587  0.0581  0.4187 -0.7437
    5MOL    F16  504   2.029   6.112   2.703 -0.1935 -0.0893 -0.3388
    5MOL    H17  505   1.775   6.070   2.507  3.9737  0.1763 -0.9075
    5MOL    H18  506   1.765   6.099   2.672  1.0199  2.0435  0.2653
    5MOL    H19  507   1.945   6.231   2.597 -0.6172  0.3404 -1.0482
    5MOL    C20  508   2.040   6.077   2.460 -0.1478  0.1517 -0.2520
    5MOL    C21  509   1.991   6.143   2.331  0.1935 -0.3077 -0.6867
    5MOL    F22  510   1.981   6.277   2.346  0.3841  0.5372  0.3682
    5MOL    H23  511   2.141   6.110   2.480 -0.9977  2.4042  0.4473
    5MOL    H24  512   2.043   5.970   2.440 -1.4841 -0.1901  1.2739
    5MOL    H25  513   1.889   6.107   2.314  0.1751 -1.8490  2.4180
    5MOL    C26  514   2.067   6.118   2.200  0.4737 -0.5595 -0.0088
    5MOL    C27  515   1.991   6.147   2.067  0.1483 -0.9811  0.6063
    5MOL    F28  516   1.870   6.098   2.082  0.4489 -0.1576  0.2003
    5MOL    H29  517   2.166   6.162   2.212 -0.0650  1.3190 -1.9935
    5MOL    H30  518   2.073   6.010   2.196 -2.3395 -0.7573  0.0758
    5MOL    H31  519   2.047   6.086   1.996  0.7712  1.7564 -1.3826
    5MOL    C32  520   1.992   6.285   2.011 -0.3704 -0.2478  0.7374
    5MOL    C33  521   1.912   6.304   1.884 -0.0204  0.4838 -0.0880
    5MOL    F34  522   1.907   6.434   1.871 -0.2906 -0.0561  0.1734
    5MOL    H35  523   1.964   6.361   2.084 -0.0741 -0.6415  1.2640
    5MOL    H36  524   2.095   6.305   1.981  0.0773 -2.9210  0.3790
    5MOL    H37  525   1.809   6.274   1.900  0.2522 -1.2058 -1.3448
    5MOL    C38  526   1.966   6.258   1.750  0.4328 -0.2114  0.2324
    5MOL    C39  527   1.910   6.119   1.708 -0.1335 -0.6123 -0.1150
    5MOL    F40  528   1.780   6.136   1.695  0.1852 -0.1034  0.0932
    5MOL    H41  529   1.932   6.328   1.674 -0.5607 -0.6003  0.3051
    5MOL    H42  530   2.075   6.257   1.750  0.4664 -4.0365  0.2259
    5MOL    H43  531   1.921   6.044   1.786  1.1508 -0.1164  0.1944
    5MOL    C44  532   1.978   6.064   1.585 -0.5918  0.2768 -0.1579
    5MOL    C45  533   1.956   6.144   1.455 -0.0465  0.4738 -0.1970
    5MOL    F46  534   2.049   6.099   1.368 -0.2134 -0.0431 -0.2550
    5MOL    H47  535   2.083   6.079   1.610 -0.5346  0.8659 -0.7500
    5MOL    H48  536   1.960   5.960   1.557 -0.9382  0.6057 -1.1972
    5MOL    H49  537   1.992   6.245   1.469 -2.8984  1.4212  0.6812
    5MOL    C50  538   1.809   6.133   1.393 -0.3351 -0.2778 -0.4006
    5MOL    C51  539   1.772   5.994   1.335  0.2469  0.2172  0.5593
    5MOL    F52  540   1.771   5.915   1.438  0.7118  0.6238  0.2690
    5MOL    H53  541   1.739   6.179   1.462  0.0271  0.4990 -0.5420
    5MOL    H54  542   1.798   6.211   1.318 -0.4520 -0.7535 -0.8819
    5MOL    H55  543   1.851   5.955   1.270 -2.3380  0.4069 -2.8228
    5MOL    C56  544   1.643   5.998   1.247 -0.2020  0.2241  0.3652
    5MOL    C57  545   1.586   5.865   1.186  0.5971  0.5857 -0.7895
    5MOL    F58  546   1.606   5.765   1.272 -0.1527 -0.1020 -0.1730
    5MOL    H59  547   1.560   6.049   1.295  0.0090  0.3700  0.5776
    5MOL    H60  548   1.660   6.068   1.165  1.5868  2.3064  2.4475
    5MOL    H61  549   1.649   5.839   1.101  1.9007 -0.7123  0.5366
    5MOL    C62  550   1.437   5.870   1.144  0.8036  0.4364 -0.3113
    5MOL    C63  551   1.395   5.987   1.053  0.0681  0.2168  0.7100
    5MOL    F64  552   1.490   6.025   0.964  0.1283 -0.0789  0.2037
    5MOL    H65  553   1.410   5.777   1.094 -0.0715  1.6540 -2.1311
    5MOL    H66  554   1.376   5.856   1.233  0.4192  0.0873 -0.6299
    5MOL    H67  555   1.411   6.075   1.115  1.1018  1.8114 -1.7464
    5MOL    C68  556   1.251   5.995   1.011  1.1790  0.8050 -0.3120
    5MOL    C69  557   1.210   5.924   0.883 -0.4306 -0.3979 -0.3895
    5MOL    F70  558   1.227   5.800   0.912 -0.7056 -0.0176  0.4156
    5MOL    H71  559   1.177   5.968   1.086  1.8776 -2.2215 -0.6423
    5MOL    H72  560   1.231   6.100   0.990 -0.8626  0.4004 -0.4353
    5MOL    H73  561   1.274   5.939   0.795 -1.9838 -0.3553 -1.5403
    5MOL    C74  562   1.066   5.958   0.832  0.5252  0.0236  0.1251
    5MOL    C75  563   1.028   5.893   0.697 -0.0874  0.2967  0.2967
    5MOL    F76  564   1.061   5.766   0.708  0.7802  0.1650 -0.2845
    5MOL    H77  565   0.991   5.927   0.904  0.3283 -0.0351 -0.1023
    5MOL    H78  566   1.059   6.066   0.820  0.8151  0.0677  0.3365
    5MOL    H79  567   1.089   5.934   0.616 -1.5053  1.3488 -0.2656
    5MOL    C80  568   0.882   5.902   0.660 -0.2186  0.2232  0.7908
    5MOL    C81  569   0.826   6.036   0.632  0.1873 -0.2906  0.8979
    5MOL    F82  570   0.884   6.075   0.522  0.0710  0.0011 -0.4610
    5MOL    H83  571   0.861   5.835   0.578 -1.0195  2.0241 -0.5163
    5MOL    H84  572   0.823   5.850   0.735 -2.7631 -1.4557 -2.2875
    5MOL    H85  573   0.861   6.110   0.704 -0.8937 -0.6148  1.7682
    5MOL    C86  574   0.673   6.045   0.601  0.2169 -0.2888  0.0961
    5MOL    C87  575   0.580   6.039   0.724 -0.5416  0.7527  0.5170
    5MOL    F88  576   0.617   6.131   0.804  0.4368  0.2911 -0.2961
    5MOL    H89  577   0.649   6.139   0.551  0.4052 -0.3982 -0.2063
    5MOL    H90  578   0.645   5.967   0.530  1.1252  0.8950 -1.6178
    5MOL    H91  579   0.609   5.948   0.777  2.5462  1.9802  1.0503
    5MOL    C92  580   0.432   6.043   0.694 -0.4039  0.2013  0.2368
    5MOL    C93  581   0.351   6.005   0.807  1.3078  0.0050  0.2256
    5MOL    F94  582   0.376   6.083   0.910  0.4756 -0.1083  0.0187
    5MOL    H95  583   0.411   6.146   0.665 -4.1828 -0.0353  1.8111
    5MOL    H96  584   0.417   5.975   0.610  0.0987 -0.1701  0.4448
    5MOL    H97  585   0.368   5.907   0.851 -2.0477 -0.8002 -0.0740
    5MOL    C98  586   0.196   6.010   0.773  0.4574 -0.1066 -0.6880
    5MOL    C99  587   0.099   6.013   0.894  0.2951 -0.8249 -0.0396
    5MOL   F100  588   7.975   6.013   0.858  0.4262  0.0639 -0.0851
    5MOL   H101  589   0.172   6.098   0.713 -0.9020 -1.4469 -2.1765
    5MOL   H102  590   0.178   5.918   0.718  0.0939 -0.4239 -0.0354
    5MOL   H103  591   0.109   6.108   0.946 -1.5726 -1.1909  1.0303
    5MOL   C104  592   0.132   5.910   1.005 -0.1760 -0.5262 -0.6094
    5MOL   C105  593   0.077   5.949   1.144  0.2788  0.2416 -0.1712
    5MOL   F106  594   0.094   5.836   1.206  0.5070  0.6768 -0.3581
    5MOL   H107  595   0.090   5.818   0.963 -0.2330  0.1588 -2.0615
    5MOL   H108  596   0.237   5.891   1.029 -0.0554 -0.0588 -0.7654
    5MOL   H109  597   7.975   5.979   1.145  0.7729  1.9948  0.5033
    5MOL   C110  598   0.160   6.051   1.235 -0.2618 -0.1019  0.2575
    5MOL   C111  599   0.156   6.196   1.192 -0.2244  0.1859 -0.1695
    5MOL   F112  600   0.028   6.222   1.167 -0.1693 -0.0290 -0.5874
    5MOL   H113  601   0.128   6.043   1.339 -2.0440 -0.6264 -0.3237
    5MOL   H114  602   0.265   6.020   1.241 -1.1875 -3.2862  0.8926
    5MOL   H115  603   0.212   6.216   1.101 -0.9835 -0.9705 -0.8894
    5MOL   C116  604   0.189   6.292   1.320 -0.8577  0.0561 -0.0422
    5MOL   C117  605   0.205   6.432   1.269 -0.2490  0.4144 -0.4538
    5MOL   F118  606   0.262   6.501   1.361 -0.1453 -0.1853  0.1635
    5MOL   H119  607   0.117   6.284   1.402 -0.5294  0.7223  0.3104
    5MOL   H120  608   0.287   6.261   1.358 -1.1221 -2.7035 -1.4341
    5MOL   H121  609   0.117   6.492   1.243 -0.6534  0.3722  0.7632
    5MOL   H122  610   0.263   6.439   1.177  0.9881  0.6832  0.3351
    6MOL     C1  611   0.335   4.903   0.380 -0.7307 -0.4377  0.3432
    6MOL     C2  612   0.480   4.941   0.376 -0.2875  0.0024 -0.1850
    6MOL     F3  613   0.488   5.041   0.464  0.1034  0.4334  0.7245
    6MOL     H4  614   0.311   4.834   0.299 -2.8745 -1.8329  2.0933
    6MOL     H5  615   0.274   4.991   0.361  0.6708  0.2824 -0.8871
    6MOL     H6  616   0.511   4.984   0.281  0.9700  1.2474  0.7748
    6MOL     H7  617   0.302   4.865   0.477  0.5138 -0.0640  0.9232
    6MOL     C8  618   0.573   4.826   0.415  0.2649 -0.3051 -0.0318
    6MOL     C9  619   0.608   4.733   0.308 -0.2527 -0.6154 -0.5059
    6MOL    F10  620   0.688   4.791   0.214 -0.1293  0.0906  0.2609
    6MOL    H11  621   0.672   4.859   0.447  0.2516  2.3091 -2.4526
    6MOL    H12  622   0.547   4.775   0.508 -1.0505 -2.5379 -1.5756
    6MOL    H13  623   0.518   4.707   0.253  0.1377  0.3532 -1.6332
    6MOL    C14  624   0.690   4.613   0.357 -0.0894 -0.8277  0.1666
    6MOL    C15  625   0.677   4.492   0.265  1.3187  0.0758  0.4285
    6MOL    F16  626   0.545   4.468   0.255 -0.8467  0.1265  0.2108
    6MOL    H17  627   0.797   4.633   0.367 -0.1208 -0.3958 -0.3593
    6MOL    H18  628   0.654   4.583   0.455  1.7159 -0.8666  0.8507
    6MOL    H19  629   0.731   4.408   0.310 -0.4027 -1.6093 -0.5758
    6MOL    C20  630   0.755   4.518   0.134  0.1909 -0.2966  0.9986
    6MOL    C21  631   0.771   4.387   0.055 -0.0497 -0.0605 -0.5490
    6MOL    F22  632   0.656   4.343   0.011  0.0470  0.4096 -0.0530
    6MOL    H23  633   0.704   4.598   0.079  1.1560  1.5258  2.7204
    6MOL    H24  634   0.852   4.562   0.158 -0.2181  1.4479 -0.4330
    6MOL    H25  635   0.816   4.309   0.116  0.0565 -1.2667 -2.1232
    6MOL    C26  636   0.863   4.400   7.934 -0.8715 -0.2290 -0.4082
    6MOL    C27  637   1.012   4.429   7.973  0.1246 -0.7588 -0.6871
    6MOL    F28  638   1.050   4.354   0.074 -0.7744  0.2463  0.6836
    6MOL    H29  639   0.864   4.310   7.874 -0.4578 -1.9967  2.1728
    6MOL    H30  640   0.826   4.479   7.868 -3.0086 -0.0692  0.9182
    6MOL    H31  641   1.027   4.528   0.013 -0.6723 -0.4833 -1.0154
    6MOL    C32  642   1.111   4.419   7.857  0.5736 -0.2825  0.4265
    6MOL    C33  643   1.114   4.534   7.755 -0.2143  0.0384 -0.6803
    6MOL    F34  644   1.166   4.645   7.816 -0.1434  0.0269  0.4046
    6MOL    H35  645   1.211   4.418   7.900  0.9342  1.4915 -0.3264
    6MOL    H36  646   1.091   4.326   7.804  2.9179 -0.7700  0.3168
    6MOL    H37  647   1.010   4.564   7.738 -0.3084  1.5225  2.1546
    6MOL    C38  648   1.200   4.502   7.625  0.1401  0.1290  0.4110
    6MOL    C39  649   1.173   4.375   7.550 -0.4496  0.0783  0.3639
    6MOL    F40  650   1.056   4.387   7.487  0.3667 -0.1434 -0.3083
    6MOL    H41  651   1.188   4.581   7.551  0.8032  1.0080  1.2190
    6MOL    H42  652   1.306   4.508   7.652 -0.0941  0.1693  1.3541
    6MOL    H43  653   1.180   4.288   7.615 -1.8600  0.2721  0.7883
    6MOL    C44  654   1.282   4.359   7.439  0.0922 -0.2765 -0.0066
    6MOL    C45  655   1.271   4.225   7.365  0.4240 -0.2323  0.5179
    6MOL    F46  656   1.265   4.127   7.455 -0.4723 -0.0436  0.0083
    6MOL    H47  657   1.287   4.433   7.360  1.6066  0.5491  0.8417
    6MOL    H48  658   1.375   4.359   7.496  0.5409 -0.2852 -0.7447
    6MOL    H49  659   1.366   4.214   7.314  0.0850  0.7759 -0.3482
    6MOL    C50  660   1.161   4.201   7.254  0.5447  0.0389  0.0775
    6MOL    C51  661   1.197   4.088   7.158 -0.3977 -0.1115 -0.6988
    6MOL    F52  662   1.082   4.034   7.113 -0.0342 -0.3523 -0.2033
    6MOL    H53  663   1.064   4.194   7.303  0.5443  0.0049  0.0716
    6MOL    H54  664   1.161   4.291   7.192 -0.7103  0.2129  0.3061
    6MOL    H55  665   1.234   4.008   7.222  1.0894  1.5274  0.5211
    6MOL    C56  666   1.288   4.128   7.036  0.8825 -0.1486  0.2569
    6MOL    C57  667   1.331   4.004   6.957 -0.2567 -0.5979 -0.1789
    6MOL    F58  668   1.410   3.935   7.041 -0.4997 -0.4022 -0.3493
    6MOL    H59  669   1.244   4.199   6.966  0.7569 -0.4793 -0.0009
    6MOL    H60  670   1.374   4.176   7.084  1.4961 -0.4568 -0.5276
    6MOL    H61  671   1.397   4.039   6.877 -1.6010  1.5653 -0.3834
    6MOL    C62  672   1.228   3.907   6.897 -0.2761  0.2903  0.4979
    6MOL    C63  673   1.118   3.981   6.814 -0.1884  0.4262 -0.2817
    6MOL    F64  674   1.165   4.046   6.707  0.1139 -0.4278 -0.1571
    6MOL    H65  675   1.271   3.827   6.836  1.2333  2.4276 -1.3644
    6MOL    H66  676   1.175   3.855   6.976 -1.7684  0.0667 -0.6165
    6MOL    H67  677   1.080   4.061   6.878  0.6965 -0.0449  0.8497
    6MOL    C68  678   0.983   3.909   6.777  0.0320 -0.2239 -1.2188
    6MOL    C69  679   0.905   3.823   6.885 -0.4860  0.6568  0.3700
    6MOL    F70  680   0.869   3.894   6.982  0.0479  0.1920 -0.3176
    6MOL    H71  681   0.923   3.994   6.744 -0.4421  0.1091  0.4475
    6MOL    H72  682   0.995   3.846   6.690 -0.1652 -0.2004 -1.2655
    6MOL    H73  683   0.963   3.741   6.928  0.6323  0.9798 -0.5317
    6MOL    C74  684   0.776   3.762   6.829  0.3660 -0.5025 -0.5131
    6MOL    C75  685   0.800   3.639   6.751  0.7939  0.9860  0.1204
    6MOL    F76  686   0.864   3.547   6.829  0.5164 -0.1918  0.1236
    6MOL    H77  687   0.708   3.741   6.911  0.8614  3.2799  0.9717
    6MOL    H78  688   0.712   3.829   6.770 -0.4046 -1.2088 -0.4820
    6MOL    H79  689   0.875   3.668   6.678 -0.3380 -0.0220 -1.4877
    6MOL    C80  690   0.673   3.580   6.688 -0.0260  0.0235 -0.1724
    6MOL    C81  691   0.695   3.504   6.560 -1.7934 -0.1129  1.0328
    6MOL    F82  692   0.776   3.399   6.577  0.0268  0.2730  0.6550
    6MOL    H83  693   0.626   3.512   6.759  2.6688 -0.3662  1.3221
    6MOL    H84  694   0.597   3.655   6.666 -0.7077 -0.4007  0.6965
    6MOL    H85  695   0.743   3.564   6.483  0.7773 -2.2527  0.8942
    6MOL    C86  696   0.567   3.461   6.492 -0.0589  0.3600  0.0831
    6MOL    C87  697   0.492   3.573   6.420  0.4942 -0.4540  0.6167
    6MOL    F88  698   0.577   3.629   6.339  0.2227  0.5542 -0.1493
    6MOL    H89  699   0.588   3.386   6.416  1.3596  0.8522 -0.0302
    6MOL    H90  700   0.499   3.433   6.573  0.5620 -1.4139  0.0132
    6MOL    H91  701   0.479   3.654   6.492 -0.5679 -1.1995  1.2697
    6MOL    C92  702   0.376   3.536   6.324  0.4545  0.7880 -0.1099
    6MOL    C93  703   0.251   3.488   6.399 -0.1077 -0.0386  0.3296
    6MOL    F94  704   0.209   3.581   6.483  0.8862  0.2995  0.1533
    6MOL    H95  705   0.364   3.619   6.255  0.1364 -0.6640 -1.8581
    6MOL    H96  706   0.416   3.453   6.265  0.3902  0.8777 -0.2815
    6MOL    H97  707   0.276   3.394   6.448  0.7808 -0.4669 -0.9223
    6MOL    C98  708   0.136   3.460   6.304  0.2072  0.2230 -0.5986
    6MOL    C99  709   0.002   3.401   6.365 -0.1466 -0.0088 -0.2169
    6MOL   F100  710   7.898   3.422   6.284 -0.4499  0.2019  0.0516
    6MOL   H101  711   0.108   3.550   6.250 -3.6672 -0.2109  0.5626
    6MOL   H102  712   0.176   3.386   6.235 -1.2412  0.3608 -1.5878
    6MOL   H103  713   7.970   3.466   6.445 -1.1206  0.6595 -1.1718
    6MOL   C104  714   0.006   3.249   6.407  0.1578 -0.2050  0.5818
    6MOL   C105  715   0.037   3.164   6.280 -0.0643 -0.6077 -0.7885
    6MOL   F106  716   0.048   3.041   6.328  0.0718  0.0356  0.4841
    6MOL   H107  717   0.091   3.236   6.474  1.0481  1.0501 -0.2689
    6MOL   H108  718   7.910   3.222   6.443 -0.4556  0.3336 -0.6829
    6MOL   H109  719   0.136   3.175   6.236 -0.5854  3.8708 -1.0476
    6MOL   C110  720   7.936   3.157   6.165 -0.3128 -0.4256  0.0950
    6MOL   C111  721   7.961   3.241   6.038 -0.1897  0.0744  0.4263
    6MOL   F112  722   0.066   3.183   5.981  0.1070  0.4323  0.3617
    6MOL   H113  723   7.940   3.054   6.131  0.5035 -0.6711  0.9008
    6MOL   H114  724   7.834   3.168   6.203 -0.3548 -2.0572  0.4742
    6MOL   H115  725   7.978   3.346   6.061 -1.6155  0.3384  0.3415
    6MOL   C116  726   7.845   3.228   5.938  0.3802 -0.0804 -0.5824
    6MOL   C117  727   7.882   3.276   5.796 -0.2863  0.1564 -0.4581
    6MOL   F118  728   7.918   3.403   5.802 -0.4133 -0.1112 -0.5393
    6MOL   H119  729   7.820   3.122   5.940 -0.3916  0.1030  0.9287
    6MOL   H120  730   7.762   3.271   5.995  1.7842  1.0502  0.6715
    6MOL   H121  731   7.800   3.274   5.725  0.3157  1.2677 -1.2023
    6MOL   H122  732   7.963   3.226   5.743 -1.3038 -0.2119 -1.6804
    7MOL     C1  733   6.090   2.069   0.085 -0.7611 -0.3399  0.0473
    7MOL     C2  734   6.088   1.993   0.225 -0.6867  0.1556  0.0008
    7MOL     F3  735   5.963   1.946   0.245 -0.0140 -0.1425 -0.3531
    7MOL     H4  736   6.036   2.164   0.088 -0.3499 -0.1402  1.4935
    7MOL     H5  737   6.054   1.999   0.010 -0.8719 -1.2402  0.9321
    7MOL     H6  738   6.119   2.060   0.306 -0.7682  2.0021 -1.4761
    7MOL     H7  739   6.191   2.094   0.053  0.4593 -4.5307  0.2902
    7MOL     C8  740   6.179   1.869   0.229 -0.4735  0.4668  0.2780
    7MOL     C9  741   6.333   1.897   0.240 -0.3109  0.0944 -0.2696
    7MOL    F10  742   6.353   1.979   0.344  0.0928  0.6201 -0.4453
    7MOL    H11  743   6.136   1.816   0.313 -1.9431 -2.1215 -2.0019
    7MOL    H12  744   6.161   1.791   0.155  1.4191 -1.6597  1.9904
    7MOL    H13  745   6.356   1.964   0.156  2.6053 -1.5421 -0.8431
    7MOL    C14  746   6.431   1.782   0.235  0.5777  0.6565 -0.5062
    7MOL    C15  747   6.426   1.698   0.108 -0.1383  0.4040  0.5927
    7MOL    F16  748   6.462   1.786   0.017 -0.5754 -0.3105 -0.5344
    7MOL    H17  749   6.530   1.829   0.236  1.4250 -1.0775 -0.6127
    7MOL    H18  750   6.417   1.717   0.321  1.7154  1.5579  0.3725
    7MOL    H19  751   6.321   1.677   0.088  0.2576 -1.7310  0.6744
    7MOL    C20  752   6.519   1.579   0.114  0.3553 -0.2201 -0.0792
    7MOL    C21  753   6.537   1.507   7.980  0.3232  0.6086  0.1202
    7MOL    F22  754   6.631   1.419   0.006 -0.1782 -0.0527  0.7317
    7MOL    H23  755   6.622   1.609   0.130  0.8835 -2.4433  0.7330
    7MOL    H24  756   6.501   1.502   0.189  2.1696 -2.5187 -1.9395
    7MOL    H25  757   6.568   1.576   7.901 -1.9251  0.3119 -1.0594
    7MOL    C26  758   6.426   1.416   7.931 -0.1457 -0.2684 -0.3416
    7MOL    C27  759   6.388   1.417   7.778 -0.0547 -0.0349 -0.3784
    7MOL    F28  760   6.496   1.391   7.703  0.1730  0.0285 -0.1073
    7MOL    H29  761   6.447   1.311   7.950 -3.2895 -0.2194  4.2489
    7MOL    H30  762   6.336   1.427   7.992 -0.5989  0.8161 -1.1832
    7MOL    H31  763   6.370   1.518   7.742  1.2325  0.3882  0.1249
    7MOL    C32  764   6.277   1.320   7.742  0.3866  0.7411  0.9866
    7MOL    C33  765   6.137   1.364   7.810  0.1348  0.6510  0.4484
    7MOL    F34  766   6.131   1.325   7.936  0.3389  0.3333 -0.0483
    7MOL    H35  767   6.250   1.310   7.637  0.5784 -1.2237  1.1004
    7MOL    H36  768   6.311   1.219   7.767 -1.1632  0.3139  1.4059
    7MOL    H37  769   6.059   1.302   7.766  0.6339 -0.8709  1.6863
    7MOL    C38  770   6.103   1.515   7.810  0.1449 -0.6970 -0.0118
    7MOL    C39  771   5.967   1.557   7.880 -0.6835  0.4878  0.1189
    7MOL    F40  772   5.982   1.578   0.010 -0.5408  0.2103 -0.5940
    7MOL    H41  773   6.183   1.574   7.853 -1.6049  2.0275 -0.4240
    7MOL    H42  774   6.107   1.552   7.708  2.5713 -0.7401  0.0522
    7MOL    H43  775   5.897   1.478   7.852  1.1963 -0.3437 -2.4648
    7MOL    C44  776   5.920   1.690   7.826  0.4076  0.1078 -0.1803
    7MOL    C45  777   5.781   1.740   7.867 -0.8716 -0.9685  0.2705
    7MOL    F46  778   5.700   1.641   7.846 -0.1887 -0.4805 -0.6084
    7MOL    H47  779   6.004   1.759   7.827  0.2383  0.3241 -0.7285
    7MOL    H48  780   5.907   1.667   7.720 -0.0046 -0.6789  0.0336
    7MOL    H49  781   5.760   1.826   7.804 -0.3808 -0.3936  0.8937
    7MOL    C50  782   5.762   1.806   0.003 -0.0407 -0.2151  0.5130
    7MOL    C51  783   5.646   1.906   0.026 -0.0913  0.4517  0.7106
    7MOL    F52  784   5.531   1.832   7.999 -0.3994  0.0351  0.0002
    7MOL    H53  785   5.758   1.723   0.074 -1.3949  0.8097  1.6622
    7MOL    H54  786   5.857   1.859   0.015  2.2217 -4.0200  0.3752
    7MOL    H55  787   5.658   1.984   7.955  4.0369 -0.5745  0.1738
    7MOL    C56  788   5.629   1.963   0.172  0.4414 -0.4166 -0.2727
    7MOL    C57  789   5.524   2.077   0.186 -0.0279 -0.0406 -0.8572
    7MOL    F58  790   5.502   2.097   0.318  0.2665 -0.0040 -0.2694
    7MOL    H59  791   5.588   1.886   0.238 -0.5188 -1.1993 -1.7475
    7MOL    H60  792   5.719   2.008   0.214 -0.0742 -1.3273  1.8964
    7MOL    H61  793   5.429   2.047   0.140 -0.8537 -0.8161  1.2906
    7MOL    C62  794   5.567   2.217   0.125 -0.6128  0.3991  0.4332
    7MOL    C63  795   5.465   2.328   0.117  0.1111 -0.7382 -0.7036
    7MOL    F64  796   5.533   2.430   0.070  0.5293 -0.3244  0.4423
    7MOL    H65  797   5.657   2.244   0.180  1.0262  0.1806 -2.0712
    7MOL    H66  798   5.602   2.202   0.023 -0.8193 -0.0477  0.4277
    7MOL    H67  799   5.442   2.355   0.220 -1.2668  2.8215 -1.8405
    7MOL    C68  800   5.334   2.303   0.046  0.5349 -0.1746  0.6527
    7MOL    C69  801   5.226   2.404   0.074  0.0167 -0.0895 -0.0250
    7MOL    F70  802   5.271   2.526   0.029 -0.0048  0.2357  0.0146
    7MOL    H71  803   5.349   2.298   7.942 -0.0140 -1.5338  0.6284
    7MOL    H72  804   5.296   2.204   0.071 -0.9342  0.9974  3.2757
    7MOL    H73  805   5.213   2.415   0.182  0.9595  0.4487  0.0367
    7MOL    C74  806   5.089   2.372   0.004  0.0744  0.1234 -0.1775
    7MOL    C75  807   5.013   2.265   0.092  0.2629  0.7113 -0.5177
    7MOL    F76  808   4.949   2.334   0.186 -0.0516 -0.2938 -0.2541
    7MOL    H77  809   5.016   2.452   7.990 -0.5717 -0.0288  1.7558
    7MOL    H78  810   5.099   2.348   7.901  1.0049 -1.7917  0.3188
    7MOL    H79  811   5.074   2.192   0.145  0.2751  0.0875 -1.3934
    7MOL    C80  812   4.900   2.196   0.015 -0.6181 -0.0867  0.2892
    7MOL    C81  813   4.838   2.091   0.108  0.3989 -0.1013  0.1072
    7MOL    F82  814   4.783   2.137   0.220  0.0108 -0.3351  0.0270
    7MOL    H83  815   4.827   2.272   7.991 -1.6740 -0.6162  1.5868
    7MOL    H84  816   4.936   2.145   7.928  0.1229  0.6063  0.1873
    7MOL    H85  817   4.907   2.024   0.160 -2.0520 -0.6806  2.7321
    7MOL    C86  818   4.720   2.008   0.050  0.1393 -1.0695  0.8536
    7MOL    C87  819   4.607   2.082   7.979 -0.0810  0.7924 -0.0563
    7MOL    F88  820   4.655   2.121   7.864 -0.7606  0.2496  1.0271
    7MOL    H89  821   4.774   1.935   7.993  0.4973 -1.6705  1.8818
    7MOL    H90  822   4.684   1.964   0.144  0.1010  0.2431  1.4585
    7MOL    H91  823   4.582   2.178   0.021 -0.3958  0.2577  0.9002
    7MOL    C92  824   4.490   1.990   7.950  0.1284  0.4191  0.3795
    7MOL    C93  825   4.391   2.031   7.842  0.2864 -0.1777  0.4534
    7MOL    F94  826   4.306   1.925   7.825  0.1181 -0.6431  0.7006
    7MOL    H95  827   4.540   1.897   7.924  0.5665  0.7051  0.1954
    7MOL    H96  828   4.437   1.970   0.040  0.0128  1.6841  0.5999
    7MOL    H97  829   4.442   2.035   7.746 -1.6313  0.4821 -0.5753
    7MOL    C98  830   4.320   2.160   7.862  0.0134 -0.1516  0.0518
    7MOL    C99  831   4.198   2.151   7.955  0.4353 -1.0575  0.6168
    7MOL   F100  832   4.228   2.147   0.082  0.0007  0.4781  0.3856
    7MOL   H101  833   4.386   2.237   7.900 -1.7593  1.0854  0.6944
    7MOL   H102  834   4.296   2.194   7.761  1.2764 -1.8500 -0.8451
    7MOL   H103  835   4.146   2.058   7.930  1.8041 -1.6138 -0.1827
    7MOL   C104  836   4.114   2.281   7.928 -0.1784 -0.2672  0.3883
    7MOL   C105  837   3.991   2.298   0.019  0.1399 -0.1373 -0.0168
    7MOL   F106  838   3.913   2.194   0.016 -0.6982  0.3292  0.1828
    7MOL   H107  839   4.172   2.373   7.929 -0.2537 -0.2069 -0.8913
    7MOL   H108  840   4.082   2.266   7.825  1.5650 -2.1678  0.0950
    7MOL   H109  841   3.931   2.377   7.975 -2.0844 -0.5506  2.0367
    7MOL   C110  842   4.025   2.327   0.171  0.7760 -0.2867  0.4461
    7MOL   C111  843   3.917   2.406   0.249  0.1294  0.0916 -0.4910
    7MOL   F112  844   3.797   2.348   0.233 -0.2758 -0.1190 -0.4725
    7MOL   H113  845   4.061   2.239   0.224 -1.1633 -2.2260 -1.3496
    7MOL   H114  846   4.111   2.393   0.167  0.4560  0.1364  0.5655
    7MOL   H115  847   3.902   2.506   0.207 -2.0215  0.3923  0.9353
    7MOL   C116  848   3.955   2.423   0.396  0.1982 -0.2606  0.6860
    7MOL   C117  849   3.879   2.532   0.463  1.0735  0.0298  0.0289
    7MOL   F118  850   3.835   2.637   0.386  0.2768 -0.1256  0.5361
    7MOL   H119  851   3.951   2.331   0.454  0.9684 -0.3786  0.5655
    7MOL   H120  852   4.059   2.455   0.406  0.6918 -2.3547  2.4196
    7MOL   H121  853   3.941   2.588   0.533  0.0749  2.2741 -0.8327
    7MOL   H122  854   3.788   2.494   0.508 -0.3099  3.1168 -0.0127
    8MOL     C1  855   6.810   6.477   4.377  0.6997  0.4847 -0.2456
    8MOL     C2  856   6.724   6.451   4.248 -0.2102  0.1882  0.6699
    8MOL     F3  857   6.803   6.379   4.171 -0.1847 -0.1042 -0.2029
    8MOL     H4  858   6.821   6.388   4.439  1.1023  0.4787 -0.3210
    8MOL     H5  859   6.769   6.554   4.443 -2.4911 -1.2395 -0.1325
    8MOL     H6  860   6.682   6.537   4.195  1.4051  0.8737  0.4723
    8MOL     H7  861   6.914   6.494   4.348  1.1566 -0.4628  0.8236
    8MOL     C8  862   6.600   6.369   4.283 -0.2915  0.7534  0.7829
    8MOL     C9  863   6.501   6.438   4.371  0.4816 -0.2943 -0.1811
    8MOL    F10  864   6.461   6.542   4.302 -0.4494  0.5260 -0.2041
    8MOL    H11  865   6.547   6.337   4.193  0.1108  0.2484  0.7166
    8MOL    H12  866   6.636   6.279   4.334 -1.7114  1.3236  2.8415
    8MOL    H13  867   6.536   6.484   4.463  0.8465 -0.8799 -0.0268
    8MOL    C14  868   6.375   6.360   4.409  0.1821 -0.2045  0.0836
    8MOL    C15  869   6.404   6.240   4.498  0.6372  0.3993  0.2689
    8MOL    F16  870   6.475   6.274   4.600 -0.1398  0.1117  0.2122
    8MOL    H17  871   6.298   6.410   4.468 -0.1554  0.7022 -1.0940
    8MOL    H18  872   6.318   6.329   4.321 -0.2466 -0.0086  0.2954
    8MOL    H19  873   6.471   6.179   4.437  2.4499  1.0703  1.5579
    8MOL    C20  874   6.283   6.160   4.548  0.5698  0.4949 -0.6131
    8MOL    C21  875   6.217   6.076   4.439  0.4380  0.0094 -0.0321
    8MOL    F22  876   6.303   5.991   4.401  0.2827 -0.0144  0.3550
    8MOL    H23  877   6.315   6.082   4.616  0.1096 -1.9815 -3.1392
    8MOL    H24  878   6.206   6.221   4.597  1.0161 -0.8571  1.8263
    8MOL    H25  879   6.199   6.145   4.357 -1.0545  0.5877  0.7462
    8MOL    C26  880   6.092   6.006   4.476  0.6383  0.1192  0.2251
    8MOL    C27  881   5.968   6.099   4.495  0.1646 -0.3570 -0.5964
    8MOL    F28  882   5.974   6.187   4.388 -0.6195  0.3822 -0.2365
    8MOL    H29  883   6.063   5.931   4.402  1.0569  0.8866 -0.7281
    8MOL    H30  884   6.113   5.952   4.568 -0.1211 -1.2440 -0.3928
    8MOL    H31  885   5.991   6.159   4.583 -0.1159 -0.4418 -0.4658
    8MOL    C32  886   5.836   6.014   4.487 -0.2067 -0.5613  0.1234
    8MOL    C33  887   5.712   6.099   4.537 -0.2261 -0.6116  0.3365
    8MOL    F34  888   5.610   6.036   4.486 -0.5046 -0.1036  0.0739
    8MOL    H35  889   5.822   5.990   4.382  0.5230 -0.6963  0.0550
    8MOL    H36  890   5.855   5.917   4.534  1.8413  0.3800  1.3221
    8MOL    H37  891   5.711   6.198   4.490 -0.6356 -1.5916 -1.7873
    8MOL    C38  892   5.692   6.102   4.690  0.1108  0.1596 -0.1142
    8MOL    C39  893   5.586   6.208   4.733  0.3816 -0.5281  0.1512
    8MOL    F40  894   5.633   6.330   4.693 -0.3921  0.2623  0.5617
    8MOL    H41  895   5.665   6.005   4.730  1.9859  0.5336  2.2075
    8MOL    H42  896   5.787   6.131   4.736  1.1798 -0.5869 -1.8058
    8MOL    H43  897   5.578   6.205   4.841 -0.3442 -0.5292  0.1016
    8MOL    C44  898   5.438   6.195   4.677  0.1268 -0.1329  0.3509
    8MOL    C45  899   5.377   6.058   4.698  0.9577 -0.2570 -0.1586
    8MOL    F46  900   5.384   6.050   4.835  0.5690  0.7253  0.0587
    8MOL    H47  901   5.380   6.280   4.714  0.0757 -0.1288  0.2615
    8MOL    H48  902   5.439   6.218   4.570 -0.6028  1.2974  0.6293
    8MOL    H49  903   5.444   5.982   4.657  1.5480 -0.9642  2.0636
    8MOL    C50  904   5.229   6.046   4.656  0.5946 -0.1605 -0.6505
    8MOL    C51  905   5.166   5.916   4.720  0.2273  0.5374  0.4576
    8MOL    F52  906   5.035   5.920   4.711  0.3254  0.2071 -0.2828
    8MOL    H53  907   5.182   6.137   4.693  2.1845  0.3149  0.2235
    8MOL    H54  908   5.199   6.056   4.552 -0.9936  0.0108 -0.1881
    8MOL    H55  909   5.190   5.912   4.826 -1.6589 -0.3940  0.8767
    8MOL    C56  910   5.211   5.783   4.660  0.1705 -0.7099  0.0256
    8MOL    C57  911   5.139   5.671   4.741 -0.0073  0.9002 -0.8713
    8MOL    F58  912   5.165   5.560   4.681 -0.2646  0.1429 -0.3244
    8MOL    H59  913   5.181   5.763   4.557 -0.8640 -2.8884  0.7116
    8MOL    H60  914   5.319   5.773   4.669  0.2702  0.1257 -0.2143
    8MOL    H61  915   5.032   5.692   4.745 -0.2056 -0.1374 -0.4650
    8MOL    C62  916   5.178   5.667   4.888  0.0586 -0.5453 -0.0177
    8MOL    C63  917   5.176   5.531   4.966  0.0777  0.7702 -0.1009
    8MOL    F64  918   5.279   5.459   4.923  0.1613  0.6411 -0.2910
    8MOL    H65  919   5.280   5.705   4.899 -0.0342  0.0995 -1.3726
    8MOL    H66  920   5.116   5.744   4.934 -1.9849 -0.5973 -2.5841
    8MOL    H67  921   5.094   5.469   4.928  0.5659  0.4061 -0.5659
    8MOL    C68  922   5.181   5.552   5.116  0.1210  0.3160 -0.5613
    8MOL    C69  923   5.049   5.584   5.191 -0.2189  0.1517  0.2301
    8MOL    F70  924   4.954   5.498   5.163 -0.1117  0.3413  0.3799
    8MOL    H71  925   5.227   5.463   5.160 -0.8853 -0.3535 -0.8679
    8MOL    H72  926   5.256   5.629   5.138  0.5239 -0.0761 -0.5557
    8MOL    H73  927   5.011   5.678   5.151 -0.2533  0.9125  1.9713
    8MOL    C74  928   5.066   5.600   5.347 -0.2802 -0.7908 -0.0080
    8MOL    C75  929   4.961   5.688   5.414 -0.3905 -0.3656 -0.0982
    8MOL    F76  930   4.835   5.660   5.382  0.5123  0.0733  0.3938
    8MOL    H77  931   5.056   5.503   5.395  1.3879 -0.4629  1.0217
    8MOL    H78  932   5.170   5.626   5.365 -0.6847  1.2435 -0.4758
    8MOL    H79  933   4.983   5.790   5.382  2.0067 -1.1861 -1.2165
    8MOL    C80  934   4.966   5.694   5.564  1.2649  0.0712  0.4953
    8MOL    C81  935   5.089   5.767   5.620  0.7146  0.3866  0.4728
    8MOL    F82  936   5.081   5.899   5.591  0.1463  0.1742 -0.6590
    8MOL    H83  937   4.872   5.742   5.588 -1.4125 -2.9516 -3.4015
    8MOL    H84  938   4.965   5.591   5.599 -0.3173  0.0028  0.2649
    8MOL    H85  939   5.176   5.729   5.566 -0.1871  0.8721 -1.3473
    8MOL    C86  940   5.118   5.745   5.769  0.2102  0.3965 -0.1638
    8MOL    C87  941   5.168   5.606   5.805 -0.9833  0.1753  1.0598
    8MOL    F88  942   5.280   5.590   5.730 -0.5091  0.1413 -0.4143
    8MOL    H89  943   5.191   5.819   5.802  0.7178  0.2024 -0.8518
    8MOL    H90  944   5.026   5.768   5.822  0.9378  2.4494  0.2618
    8MOL    H91  945   5.094   5.534   5.771  1.3232 -1.4147 -0.7154
    8MOL    C92  946   5.189   5.591   5.957 -0.1196  0.7225 -0.1905
    8MOL    C93  947   5.253   5.461   6.006  0.3917  0.3646  0.0878
    8MOL    F94  948   5.315   5.483   6.117  0.1606 -0.6124 -0.4794
    8MOL    H95  949   5.246   5.680   5.983 -3.1580  2.3436  1.1006
    8MOL    H96  950   5.090   5.605   6.001 -0.6929 -0.4415 -1.0862
    8MOL    H97  951   5.323   5.436   5.927  0.3089  0.1687  0.0771
    8MOL    C98  952   5.148   5.351   6.038 -0.6209  0.6566  0.0630
    8MOL    C99  953   5.210   5.209   6.069 -0.4617 -0.1836 -0.0376
    8MOL   F100  954   5.249   5.203   6.197 -0.0554 -0.0471  0.0056
    8MOL   H101  955   5.090   5.378   6.126  1.1771  0.3539  1.3818
    8MOL   H102  956   5.075   5.345   5.958  0.4719 -0.7581 -0.8455
    8MOL   H103  957   5.306   5.208   6.017 -0.1056  1.9838  0.5329
    8MOL   C104  958   5.118   5.092   6.039 -0.3530  0.3001  0.2219
    8MOL   C105  959   5.155   4.959   6.101  0.5746  0.2855  0.0757
    8MOL   F106  960   5.068   4.863   6.072 -0.1793  0.3581  0.5966
    8MOL   H107  961   5.022   5.114   6.084 -1.0629 -2.0593 -0.0736
    8MOL   H108  962   5.098   5.083   5.932  0.8084  1.2616 -0.0901
    8MOL   H109  963   5.144   4.966   6.209  0.1946  0.4156  0.0302
    8MOL   C110  964   5.299   4.906   6.087 -0.1670  0.0597 -0.3739
    8MOL   C111  965   5.324   4.830   5.958 -0.6607  0.4577 -0.0680
    8MOL   F112  966   5.286   4.897   5.851 -0.0365 -0.2938  0.1489
    8MOL   H113  967   5.374   4.984   6.099  2.0273 -1.8442 -1.4064
    8MOL   H114  968   5.318   4.845   6.175  0.6970 -0.5824 -0.9952
    8MOL   H115  969   5.272   4.734   5.963  0.5336 -0.2235 -0.3211
    8MOL   C116  970   5.478   4.798   5.952  0.0588  1.0231 -0.2750
    8MOL   C117  971   5.507   4.658   5.887 -0.0949 -0.0460 -0.3393
    8MOL   F118  972   5.633   4.634   5.893 -0.0905 -0.1019  0.1051
    8MOL   H119  973   5.539   4.879   5.911  1.6789 -0.0334 -0.0093
    8MOL   H120  974   5.532   4.790   6.047  0.9430  0.4687 -0.8159
    8MOL   H121  975   5.477   4.640   5.784 -0.3755  0.2764 -0.3164
    8MOL   H122  976   5.460   4.581   5.947  0.6955 -0.7021 -0.5516
    9MOL     C1  977   1.673   5.774   6.903 -0.3758 -0.0775 -0.1227
    9MOL     C2  978   1.607   5.826   7.029  0.0715  0.2466 -0.1002
    9MOL     F3  979   1.690   5.799   7.129 -0.2565  0.3254 -0.7350
    9MOL     H4  980   1.700   5.673   6.933 -3.6177 -0.7880  0.6047
    9MOL     H5  981   1.765   5.829   6.883 -1.3027  0.9619 -1.7093
    9MOL     H6  982   1.520   5.766   7.058 -1.2026  0.2720 -3.5925
    9MOL     H7  983   1.601   5.793   6.824  0.1725 -0.2724 -0.6706
    9MOL     C8  984   1.577   5.978   7.025  0.2935 -0.0103 -0.1717
    9MOL     C9  985   1.485   6.025   7.136 -0.6584 -0.4014  0.5058
    9MOL    F10  986   1.564   6.057   7.237  0.6068  0.2654  0.5237
    9MOL    H11  987   1.676   6.024   7.023  0.6677 -0.7408  0.8692
    9MOL    H12  988   1.531   6.007   6.931 -0.0391  0.5938  0.1774
    9MOL    H13  989   1.412   5.952   7.172  0.5878 -2.2091 -0.5282
    9MOL    C14  990   1.409   6.157   7.109 -0.1804  0.6996 -0.0133
    9MOL    C15  991   1.299   6.193   7.210  0.2061 -0.0162  0.1955
    9MOL    F16  992   1.359   6.185   7.333 -0.5219  0.5143  0.6937
    9MOL    H17  993   1.482   6.238   7.115  0.2686  0.4961 -2.0891
    9MOL    H18  994   1.366   6.161   7.008  0.5833 -0.9813 -0.4238
    9MOL    H19  995   1.233   6.107   7.202  0.6727 -0.4151  0.6128
    9MOL    C20  996   1.219   6.321   7.185 -0.4337  0.6944  0.2607
    9MOL    C21  997   1.126   6.322   7.061 -0.1053 -0.0341  0.5789
    9MOL    F22  998   1.039   6.224   7.069 -0.0344 -0.3852 -0.0778
    9MOL    H23  999   1.167   6.331   7.280  1.5927  2.4284  1.2450
    9MOL    H24 1000   1.286   6.407   7.176 -1.5034  1.3318 -1.9174
    9MOL    H25 1001   1.176   6.299   6.967 -1.3380  0.0146 -0.1058
    9MOL    C26 1002   1.039   6.444   7.038 -0.1549 -0.1507  0.1211
    9MOL    C27 1003   1.123   6.555   6.979  0.1152  1.4096 -0.2286
    9MOL    F28 1004   1.134   6.524   6.848 -0.4711 -0.8087 -0.0860
    9MOL    H29 1005   0.959   6.410   6.973 -0.4929 -0.6696  0.8118
    9MOL    H30 1006   0.984   6.476   7.126 -0.7341 -0.8532  0.0144
    9MOL    H31 1007   1.224   6.559   7.021 -0.0656 -1.7776  0.6613
    9MOL    C32 1008   1.056   6.690   6.999 -0.7318 -0.2207 -1.1046
    9MOL    C33 1009   1.065   6.748   7.144  0.0547  0.5776  0.1288
    9MOL    F34 1010   1.189   6.768   7.168 -0.4790 -0.5105 -0.4927
    9MOL    H35 1011   1.111   6.754   6.930 -0.3575  2.1391  1.2949
    9MOL    H36 1012   0.957   6.697   6.952 -1.3388  2.2228  0.4307
    9MOL    H37 1013   1.028   6.675   7.216 -0.3809  1.9848  1.3439
    9MOL    C38 1014   0.994   6.887   7.154 -0.4229 -0.9891  0.5449
    9MOL    C39 1015   0.971   6.940   7.298  0.1015 -0.1255  0.7405
    9MOL    F40 1016   0.871   6.888   7.362 -0.0975 -0.2016  0.0945
    9MOL    H41 1017   1.061   6.957   7.103 -0.1938 -1.6411 -0.0595
    9MOL    H42 1018   0.906   6.890   7.090 -0.4921  0.9039  0.6807
    9MOL    H43 1019   0.932   7.040   7.281  0.0550 -0.3338 -0.3646
    9MOL    C44 1020   1.093   6.953   7.387 -0.3185 -0.1188  0.3498
    9MOL    C45 1021   1.067   7.009   7.524  0.0266 -0.0864 -0.4937
    9MOL    F46 1022   1.164   6.972   7.610 -0.5414  0.1489  0.0037
    9MOL    H47 1023   1.121   6.848   7.400 -1.3361 -0.8048 -2.5591
    9MOL    H48 1024   1.172   7.010   7.338  0.0227  0.0098  1.0475
    9MOL    H49 1025   0.976   6.970   7.569 -1.4927  3.4214 -0.3826
    9MOL    C50 1026   1.050   7.165   7.523  0.1739 -0.3227 -0.7053
    9MOL    C51 1027   1.024   7.232   7.660  0.0711  0.2167  0.0226
    9MOL    F52 1028   1.021   7.364   7.640 -0.0868  0.1265 -0.3805
    9MOL    H53 1029   1.131   7.216   7.471  0.6296 -0.2701  0.0614
    9MOL    H54 1030   0.959   7.190   7.469 -0.2120  0.5659  0.3434
    9MOL    H55 1031   1.106   7.222   7.731 -0.5914  1.2519  0.9384
    9MOL    C56 1032   0.899   7.184   7.742  0.3108  0.3993  0.7675
    9MOL    C57 1033   0.879   7.263   7.878  0.1499 -1.0915 -0.2637
    9MOL    F58 1034   0.771   7.219   7.942 -0.1014 -1.0424 -0.0297
    9MOL    H59 1035   0.822   7.215   7.672  0.7633 -1.5607 -0.6669
    9MOL    H60 1036   0.884   7.076   7.753 -2.9968  0.7930  0.5919
    9MOL    H61 1037   0.858   7.366   7.851 -2.3917 -1.9661 -1.8436
    9MOL    C62 1038   1.002   7.253   7.977 -0.2771 -0.3492 -0.0770
    9MOL    C63 1039   0.986   7.305   0.114 -0.5303 -0.3040 -0.3116
    9MOL    F64 1040   1.090   7.267   0.189 -0.4830  0.1849  0.6993
    9MOL    H65 1041   1.034   7.149   7.983 -0.2075 -0.2726  0.9008
    9MOL    H66 1042   1.086   7.301   7.927 -0.5772  1.4152  1.0913
    9MOL    H67 1043   0.896   7.262   0.157 -0.3906 -0.5590 -0.2738
    9MOL    C68 1044   0.982   7.462   0.119 -0.2226 -0.4443  0.3750
    9MOL    C69 1045   0.971   7.522   0.263 -0.2455  1.0242 -0.2487
    9MOL    F70 1046   0.961   7.652   0.238 -0.1160 -0.4055  0.0030
    9MOL    H71 1047   1.058   7.504   0.053 -1.1892  0.8597  0.0401
    9MOL    H72 1048   0.896   7.473   0.052  1.4084  2.8523 -1.3232
    9MOL    H73 1049   1.058   7.508   0.327 -0.2185  3.7096  0.3798
    9MOL    C74 1050   0.844   7.493   0.345  0.6408  0.5993 -0.6712
    9MOL    C75 1051   0.706   7.538   0.279  0.4963 -0.1643 -0.0982
    9MOL    F76 1052   0.667   7.446   0.183  0.0306  0.2705 -0.9900
    9MOL    H77 1053   0.832   7.385   0.358 -0.0438  0.7134 -0.3388
    9MOL    H78 1054   0.872   7.538   0.440 -0.5006  2.1011 -1.0254
    9MOL    H79 1055   0.707   7.637   0.235  0.4787  0.7181  1.8433
    9MOL    C80 1056   0.588   7.537   0.380  0.6415 -0.3927 -0.8023
    9MOL    C81 1057   0.597   7.663   0.459  0.6203  0.6743  0.5601
    9MOL    F82 1058   0.564   7.756   0.370  0.1644 -0.2225 -0.4944
    9MOL    H83 1059   0.493   7.507   0.336  2.2246 -0.5679 -4.2702
    9MOL    H84 1060   0.612   7.451   0.444  1.1195 -1.5121 -2.4447
    9MOL    H85 1061   0.696   7.686   0.497  1.7837 -1.3278 -1.1452
    9MOL    C86 1062   0.509   7.672   0.586  0.5731 -0.1092  0.8022
    9MOL    C87 1063   0.354   7.648   0.567  0.3100  0.2411  0.1593
    9MOL    F88 1064   0.338   7.524   0.523  0.7800 -0.0240  0.4032
    9MOL    H89 1065   0.556   7.607   0.659 -1.6890 -2.1373  0.5172
    9MOL    H90 1066   0.526   7.774   0.621 -3.4182  0.9970 -0.1484
    9MOL    H91 1067   0.323   7.717   0.488 -0.4022  0.4639  0.6252
    9MOL    C92 1068   0.266   7.676   0.695  0.4854  0.7380 -0.2683
    9MOL    C93 1069   0.266   7.823   0.729  0.0457 -0.7844  0.2024
    9MOL    F94 1070   0.219   7.888   0.625  0.5956  0.1000 -0.1547
    9MOL    H95 1071   0.162   7.653   0.670  0.6362 -0.8991  0.5492
    9MOL    H96 1072   0.306   7.613   0.774  1.0227 -0.7784 -1.7393
    9MOL    H97 1073   0.360   7.869   0.758  0.2378 -0.5803 -0.7231
    9MOL    C98 1074   0.180   7.858   0.852  0.1250 -0.4898 -0.3962
    9MOL    C99 1075   0.228   7.822   0.996  0.3236  0.0583  0.3281
    9MOL   F100 1076   0.346   7.879   1.024  0.0808 -0.6340 -0.1692
    9MOL   H101 1077   0.155   7.964   0.852 -0.3610 -0.5899 -2.0528
    9MOL   H102 1078   0.088   7.800   0.844 -1.5287  1.7521  1.8251
    9MOL   H103 1079   0.239   7.714   0.997  1.0153  0.1220  0.0309
    9MOL   C104 1080   0.113   7.865   1.086 -0.3304 -0.2523  0.9917
    9MOL   C105 1081   0.132   7.819   1.237 -0.0574 -0.3759  0.0672
    9MOL   F106 1082   0.069   7.913   1.315 -0.0716  0.3441  0.0672
    9MOL   H107 1083   0.090   7.971   1.078  3.3209  0.4490 -0.8854
    9MOL   H108 1084   0.024   7.817   1.044  0.8136  0.2689 -2.1808
    9MOL   H109 1085   0.234   7.840   1.271 -0.0128 -1.6835  0.7810
    9MOL   C110 1086   0.081   7.680   1.284 -0.0846 -0.9799  0.3303
    9MOL   C111 1087   0.099   7.653   1.439 -0.6143  0.3811 -0.2853
    9MOL   F112 1088   0.036   7.737   1.511 -0.1128  0.5104  0.1443
    9MOL   H113 1089   7.982   7.667   1.247 -0.7271  1.3975  1.2189
    9MOL   H114 1090   0.137   7.606   1.227 -2.2300 -0.8585 -2.0845
    9MOL   H115 1091   0.201   7.664   1.477 -0.9933  1.8297  0.3132
    9MOL   C116 1092   0.029   7.517   1.478 -0.3331  0.3628 -0.2175
    9MOL   C117 1093   0.104   7.387   1.428  0.1123  0.3696 -0.3320
    9MOL   F118 1094   0.043   7.274   1.462  0.2845  0.1910 -0.0174
    9MOL   H119 1095   0.031   7.513   1.587 -1.9101 -1.7292 -0.2346
    9MOL   H120 1096   7.935   7.517   1.429 -0.1434 -1.3281 -0.6468
    9MOL   H121 1097   0.207   7.395   1.463 -0.1283  3.7394 -0.1716
    9MOL   H122 1098   0.100   7.388   1.319 -1.0373 -1.6406 -0.3252
   10MOL     C1 1099   1.715   3.299   6.801 -0.2086 -0.3482 -0.2307
   10MOL     C2 1100   1.625   3.214   6.704 -0.3071 -0.3684 -0.2768
   10MOL     F3 1101   1.518   3.176   6.769  0.5143 -0.1942  0.0194
   10MOL     H4 1102   1.802   3.339   6.748  0.0509 -0.7892 -0.1419
   10MOL     H5 1103   1.763   3.233   6.872  1.5436  1.6342  0.5061
   10MOL     H6 1104   1.675   3.121   6.679 -0.1039 -0.0257 -1.2034
   10MOL     H7 1105   1.672   3.388   6.846 -1.4143 -1.0088 -0.0712
   10MOL     C8 1106   1.590   3.287   6.576  0.1648  0.1153  0.0325
   10MOL     C9 1107   1.491   3.224   6.479 -0.1787  0.7006  0.0920
   10MOL    F10 1108   1.459   3.328   6.401  0.2724  0.1426 -0.1896
   10MOL    H11 1109   1.538   3.379   6.605 -0.2375 -0.5462  1.4082
   10MOL    H12 1110   1.672   3.324   6.514 -1.3022  0.1308 -1.9211
   10MOL    H13 1111   1.396   3.196   6.524 -1.1797  0.6037 -2.0200
   10MOL    C14 1112   1.540   3.098   6.408  0.0332  0.5843 -0.7041
   10MOL    C15 1113   1.471   2.965   6.460 -0.0310  0.0205  0.6970
   10MOL    F16 1114   1.340   2.979   6.453 -0.1746 -0.1485  0.4426
   10MOL    H17 1115   1.528   3.107   6.300 -0.4979 -1.0969 -0.8084
   10MOL    H18 1116   1.647   3.089   6.422 -0.4740 -2.1582  2.0565
   10MOL    H19 1117   1.511   2.948   6.560 -1.0330 -0.5160  1.0200
   10MOL    C20 1118   1.515   2.840   6.381 -0.2786  0.9252  0.2898
   10MOL    C21 1119   1.475   2.701   6.431 -0.4225 -0.2134  0.2380
   10MOL    F22 1120   1.533   2.612   6.353  0.5522  0.2989 -0.2401
   10MOL    H23 1121   1.486   2.850   6.277 -0.7075 -0.0295  0.3023
   10MOL    H24 1122   1.623   2.842   6.373 -0.4344  0.1006 -2.3677
   10MOL    H25 1123   1.366   2.702   6.427 -0.4693 -0.3883  1.5185
   10MOL    C26 1124   1.533   2.674   6.578  0.2575 -0.5528  0.4390
   10MOL    C27 1125   1.509   2.532   6.629 -0.3142 -0.3151 -0.2434
   10MOL    F28 1126   1.578   2.451   6.552 -0.0892 -0.2092  0.1526
   10MOL    H29 1127   1.638   2.701   6.576  0.9387 -2.9028  2.2835
   10MOL    H30 1128   1.478   2.745   6.640 -0.9591 -0.5714 -0.5815
   10MOL    H31 1129   1.405   2.517   6.602 -0.3686  0.5768 -0.5412
   10MOL    C32 1130   1.553   2.510   6.776 -0.2310  0.4710 -0.1700
   10MOL    C33 1131   1.514   2.366   6.824  0.1158 -0.2628 -0.3018
   10MOL    F34 1132   1.593   2.278   6.751  0.6333 -0.0094  0.3943
   10MOL    H35 1133   1.659   2.532   6.763  0.0268 -0.8540 -0.3645
   10MOL    H36 1134   1.520   2.590   6.842 -0.0893  0.3798  0.0109
   10MOL    H37 1135   1.412   2.346   6.789  0.3777 -1.7782 -0.2519
   10MOL    C38 1136   1.547   2.331   6.965  0.0828 -0.9501 -0.0782
   10MOL    C39 1137   1.490   2.417   7.078 -0.2740  0.3924 -0.2372
   10MOL    F40 1138   1.360   2.423   7.072 -0.4375 -0.0024 -0.7445
   10MOL    H41 1139   1.535   2.223   6.974  0.4284 -0.9579  0.2578
   10MOL    H42 1140   1.653   2.351   6.973  0.0020 -1.6655  3.4188
   10MOL    H43 1141   1.519   2.521   7.064 -0.8205  0.4694 -0.7880
   10MOL    C44 1142   1.539   2.361   7.213 -0.5371  0.0675 -0.1817
   10MOL    C45 1143   1.501   2.446   7.334 -0.5114  0.1372  0.4277
   10MOL    F46 1144   1.525   2.366   7.434 -0.7149  0.9421 -0.2055
   10MOL    H47 1145   1.509   2.257   7.228  1.7391 -0.2083  2.7685
   10MOL    H48 1146   1.648   2.367   7.212 -0.5090 -0.4028 -0.0322
   10MOL    H49 1147   1.393   2.461   7.326 -0.6518 -0.6289  0.8039
   10MOL    C50 1148   1.586   2.573   7.359  0.3984 -0.5806 -0.4140
   10MOL    C51 1149   1.535   2.652   7.480  0.1301 -0.0239  0.4568
   10MOL    F52 1150   1.634   2.735   7.506 -0.7473 -0.0508  0.2926
   10MOL    H53 1151   1.688   2.541   7.385 -0.3681 -2.2507  0.6572
   10MOL    H54 1152   1.597   2.637   7.271 -1.3954 -0.1066 -0.3116
   10MOL    H55 1153   1.512   2.579   7.557 -2.6284  0.7902  0.4867
   10MOL    C56 1154   1.404   2.738   7.454  0.8320  0.0696 -0.1110
   10MOL    C57 1155   1.362   2.820   7.574 -0.6009  0.0925 -0.2304
   10MOL    F58 1156   1.351   2.740   7.677  0.2217  0.0371  0.3458
   10MOL    H59 1157   1.414   2.793   7.361  0.9530 -0.7639 -0.5986
   10MOL    H60 1158   1.322   2.669   7.434  0.8849  0.0097 -0.1197
   10MOL    H61 1159   1.265   2.867   7.560 -0.7638  0.1205  0.9788
   10MOL    C62 1160   1.448   2.950   7.602 -0.6460  0.3104  0.1023
   10MOL    C63 1161   1.465   3.031   7.479 -0.1908  0.2079 -0.0116
   10MOL    F64 1162   1.355   3.093   7.425 -0.0019  0.0330  0.0146
   10MOL    H65 1163   1.408   3.015   7.679 -0.6005 -0.7705  1.0639
   10MOL    H66 1164   1.541   2.913   7.646  0.2338 -0.0533 -2.0003
   10MOL    H67 1165   1.508   2.968   7.401 -0.0270 -0.2367  0.4295
   10MOL    C68 1166   1.558   3.151   7.515 -0.0256 -0.2751 -0.5346
   10MOL    C69 1167   1.623   3.222   7.392  0.2428  0.2847 -0.3464
   10MOL    F70 1168   1.685   3.129   7.321  0.2100 -0.1349  0.5023
   10MOL    H71 1169   1.507   3.215   7.585  0.5747 -0.0483 -0.3024
   10MOL    H72 1170   1.651   3.121   7.564 -0.8682 -0.6816  0.8211
   10MOL    H73 1171   1.709   3.280   7.425 -2.0178  3.3856  0.2637
   10MOL    C74 1172   1.534   3.303   7.295  0.3617  0.4319 -0.5045
   10MOL    C75 1173   1.600   3.399   7.194 -0.1400 -0.1748 -0.5912
   10MOL    F76 1174   1.683   3.337   7.102  0.5680 -0.3630  0.6684
   10MOL    H77 1175   1.475   3.225   7.246  1.6777 -0.9141  0.0346
   10MOL    H78 1176   1.474   3.363   7.364  0.7098  1.1048 -0.7819
   10MOL    H79 1177   1.685   3.453   7.236  1.1376 -1.5341 -1.4123
   10MOL    C80 1178   1.514   3.500   7.118  0.0571  0.7446  0.0580
   10MOL    C81 1179   1.399   3.437   7.041  1.1263 -0.1288 -0.4421
   10MOL    F82 1180   1.303   3.398   7.133  0.0840  0.0621 -0.1681
   10MOL    H83 1181   1.466   3.577   7.179  0.6118  1.7784 -0.7696
   10MOL    H84 1182   1.580   3.553   7.050  0.3504 -0.7324 -0.8259
   10MOL    H85 1183   1.425   3.347   6.985  1.3954  0.9984 -2.2051
   10MOL    C86 1184   1.329   3.532   6.945 -0.2556 -0.1342  0.0822
   10MOL    C87 1185   1.187   3.494   6.897 -0.8625  0.5414 -0.1253
   10MOL    F88 1186   1.137   3.596   6.829 -0.3815 -0.2995  0.1828
   10MOL    H89 1187   1.322   3.621   7.009 -0.8741 -0.9142  1.1109
   10MOL    H90 1188   1.397   3.551   6.862 -0.0394 -0.6076  0.1500
   10MOL    H91 1189   1.118   3.472   6.979 -0.3819 -0.2322  0.0850
   10MOL    C92 1190   1.194   3.373   6.803 -0.3787 -0.1258  0.2503
   10MOL    C93 1191   1.054   3.311   6.766 -0.0754 -0.1152 -0.0704
   10MOL    F94 1192   1.084   3.214   6.670  0.4224 -0.7169 -0.1451
   10MOL    H95 1193   1.253   3.379   6.712  2.7030 -1.4054  2.0960
   10MOL    H96 1194   1.238   3.290   6.858  2.9779 -0.2170 -2.4517
   10MOL    H97 1195   1.005   3.391   6.711  1.0428  0.4797 -0.2253
   10MOL    C98 1196   0.967   3.252   6.876  0.4103  0.0392  0.3793
   10MOL    C99 1197   0.839   3.182   6.831 -0.1368 -0.4360  0.6035
   10MOL   F100 1198   0.860   3.053   6.815 -0.0893 -0.5394 -0.2155
   10MOL   H101 1199   1.028   3.197   6.948  1.4915 -0.0389 -0.5725
   10MOL   H102 1200   0.938   3.341   6.932  0.4200  0.0710  0.3332
   10MOL   H103 1201   0.817   3.222   6.732  1.4266  0.1327  0.4757
   10MOL   C104 1202   0.719   3.213   6.916 -0.7920  0.7321 -0.4223
   10MOL   C105 1203   0.583   3.155   6.871 -0.4114 -0.0531 -0.2991
   10MOL   F106 1204   0.567   3.027   6.900 -0.7615 -0.0041 -0.0477
   10MOL   H107 1205   0.743   3.187   7.019  0.6546 -1.7060 -1.3217
   10MOL   H108 1206   0.708   3.321   6.911 -0.7922  0.9370  2.6358
   10MOL   H109 1207   0.579   3.178   6.765 -0.9665  0.9583 -0.0645
   10MOL   C110 1208   0.456   3.211   6.935 -0.0015 -0.2349  0.3551
   10MOL   C111 1209   0.457   3.216   7.083  0.4220  0.6492 -0.1323
   10MOL   F112 1210   0.563   3.288   7.135 -0.2278  0.4283  0.6387
   10MOL   H113 1211   0.446   3.314   6.900 -0.6342 -0.9824 -1.7417
   10MOL   H114 1212   0.370   3.159   6.894 -0.7374  2.2805 -1.4184
   10MOL   H115 1213   0.455   3.109   7.107  0.0967  0.5350 -0.6616
   10MOL   C116 1214   0.336   3.284   7.140 -0.5265  1.1008  0.6632
   10MOL   C117 1215   0.209   3.200   7.135  1.0433  0.7152  0.8024
   10MOL   F118 1216   0.106   3.274   7.178  0.8097  0.1171  0.5813
   10MOL   H119 1217   0.358   3.293   7.247  0.6264 -0.7606  0.6100
   10MOL   H120 1218   0.320   3.384   7.101 -0.6422  0.6220 -0.5196
   10MOL   H121 1219   0.219   3.111   7.197 -1.1181 -0.4731 -0.4733
   10MOL   H122 1220   0.188   3.168   7.033 -2.1984 -0.0215  1.6246
   11MOL     C1 1221   0.645   2.251   6.653 -0.0107  1.2028 -0.0245
   11MOL     C2 1222   0.567   2.319   6.547 -0.6775  0.2357  1.0902
   11MOL     F3 1223   0.516   2.235   6.458  0.7955 -0.0947 -0.2878
   11MOL     H4 1224   0.724   2.189   6.610 -0.8185  0.3209 -0.2454
   11MOL     H5 1225   0.579   2.192   6.716  0.4325  3.1329  2.3172
   11MOL     H6 1226   0.649   2.370   6.497  0.2387 -1.6819  0.5943
   11MOL     H7 1227   0.696   2.315   6.725  4.2365 -2.7751  0.7824
   11MOL     C8 1228   0.459   2.409   6.605  0.0630 -0.5989  0.2180
   11MOL     C9 1229   0.336   2.346   6.679  0.2232 -0.2076  0.4149
   11MOL    F10 1230   0.383   2.290   6.788  0.4255  0.3697 -0.2785
   11MOL    H11 1231   0.508   2.482   6.669 -1.7128 -0.0661  1.0113
   11MOL    H12 1232   0.420   2.467   6.521  0.1661 -1.0267 -0.1281
   11MOL    H13 1233   0.298   2.262   6.621  0.8327 -1.6128  2.0209
   11MOL    C14 1234   0.229   2.452   6.724 -0.0311  0.5087  0.4759
   11MOL    C15 1235   0.109   2.392   6.797  0.0485  0.1887  0.0840
   11MOL    F16 1236   0.082   2.460   6.912 -0.2530  0.4015  0.5706
   11MOL    H17 1237   0.273   2.521   6.796  0.3619  0.5503  0.1991
   11MOL    H18 1238   0.193   2.511   6.640 -2.0507 -0.1845  0.8346
   11MOL    H19 1239   0.128   2.294   6.839  1.2011  0.2204 -0.3643
   11MOL    C20 1240   7.983   2.386   6.710 -0.1103  0.6703 -0.1099
   11MOL    C21 1241   8.002   2.280   6.592  0.7159 -0.2241  0.9186
   11MOL    F22 1242   0.052   2.162   6.627  0.0422  0.1832 -0.4154
   11MOL    H23 1243   7.902   2.358   6.777  1.9305  1.1547  2.6075
   11MOL    H24 1244   7.955   2.484   6.671  0.8360  1.0034  0.0359
   11MOL    H25 1245   0.073   2.325   6.526 -0.9482  1.2354 -0.0019
   11MOL    C26 1246   7.874   2.257   6.510 -0.1901  0.4235  0.3316
   11MOL    C27 1247   7.894   2.192   6.368  0.8846  0.4292 -0.3213
   11MOL    F28 1248   7.973   2.273   6.309 -0.3046 -0.0302 -0.1904
   11MOL    H29 1249   7.820   2.190   6.577  1.0156  0.4779  1.3792
   11MOL    H30 1250   7.818   2.349   6.494 -1.4829 -0.3854  0.0913
   11MOL    H31 1251   7.804   2.193   6.307  0.8156 -0.8617 -0.2530
   11MOL    C32 1252   7.958   2.051   6.361 -0.1831  0.5260 -0.0061
   11MOL    C33 1253   7.979   1.982   6.228 -0.1585  0.6343  0.3857
   11MOL    F34 1254   7.861   1.990   6.167 -0.3162  0.3687  0.1038
   11MOL    H35 1255   0.050   2.049   6.415 -0.9309 -1.3771  1.2813
   11MOL    H36 1256   7.904   1.985   6.429  1.6454  1.2920  2.2585
   11MOL    H37 1257   8.000   1.878   6.255 -2.1735 -0.5281 -2.3057
   11MOL    C38 1258   0.086   2.049   6.142  0.2286 -0.1446 -0.0759
   11MOL    C39 1259   0.224   2.021   6.212 -0.1695  0.0643 -0.1054
   11MOL    F40 1260   0.234   1.887   6.226  0.7068 -0.1022  0.0693
   11MOL    H41 1261   0.095   1.998   6.046 -2.8001 -0.1970 -0.3873
   11MOL    H42 1262   0.070   2.155   6.119  0.8225 -0.4133 -1.8048
   11MOL    H43 1263   0.225   2.069   6.310 -1.8078 -0.0144 -0.0455
   11MOL    C44 1264   0.347   2.080   6.140  0.8271 -0.1454  0.3149
   11MOL    C45 1265   0.396   2.027   6.007 -0.3952  0.4536 -0.0517
   11MOL    F46 1266   0.481   2.117   5.952  0.4711  0.1492  0.3448
   11MOL    H47 1267   0.336   2.189   6.143 -1.2768 -0.3831  2.1381
   11MOL    H48 1268   0.434   2.079   6.207 -0.4790  1.7189  2.1143
   11MOL    H49 1269   0.309   2.033   5.941 -2.0169 -1.6848  1.8163
   11MOL    C50 1270   0.461   1.888   5.997  0.6869  0.2384  0.3585
   11MOL    C51 1271   0.441   1.821   5.859  0.7529  0.3224 -0.0368
   11MOL    F52 1272   0.444   1.910   5.755  0.5267 -0.0964 -0.3334
   11MOL    H53 1273   0.569   1.900   6.013  0.6355  1.0504  0.1290
   11MOL    H54 1274   0.425   1.822   6.075 -3.1599  0.8000 -0.8525
   11MOL    H55 1275   0.337   1.790   5.851  0.5718  0.5769  1.1917
   11MOL    C56 1276   0.541   1.711   5.827 -0.4751  0.4043 -0.2781
   11MOL    C57 1277   0.527   1.583   5.913  0.7506  0.1232  0.5946
   11MOL    F58 1278   0.407   1.533   5.873 -0.1003  0.0089 -0.4167
   11MOL    H59 1279   0.529   1.685   5.722 -1.2512 -0.2110 -0.0425
   11MOL    H60 1280   0.646   1.741   5.825 -0.3844  0.0727 -2.7927
   11MOL    H61 1281   0.520   1.608   6.019  2.8028  0.9238  0.5652
   11MOL    C62 1282   0.644   1.479   5.896 -0.6344 -0.0041  0.3231
   11MOL    C63 1283   0.687   1.438   5.753 -0.3181 -0.7473  0.2357
   11MOL    F64 1284   0.777   1.337   5.758 -0.1910  0.3024  0.1278
   11MOL    H65 1285   0.735   1.519   5.941  0.1674 -0.0074 -1.2753
   11MOL    H66 1286   0.629   1.388   5.955  0.6029  0.1073  0.8322
   11MOL    H67 1287   0.741   1.518   5.704  1.2235 -3.2455 -2.2909
   11MOL    C68 1288   0.580   1.404   5.650 -0.2836  0.3550 -0.0939
   11MOL    C69 1289   0.620   1.341   5.517  0.2099  0.0079 -0.8840
   11MOL    F70 1290   0.512   1.285   5.461 -0.3379 -0.9374  0.0688
   11MOL    H71 1291   0.511   1.338   5.703  2.0023 -0.0043  2.5361
   11MOL    H72 1292   0.528   1.495   5.621  0.4931  0.6249 -0.6494
   11MOL    H73 1293   0.678   1.255   5.550  2.2341  1.6023 -0.2083
   11MOL    C74 1294   0.697   1.433   5.424  0.2587 -0.0113  0.3750
   11MOL    C75 1295   0.766   1.338   5.318  0.3911  0.1302  0.0863
   11MOL    F76 1296   0.673   1.293   5.230  0.1617  0.1523  0.7102
   11MOL    H77 1297   0.626   1.501   5.376  0.4567  0.3531  0.5972
   11MOL    H78 1298   0.765   1.485   5.492 -0.5855  1.2099  0.3079
   11MOL    H79 1299   0.808   1.246   5.356  0.7055  0.3528  0.2803
   11MOL    C80 1300   0.860   1.423   5.239  0.3557 -0.1464 -0.0152
   11MOL    C81 1301   0.935   1.368   5.112 -0.0787  0.4624 -0.1731
   11MOL    F82 1302   1.014   1.470   5.070 -0.6006  0.1123  0.3347
   11MOL    H83 1303   0.814   1.519   5.215 -0.4229 -0.9646 -1.9545
   11MOL    H84 1304   0.942   1.437   5.309 -0.5193 -0.8085  1.1437
   11MOL    H85 1305   0.866   1.343   5.031 -1.0883  1.9849  0.2000
   11MOL    C86 1306   1.023   1.248   5.141 -0.4107  0.2632  0.4183
   11MOL    C87 1307   1.110   1.207   5.018  0.3130  0.1211  0.2243
   11MOL    F88 1308   1.210   1.119   5.062  0.5187 -0.0953 -0.0133
   11MOL    H89 1309   1.104   1.275   5.208  1.1115  2.1996 -2.0899
   11MOL    H90 1310   0.968   1.166   5.187  0.0860 -0.3755 -0.1219
   11MOL    H91 1311   1.164   1.294   4.981  1.0520  0.5432  2.2391
   11MOL    C92 1312   1.038   1.125   4.906 -0.1656  0.0669 -0.0110
   11MOL    C93 1313   0.998   0.982   4.943 -0.5548 -0.3605  0.5271
   11MOL    F94 1314   0.925   0.975   5.059  0.0685 -0.2020 -0.3000
   11MOL    H95 1315   0.954   1.179   4.863 -0.3995 -1.2026 -1.2103
   11MOL    H96 1316   1.110   1.111   4.825 -0.8384 -0.9734 -0.4453
   11MOL    H97 1317   1.092   0.929   4.958 -0.6861  0.1199  3.3777
   11MOL    C98 1318   0.901   0.921   4.837  0.7544  0.5689 -0.3220
   11MOL    C99 1319   0.950   0.934   4.696  0.6554 -0.6190 -0.4210
   11MOL   F100 1320   1.084   0.896   4.709  0.3192  0.4574  0.2083
   11MOL   H101 1321   0.881   0.815   4.853 -0.3940  0.7391 -0.5608
   11MOL   H102 1322   0.804   0.967   4.854  1.1949  1.6356 -0.6486
   11MOL   H103 1323   0.959   1.037   4.662 -1.1323 -0.1434  0.5446
   11MOL   C104 1324   0.871   0.843   4.603 -0.1947 -0.6171  0.1943
   11MOL   C105 1325   0.724   0.880   4.583 -0.0169 -0.1200  0.4145
   11MOL   F106 1326   0.721   1.005   4.543 -0.0623 -0.2447  0.1722
   11MOL   H107 1327   0.931   0.842   4.511  0.9838 -0.0038  0.9398
   11MOL   H108 1328   0.875   0.741   4.642 -1.7810 -0.5023  0.6614
   11MOL   H109 1329   0.681   0.864   4.682 -0.7794  0.7216  0.2198
   11MOL   C110 1330   0.638   0.788   4.483  0.3154  0.1741 -0.5456
   11MOL   C111 1331   0.631   0.637   4.501 -0.4887 -0.1944 -0.1575
   11MOL   F112 1332   0.573   0.592   4.610  0.0922  0.1467  0.0960
   11MOL   H113 1333   0.538   0.825   4.464  0.1912 -0.1583 -0.5355
   11MOL   H114 1334   0.676   0.803   4.382  0.5187  4.3141  0.0401
   11MOL   H115 1335   0.733   0.602   4.511 -0.6707 -0.9031 -0.7411
   11MOL   C116 1336   0.581   0.566   4.372 -0.3040  0.4500  0.2900
   11MOL   C117 1337   0.462   0.629   4.294 -0.6567  0.7964 -0.3273
   11MOL   F118 1338   0.428   0.541   4.197 -0.0289 -0.0072 -0.1037
   11MOL   H119 1339   0.668   0.563   4.307  0.2884  0.1681  1.0792
   11MOL   H120 1340   0.575   0.459   4.395  1.9956  0.1967 -0.1444
   11MOL   H121 1341   0.471   0.730   4.254 -1.1931  2.0141  2.4496
   11MOL   H122 1342   0.374   0.620   4.358 -1.0978  2.3055 -0.7182
   12MOL     C1 1343   1.177   4.913   1.325 -0.6277  0.1590 -0.0164
   12MOL     C2 1344   1.100   5.019   1.260  0.0736 -0.3341 -0.1042
   12MOL     F3 1345   1.023   4.961   1.167 -0.0927 -0.0117  0.1956
   12MOL     H4 1346   1.129   4.881   1.418 -1.4681 -0.5206 -0.6818
   12MOL     H5 1347   1.272   4.952   1.361 -0.8391  1.3861 -0.7752
   12MOL     H6 1348   1.169   5.089   1.213  0.4037  0.0062  0.8743
   12MOL     H7 1349   1.195   4.831   1.255 -0.3404  0.3847 -0.2077
   12MOL     C8 1350   1.014   5.096   1.357  0.4616 -0.1045  0.3251
   12MOL     C9 1351   0.946   5.220   1.293  0.3649  0.5137  0.0805
   12MOL    F10 1352   0.901   5.182   1.177 -0.1343  0.6809 -0.6199
   12MOL    H11 1353   0.936   5.031   1.397 -1.3167  1.1134 -1.0443
   12MOL    H12 1354   1.082   5.139   1.430  1.8534 -1.1475 -0.3393
   12MOL    H13 1355   1.023   5.296   1.278  2.1552 -1.4345 -0.8951
   12MOL    C14 1356   0.827   5.280   1.366  0.5234 -0.1861 -0.1427
   12MOL    C15 1357   0.861   5.333   1.507 -0.0172 -0.2961  0.3055
   12MOL    F16 1358   0.961   5.417   1.507 -0.6127 -0.6838  0.1953
   12MOL    H17 1359   0.789   5.365   1.310 -2.9895 -0.1781  2.1379
   12MOL    H18 1360   0.747   5.207   1.361 -1.6382  1.9020  2.5531
   12MOL    H19 1361   0.893   5.249   1.568 -0.9848 -1.0081 -0.1554
   12MOL    C20 1362   0.733   5.393   1.575 -0.5762  0.3745  1.0087
   12MOL    C21 1363   0.722   5.391   1.731  0.2672  0.4939  0.0047
   12MOL    F22 1364   0.710   5.263   1.772  0.5003 -0.4339 -0.1745
   12MOL    H23 1365   0.720   5.497   1.546  0.5211  0.5596  1.1632
   12MOL    H24 1366   0.647   5.347   1.526 -0.7887  2.3166 -0.5105
   12MOL    H25 1367   0.626   5.434   1.761  0.1950 -0.8661  1.7958
   12MOL    C26 1368   0.827   5.464   1.816  0.1264  0.0572 -0.2942
   12MOL    C27 1369   0.854   5.609   1.791 -0.7043  0.2722 -0.1839
   12MOL    F28 1370   0.754   5.673   1.854  0.5075  0.4346 -0.5835
   12MOL    H29 1371   0.803   5.455   1.922  0.3793 -1.2735 -0.3315
   12MOL    H30 1372   0.915   5.402   1.798  1.1966  1.7342 -0.8735
   12MOL    H31 1373   0.854   5.625   1.683  3.0523  0.0145 -0.2822
   12MOL    C32 1374   0.977   5.673   1.866  0.2129  0.4315 -0.6898
   12MOL    C33 1375   1.114   5.647   1.800 -0.3646 -0.7446 -0.3910
   12MOL    F34 1376   1.105   5.687   1.672  0.7481  0.2995 -0.2611
   12MOL    H35 1377   0.959   5.780   1.851 -0.5111  0.0252 -2.7890
   12MOL    H36 1378   0.965   5.647   1.971 -0.6231 -2.3034 -1.4416
   12MOL    H37 1379   1.133   5.539   1.802 -0.8744 -0.8306  2.5934
   12MOL    C38 1380   1.231   5.718   1.871  0.6602  0.1829 -0.3736
   12MOL    C39 1381   1.262   5.673   2.017 -0.8121  0.0696 -0.0284
   12MOL    F40 1382   1.284   5.544   2.020 -0.0080  0.2246  0.7393
   12MOL    H41 1383   1.320   5.706   1.810  0.6925 -1.4974 -0.0227
   12MOL    H42 1384   1.206   5.824   1.881  0.8560  0.0595  1.7317
   12MOL    H43 1385   1.164   5.680   2.064 -0.8785 -0.8456 -0.0063
   12MOL    C44 1386   1.378   5.744   2.098  0.5201 -0.0464  0.2789
   12MOL    C45 1387   1.354   5.895   2.112 -0.0720  0.1836  0.9167
   12MOL    F46 1388   1.228   5.905   2.171 -0.4861 -0.2385  0.3432
   12MOL    H47 1389   1.388   5.694   2.194  1.5052 -2.4083 -0.9915
   12MOL    H48 1390   1.477   5.729   2.053  0.5517  0.5271  0.1574
   12MOL    H49 1391   1.346   5.951   2.018 -0.8913 -1.2115  0.1451
   12MOL    C50 1392   1.453   5.970   2.202  0.2345 -0.8738  0.9183
   12MOL    C51 1393   1.446   6.126   2.188  0.7880  0.1005 -0.4195
   12MOL    F52 1394   1.331   6.179   2.222 -0.3384 -0.5311 -0.1582
   12MOL    H53 1395   1.432   5.941   2.305  1.4149  0.1167  1.4631
   12MOL    H54 1396   1.554   5.937   2.178 -0.2477 -2.4206  0.9868
   12MOL    H55 1397   1.479   6.159   2.089  0.7124  3.7609  0.6928
   12MOL    C56 1398   1.543   6.190   2.288  1.1287 -0.0719  0.4501
   12MOL    C57 1399   1.560   6.342   2.272  0.1957  0.1128  0.2883
   12MOL    F58 1400   1.608   6.392   2.387 -0.1418  0.0195 -0.4913
   12MOL    H59 1401   1.506   6.171   2.389  1.1646  1.1340  0.6958
   12MOL    H60 1402   1.641   6.145   2.273  0.9834  0.0735 -1.0939
   12MOL    H61 1403   1.461   6.384   2.254  0.2624  1.1592  2.2088
   12MOL    C62 1404   1.664   6.368   2.162  0.1079 -0.0199  0.4081
   12MOL    C63 1405   1.660   6.506   2.098 -0.0329 -0.3877 -0.3339
   12MOL    F64 1406   1.533   6.530   2.067  0.3205 -0.5992  0.5822
   12MOL    H65 1407   1.766   6.350   2.197  0.7702 -0.6168 -1.7606
   12MOL    H66 1408   1.649   6.291   2.087  0.3391  0.6474 -0.3229
   12MOL    H67 1409   1.705   6.518   2.000  0.1547 -0.2748 -0.2353
   12MOL    C68 1410   1.702   6.623   2.179 -0.5383 -0.2035  0.2559
   12MOL    C69 1411   1.835   6.604   2.253  0.2543 -0.1817  1.1323
   12MOL    F70 1412   1.915   6.586   2.142  0.2558 -0.7637  0.0420
   12MOL    H71 1413   1.701   6.712   2.116  0.7427 -1.4594 -1.6144
   12MOL    H72 1414   1.633   6.633   2.262 -1.2970 -0.1027 -0.3849
   12MOL    H73 1415   1.828   6.514   2.313  0.5695  0.3924  2.0414
   12MOL    C74 1416   1.904   6.711   2.345  0.0781 -0.1339 -0.3215
   12MOL    C75 1417   2.036   6.651   2.396 -0.2590 -0.4632  0.1851
   12MOL    F76 1418   2.140   6.637   2.308 -0.2722  0.5023  0.2049
   12MOL    H77 1419   1.919   6.802   2.287  2.3383  0.6846  1.4792
   12MOL    H78 1420   1.842   6.742   2.429 -0.1728  1.0433 -0.9290
   12MOL    H79 1421   2.012   6.551   2.431  0.5271  0.2487  2.9053
   12MOL    C80 1422   2.092   6.724   2.526  0.1957 -0.1000  0.4851
   12MOL    C81 1423   2.139   6.871   2.492 -0.1070 -0.9409 -0.4988
   12MOL    F82 1424   2.027   6.941   2.479  0.1632 -0.0861  0.0119
   12MOL    H83 1425   2.028   6.714   2.615 -1.0574 -0.7593 -0.4633
   12MOL    H84 1426   2.184   6.669   2.546  1.5144  1.3187 -1.5561
   12MOL    H85 1427   2.202   6.889   2.405 -0.9878  1.3920 -0.6799
   12MOL    C86 1428   2.228   6.933   2.611 -0.0533  0.6205  0.1096
   12MOL    C87 1429   2.255   7.085   2.585 -0.1145 -0.2279  0.5898
   12MOL    F88 1430   2.165   7.163   2.640  0.7437  0.1779 -0.0775
   12MOL    H89 1431   2.180   6.924   2.708  1.0021 -1.4178  0.4732
   12MOL    H90 1432   2.322   6.880   2.621 -1.6666 -2.3244  0.3090
   12MOL    H91 1433   2.268   7.101   2.478  0.7447  0.7493  0.8267
   12MOL    C92 1434   2.394   7.131   2.642  0.9703 -0.0519  0.0027
   12MOL    C93 1435   2.427   7.285   2.635 -0.2644 -0.3707  0.7756
   12MOL    F94 1436   2.542   7.314   2.688  0.1751 -0.3063 -0.5557
   12MOL    H95 1437   2.398   7.103   2.747  1.7346 -0.4334 -0.1295
   12MOL    H96 1438   2.477   7.072   2.603 -0.0512 -0.8755 -0.9821
   12MOL    H97 1439   2.356   7.341   2.696  1.1827 -0.2491  2.3621
   12MOL    C98 1440   2.404   7.349   2.497 -0.1934 -0.2408 -0.4775
   12MOL    C99 1441   2.520   7.310   2.400 -0.1261 -0.4028  0.7795
   12MOL   F100 1442   2.527   7.177   2.375  0.0649  0.7821  0.0484
   12MOL   H101 1443   2.311   7.322   2.448 -0.2533 -3.5721  1.3657
   12MOL   H102 1444   2.422   7.456   2.511  1.9486 -0.6709  0.2838
   12MOL   H103 1445   2.614   7.342   2.446  1.0074 -1.0311 -1.0450
   12MOL   C104 1446   2.514   7.361   2.248  0.2780 -0.2511 -1.1256
   12MOL   C105 1447   2.522   7.509   2.233 -0.3518 -0.1661  0.0370
   12MOL   F106 1448   2.631   7.548   2.292  0.2595 -0.3856  0.8110
   12MOL   H107 1449   2.592   7.323   2.182  1.2802  0.7777 -0.5397
   12MOL   H108 1450   2.426   7.314   2.204  0.0622 -0.1237 -0.8289
   12MOL   H109 1451   2.444   7.558   2.292  0.6300 -0.4286  1.5908
   12MOL   C110 1452   2.511   7.551   2.095  0.1798  0.2331 -0.2433
   12MOL   C111 1453   2.385   7.518   2.008  0.1415 -0.5913 -0.4144
   12MOL   F112 1454   2.286   7.554   2.084  0.2937  0.2454  0.2620
   12MOL   H113 1455   2.541   7.655   2.092  0.8816  0.0572  0.3293
   12MOL   H114 1456   2.588   7.503   2.035 -1.2345 -0.5701 -1.4487
   12MOL   H115 1457   2.378   7.412   1.981 -1.1079 -0.7901  0.6479
   12MOL   C116 1458   2.373   7.587   1.875  0.1284  0.0561 -0.2197
   12MOL   C117 1459   2.262   7.552   1.779  0.1247 -0.0734 -0.6564
   12MOL   F118 1460   2.265   7.638   1.675  0.0284  0.5243  0.0673
   12MOL   H119 1461   2.365   7.694   1.895 -1.6974 -0.1428  0.2473
   12MOL   H120 1462   2.465   7.570   1.819  0.1043 -0.5838 -0.0645
   12MOL   H121 1463   2.161   7.556   1.819  1.3426 -1.0383  2.6851
   12MOL   H122 1464   2.278   7.448   1.750 -3.5472 -0.6842 -0.6523
   13MOL     C1 1465   4.456   7.428   5.095  0.0381 -0.3403  0.0807
   13MOL     C2 1466   4.529   7.474   4.969  0.1210 -0.0082  0.5089
   13MOL     F3 1467   4.445   7.534   4.884  0.3855 -0.1838 -0.4055
   13MOL     H4 1468   4.401   7.503   5.150  0.5576  0.4875 -0.5126
   13MOL     H5 1469   4.530   7.381   5.160 -0.3332 -2.3659 -0.8907
   13MOL     H6 1470   4.566   7.383   4.922  1.1940  1.3042 -1.2682
   13MOL     H7 1471   4.396   7.343   5.061 -0.3370  0.1555 -0.5047
   13MOL     C8 1472   4.646   7.581   4.967  0.7692 -0.7277 -0.3542
   13MOL     C9 1473   4.770   7.543   5.052 -0.2982  0.2355  0.3237
   13MOL    F10 1474   4.828   7.438   4.993  0.5445  0.2781 -0.1115
   13MOL    H11 1475   4.675   7.604   4.864  0.3082 -1.0876 -0.5705
   13MOL    H12 1476   4.602   7.676   4.997 -0.2233 -1.0684 -0.7152
   13MOL    H13 1477   4.740   7.504   5.150  3.0765  0.0738  1.3582
   13MOL    C14 1478   4.874   7.659   5.077  0.5847 -0.6156 -0.6726
   13MOL    C15 1479   4.805   7.794   5.122 -0.3858  0.2956 -0.0952
   13MOL    F16 1480   4.724   7.771   5.229 -0.4139  0.6167 -0.2525
   13MOL    H17 1481   4.950   7.633   5.151  0.5311 -1.9401 -1.0753
   13MOL    H18 1482   4.925   7.680   4.984 -1.4703  3.1670 -1.0542
   13MOL    H19 1483   4.760   7.847   5.038 -0.8152 -1.4898 -1.0097
   13MOL    C20 1484   4.911   7.889   5.176  0.4484 -0.7497  0.0270
   13MOL    C21 1485   5.010   7.948   5.074  0.1018 -0.5830 -0.1164
   13MOL    F22 1486   4.941   0.009   4.975 -0.4125 -0.5847  0.2001
   13MOL    H23 1487   4.860   7.973   5.222  1.3487 -0.6736  0.9273
   13MOL    H24 1488   4.962   7.842   5.261  1.1577  1.0978  0.6562
   13MOL    H25 1489   5.064   7.870   5.020 -1.1569 -0.9086 -0.9410
   13MOL    C26 1490   5.105   0.040   5.140 -0.9289 -0.4529 -0.2712
   13MOL    C27 1491   5.223   0.075   5.048  0.4949  0.0985  0.6622
   13MOL    F28 1492   5.275   7.969   5.002  0.0302 -0.0882 -0.2228
   13MOL    H29 1493   5.065   0.133   5.180  0.8585  0.3044 -0.2135
   13MOL    H30 1494   5.156   7.993   5.222  1.4754 -1.8912 -2.5936
   13MOL    H31 1495   5.292   0.107   5.126 -0.2362  1.5878  0.7254
   13MOL    C32 1496   5.192   0.179   4.941 -0.4974 -0.9563 -0.6159
   13MOL    C33 1497   5.318   0.252   4.876 -0.8204 -0.7876  0.1136
   13MOL    F34 1498   5.426   0.172   4.862 -0.0322  0.3797 -0.0847
   13MOL    H35 1499   5.150   0.128   4.855 -2.7788 -2.2360  1.1958
   13MOL    H36 1500   5.113   0.247   4.974  1.2842  0.9695 -0.2014
   13MOL    H37 1501   5.332   0.339   4.940 -0.1418 -0.4774 -0.4514
   13MOL    C38 1502   5.291   0.294   4.737  0.3928  0.4244 -0.0627
   13MOL    C39 1503   5.190   0.407   4.724 -0.7590  0.2704  0.1741
   13MOL    F40 1504   5.248   0.521   4.755  0.2225  0.2102 -0.6738
   13MOL    H41 1505   5.390   0.329   4.705  0.2842 -0.8357 -1.8847
   13MOL    H42 1506   5.273   0.209   4.672 -0.8183 -0.2420  1.1525
   13MOL    H43 1507   5.103   0.400   4.790 -0.5669 -0.4846  0.3530
   13MOL    C44 1508   5.141   0.421   4.580  0.0374 -0.0465 -0.4391
   13MOL    C45 1509   5.018   0.519   4.564  0.3583  0.0280  0.3808
   13MOL    F46 1510   4.928   0.477   4.649  0.7500  0.4790  0.6025
   13MOL    H47 1511   5.224   0.466   4.526 -1.1406  0.9072 -1.5167
   13MOL    H48 1512   5.121   0.325   4.531  1.5973 -0.4431 -0.3219
   13MOL    H49 1513   4.988   0.496   4.462  0.2514 -2.3890  0.9289
   13MOL    C50 1514   5.046   0.674   4.574  0.2874 -0.6571 -0.3086
   13MOL    C51 1515   4.919   0.762   4.527 -0.1353 -0.0994  0.2829
   13MOL    F52 1516   4.822   0.748   4.620 -0.2763  0.3087  0.6132
   13MOL    H53 1517   5.056   0.677   4.683  1.4567 -0.6487 -0.4074
   13MOL    H54 1518   5.139   0.698   4.522  0.8142 -2.8230 -0.4159
   13MOL    H55 1519   4.876   0.728   4.432 -0.3857  0.5940  0.1459
   13MOL    C56 1520   4.958   0.905   4.524 -0.8706  0.2766  0.3903
   13MOL    C57 1521   5.062   0.944   4.421  0.0876 -0.6243 -0.6983
   13MOL    F58 1522   5.065   0.847   4.335 -0.0827 -0.1446  0.2685
   13MOL    H59 1523   4.865   0.959   4.507 -1.1406 -0.3106 -0.0039
   13MOL    H60 1524   4.997   0.929   4.624 -2.1695 -2.9103  1.7284
   13MOL    H61 1525   5.158   0.949   4.472 -0.1787  0.9167 -0.3022
   13MOL    C62 1526   5.022   1.078   4.353 -0.1390 -0.3083  0.3987
   13MOL    C63 1527   5.145   1.136   4.273  0.5277  0.2652  0.0104
   13MOL    F64 1528   5.247   1.135   4.356  0.1751 -0.1316  0.3210
   13MOL    H65 1529   4.934   1.073   4.289 -0.5231 -0.2403  0.9186
   13MOL    H66 1530   5.000   1.152   4.429  0.7170  1.7604 -1.3142
   13MOL    H67 1531   5.114   1.237   4.247 -1.1960 -0.5920 -1.3395
   13MOL    C68 1532   5.177   1.051   4.149 -0.4819 -0.3892  0.0549
   13MOL    C69 1533   5.236   1.128   4.031 -0.5133 -0.3756  0.8171
   13MOL    F70 1534   5.362   1.150   4.076 -0.1565  0.4953  0.0362
   13MOL    H71 1535   5.240   0.964   4.165 -1.3541 -1.2205 -0.9465
   13MOL    H72 1536   5.084   1.010   4.111 -0.7935  2.1429 -2.0859
   13MOL    H73 1537   5.181   1.221   4.015 -0.5326 -0.7316 -1.4155
   13MOL    C74 1538   5.242   1.048   3.907  0.4137  0.2328  0.2809
   13MOL    C75 1539   5.318   1.107   3.788 -0.3406 -0.0989  0.0503
   13MOL    F76 1540   5.433   1.142   3.830  0.0684  0.4161 -0.3874
   13MOL    H77 1541   5.282   0.949   3.931 -0.8351 -0.3387  0.0453
   13MOL    H78 1542   5.141   1.024   3.874  0.5404 -0.4281  0.3630
   13MOL    H79 1543   5.272   1.196   3.747  0.9811  0.5281 -0.1060
   13MOL    C80 1544   5.335   1.000   3.676 -0.0894  0.8270  0.6868
   13MOL    C81 1545   5.405   1.041   3.551 -0.5238 -0.6523  0.2459
   13MOL    F82 1546   5.535   1.065   3.572 -0.3650  0.1114  0.3866
   13MOL    H83 1547   5.387   0.913   3.715 -0.1634 -0.1178 -1.2705
   13MOL    H84 1548   5.234   0.968   3.648  1.0599 -0.0671 -2.6467
   13MOL    H85 1549   5.359   1.139   3.536  0.7265 -0.2808 -1.2178
   13MOL    C86 1550   5.398   0.953   3.430 -0.5894 -0.1888 -0.1854
   13MOL    C87 1551   5.435   1.025   3.299  0.7797 -0.8029  0.1040
   13MOL    F88 1552   5.463   0.921   3.219 -0.3134  0.0798 -0.3775
   13MOL    H89 1553   5.459   0.864   3.448 -1.5758 -1.1245 -1.3148
   13MOL    H90 1554   5.296   0.915   3.419 -0.5653 -0.6941  1.1607
   13MOL    H91 1555   5.524   1.084   3.322 -0.2365 -0.1256  2.4706
   13MOL    C92 1556   5.319   1.113   3.238  0.1265 -0.1503  0.2629
   13MOL    C93 1557   5.361   1.187   3.105  0.9303 -0.8606 -0.1782
   13MOL    F94 1558   5.247   1.222   3.041 -0.4561 -0.3320  0.0005
   13MOL    H95 1559   5.235   1.046   3.220  0.9881 -1.4449  0.9702
   13MOL    H96 1560   5.278   1.179   3.314  1.4979  0.1780  0.7443
   13MOL    H97 1561   5.414   1.114   3.044  4.0339 -0.1354  1.4806
   13MOL    C98 1562   5.447   1.313   3.119  0.2349  0.6800  0.2260
   13MOL    C99 1563   5.494   1.375   2.983 -0.1752  1.3637  0.6895
   13MOL   F100 1564   5.542   1.499   3.012 -0.1870  0.0291  0.0791
   13MOL   H101 1565   5.377   1.387   3.159 -1.0109 -0.2949 -0.1343
   13MOL   H102 1566   5.533   1.291   3.181 -0.3755 -1.0318  0.4940
   13MOL   H103 1567   5.401   1.392   2.929  0.2236 -2.2585 -1.2620
   13MOL   C104 1568   5.598   1.287   2.904 -0.0742 -0.6258  0.3847
   13MOL   C105 1569   5.576   1.314   2.753  0.7688 -0.8719 -0.0097
   13MOL   F106 1570   5.577   1.444   2.715 -0.2080  0.0522 -0.3326
   13MOL   H107 1571   5.703   1.299   2.931 -0.4637 -2.7767  3.1451
   13MOL   H108 1572   5.586   1.181   2.926 -3.7555 -0.7023 -1.6374
   13MOL   H109 1573   5.471   1.289   2.737  0.3876 -1.4866  3.1213
   13MOL   C110 1574   5.675   1.243   2.655 -0.4541 -0.4281 -0.0190
   13MOL   C111 1575   5.658   1.283   2.498  0.6046  0.2261 -0.0316
   13MOL   F112 1576   5.743   1.218   2.425 -0.6359 -0.0627 -0.1961
   13MOL   H113 1577   5.774   1.268   2.693 -1.7438  0.2039  3.0830
   13MOL   H114 1578   5.672   1.135   2.670 -2.4308 -0.2272  1.0929
   13MOL   H115 1579   5.670   1.390   2.485 -0.5030  0.2958 -0.5846
   13MOL   C116 1580   5.519   1.243   2.449  0.4583 -0.0027  0.3659
   13MOL   C117 1581   5.502   1.295   2.306 -0.5737 -0.0577 -0.3043
   13MOL   F118 1582   5.387   1.260   2.255 -0.6091 -0.5697 -0.0510
   13MOL   H119 1583   5.503   1.135   2.448  0.5432 -0.0219 -2.1735
   13MOL   H120 1584   5.438   1.299   2.496  0.9351  1.7613 -0.8385
   13MOL   H121 1585   5.588   1.261   2.247  1.9063  1.2067  2.4535
   13MOL   H122 1586   5.512   1.404   2.305 -1.0104 -0.0100 -2.6991
   14MOL     C1 1587   5.125   4.319   3.956  0.0283 -0.6369 -0.1426
   14MOL     C2 1588   5.131   4.250   3.820 -0.6653  0.2656 -0.5335
   14MOL     F3 1589   5.085   4.127   3.840  0.5079  0.4308  0.0026
   14MOL     H4 1590   5.042   4.285   4.017  0.5602 -1.6556  0.0222
   14MOL     H5 1591   5.111   4.427   3.949  0.8239 -0.5863 -1.2011
   14MOL     H6 1592   5.236   4.233   3.799 -0.3266  0.8156  0.6347
   14MOL     H7 1593   5.215   4.304   4.016 -1.2291 -0.6268  1.7830
   14MOL     C8 1594   5.048   4.306   3.703  0.0940  0.9415  0.6170
   14MOL     C9 1595   5.100   4.441   3.651 -0.2882  0.5122 -0.2693
   14MOL    F10 1596   5.220   4.429   3.611  0.2340 -0.6244 -0.1054
   14MOL    H11 1597   5.064   4.235   3.622 -1.7202  1.6682 -0.4155
   14MOL    H12 1598   4.943   4.301   3.733 -0.1207  0.8309 -0.1516
   14MOL    H13 1599   5.106   4.512   3.733  0.0104  0.3092 -0.1167
   14MOL    C14 1600   5.027   4.499   3.532 -0.0620  0.2396 -0.1066
   14MOL    C15 1601   5.059   4.446   3.385 -0.0373  0.6930 -0.0470
   14MOL    F16 1602   4.988   4.335   3.391  0.6016  0.5772  0.4974
   14MOL    H17 1603   4.920   4.494   3.549 -0.1765  1.2155 -0.5016
   14MOL    H18 1604   5.049   4.606   3.525  0.3091  0.0710 -1.9487
   14MOL    H19 1605   5.165   4.423   3.373  0.5892  2.4206  1.7450
   14MOL    C20 1606   5.006   4.539   3.276 -0.1516 -0.8545  0.0253
   14MOL    C21 1607   5.101   4.658   3.243  0.6024 -0.6277  0.3219
   14MOL    F22 1608   5.202   4.629   3.162 -0.1503  0.3926 -0.0917
   14MOL    H23 1609   5.011   4.474   3.190 -0.4460 -0.7360 -0.0834
   14MOL    H24 1610   4.910   4.577   3.312  0.4904 -0.5801  1.5045
   14MOL    H25 1611   5.147   4.690   3.337 -0.0351 -1.9401  1.1005
   14MOL    C26 1612   5.029   4.770   3.173  0.2620  0.4064 -0.9789
   14MOL    C27 1613   5.113   4.880   3.119 -0.5751 -0.7426 -0.6817
   14MOL    F28 1614   5.042   4.966   3.050  0.3751 -0.0774 -0.2794
   14MOL    H29 1615   4.960   4.736   3.096  0.4528 -0.4895 -0.7608
   14MOL    H30 1616   4.967   4.815   3.251 -2.8812 -2.3778 -1.7989
   14MOL    H31 1617   5.183   4.848   3.042 -1.5874  2.1977 -2.8871
   14MOL    C32 1618   5.169   4.968   3.235  0.5389 -0.2791 -0.6108
   14MOL    C33 1619   5.289   5.060   3.189  0.1793  0.3746 -0.0061
   14MOL    F34 1620   5.298   5.134   3.298 -0.8061  0.5746  0.6070
   14MOL    H35 1621   5.082   5.022   3.273  0.5913  0.1992 -1.1727
   14MOL    H36 1622   5.208   4.910   3.319  1.2223 -0.0249 -0.7544
   14MOL    H37 1623   5.270   5.123   3.102 -0.1889  1.7726  1.0599
   14MOL    C38 1624   5.422   4.982   3.167  0.5963  0.4775  0.1610
   14MOL    C39 1625   5.551   5.061   3.124  1.0530  0.6602 -0.1676
   14MOL    F40 1626   5.597   5.113   3.235 -0.1515 -0.6073 -0.1160
   14MOL    H41 1627   5.440   4.916   3.252  2.0580  1.5357  0.7012
   14MOL    H42 1628   5.404   4.914   3.084  0.6355 -1.6464  1.8487
   14MOL    H43 1629   5.530   5.148   3.061 -0.0397  0.5290  0.0074
   14MOL    C44 1630   5.658   4.977   3.053 -0.0932  0.9376  0.7646
   14MOL    C45 1631   5.619   4.919   2.916 -0.4805 -0.1778 -0.0889
   14MOL    F46 1632   5.564   5.022   2.852 -0.0589 -0.1661  0.4281
   14MOL    H47 1633   5.745   5.043   3.047  0.2407  0.4539  0.2926
   14MOL    H48 1634   5.701   4.900   3.117 -1.2854 -0.3828  0.0058
   14MOL    H49 1635   5.538   4.846   2.925  0.3693 -1.1583 -0.4177
   14MOL    C50 1636   5.736   4.860   2.841  0.4178  0.8241 -0.1015
   14MOL    C51 1637   5.698   4.764   2.727 -0.8828  0.2708  0.1358
   14MOL    F52 1638   5.596   4.818   2.662  0.0303  0.5887  0.4546
   14MOL    H53 1639   5.803   4.941   2.812 -0.1906  1.8211  1.2158
   14MOL    H54 1640   5.798   4.802   2.909 -0.4242  2.1452  1.8303
   14MOL    H55 1641   5.666   4.671   2.775  0.6726 -0.2623  0.1714
   14MOL    C56 1642   5.806   4.716   2.631  0.2183 -0.1738  0.5196
   14MOL    C57 1643   5.930   4.654   2.708  0.6013 -0.5922  0.0439
   14MOL    F58 1644   5.885   4.563   2.794 -0.0599 -0.6066 -0.1262
   14MOL    H59 1645   5.771   4.635   2.566  0.6314 -0.6994  0.9425
   14MOL    H60 1646   5.825   4.797   2.561 -1.3683 -0.5113 -0.3295
   14MOL    H61 1647   5.972   4.732   2.771 -1.1525  1.7737 -1.6202
   14MOL    C62 1648   6.036   4.588   2.616  0.4095  0.4401  0.4010
   14MOL    C63 1649   6.123   4.686   2.539 -0.6168 -0.2880  0.4609
   14MOL    F64 1650   6.197   4.743   2.627  0.2361  0.0498  0.2572
   14MOL    H65 1651   6.098   4.525   2.679  0.9816  0.9075  0.3119
   14MOL    H66 1652   5.998   4.514   2.546  0.2696  2.0390 -1.2479
   14MOL    H67 1653   6.059   4.755   2.483  1.5814  0.8488 -0.6844
   14MOL    C68 1654   6.221   4.626   2.437 -0.4384 -0.7802 -0.0684
   14MOL    C69 1655   6.161   4.580   2.308 -0.1002  0.5452  0.1624
   14MOL    F70 1656   6.092   4.683   2.263 -0.6317 -0.1476 -0.1880
   14MOL    H71 1657   6.304   4.691   2.409 -0.2040 -0.4938  1.2270
   14MOL    H72 1658   6.288   4.555   2.486  3.7995  2.6745 -0.5292
   14MOL    H73 1659   6.094   4.495   2.325  0.6033 -0.1613 -0.5401
   14MOL    C74 1660   6.270   4.551   2.201 -0.7509  0.5247  0.7134
   14MOL    C75 1661   6.216   4.490   2.067  0.9117 -0.1039  1.2125
   14MOL    F76 1662   6.314   4.487   1.978 -0.2696 -0.0192  0.0272
   14MOL    H77 1663   6.314   4.646   2.172  0.3473  0.3712  1.8297
   14MOL    H78 1664   6.348   4.484   2.238 -0.3673  0.2371 -0.6243
   14MOL    H79 1665   6.142   4.555   2.021  3.9728  2.4335 -0.3484
   14MOL    C80 1666   6.165   4.346   2.079 -0.3403 -0.6063 -0.4726
   14MOL    C81 1667   6.145   4.273   1.948  0.4375  0.4740  0.0627
   14MOL    F82 1668   6.134   4.142   1.951 -0.0820  0.1662 -0.2408
   14MOL    H83 1669   6.227   4.296   2.154  1.8683  3.4029  0.5353
   14MOL    H84 1670   6.067   4.339   2.125 -0.5257  3.4684 -0.0888
   14MOL    H85 1671   6.241   4.277   1.896 -1.5166 -0.3218 -3.7863
   14MOL    C86 1672   6.030   4.326   1.855 -0.1721 -0.6485 -0.0365
   14MOL    C87 1673   6.053   4.298   1.707 -0.1653  0.8391  0.7833
   14MOL    F88 1674   5.942   4.332   1.640 -0.2609  0.3438 -1.0379
   14MOL    H89 1675   5.949   4.264   1.893 -0.6741  0.0567  0.0506
   14MOL    H90 1676   6.010   4.430   1.881  0.7365 -0.5672  0.3753
   14MOL    H91 1677   6.049   4.191   1.690 -1.2246  1.0264 -0.2093
   14MOL    C92 1678   6.167   4.380   1.645 -0.3290 -1.0013  0.2199
   14MOL    C93 1679   6.188   4.350   1.494  0.4606 -0.4926  0.6202
   14MOL    F94 1680   6.264   4.438   1.424 -0.2668  0.0601 -0.6238
   14MOL    H95 1681   6.147   4.485   1.667 -1.2235 -1.0796 -0.2185
   14MOL    H96 1682   6.267   4.365   1.687 -0.1689 -1.7089 -0.4140
   14MOL    H97 1683   6.087   4.360   1.454  0.8216  0.2737 -0.1142
   14MOL    C98 1684   6.234   4.200   1.460  0.7049 -0.3411 -0.3391
   14MOL    C99 1685   6.229   4.165   1.305 -0.0919  0.6389 -0.1975
   14MOL   F100 1686   6.291   4.050   1.287  0.1729  0.0589 -0.0292
   14MOL   H101 1687   6.334   4.198   1.503  1.7884  2.3261 -2.5448
   14MOL   H102 1688   6.171   4.127   1.510 -0.3816  0.5980 -0.3222
   14MOL   H103 1689   6.286   4.241   1.251 -0.1282  0.5262 -0.3953
   14MOL   C104 1690   6.087   4.154   1.248 -0.2047 -0.2566  0.4418
   14MOL   C105 1691   6.015   4.015   1.263  0.1889 -0.1707  0.2670
   14MOL   F106 1692   5.967   4.006   1.390  0.2261 -0.2023  0.4154
   14MOL   H107 1693   6.025   4.239   1.276  0.5677  0.4615 -0.0316
   14MOL   H108 1694   6.105   4.174   1.142 -0.1233 -0.4530  0.4189
   14MOL   H109 1695   6.089   3.935   1.258  0.3528  0.0012 -0.0578
   14MOL   C110 1696   5.899   3.975   1.164  0.3546 -0.0843  0.3083
   14MOL   C111 1697   5.933   3.887   1.038 -0.4897  0.1186 -0.1664
   14MOL   F112 1698   6.028   3.939   0.957 -1.0540 -0.4458  0.0740
   14MOL   H113 1699   5.831   3.916   1.225  0.1794  1.5672  1.7600
   14MOL   H114 1700   5.854   4.070   1.132 -2.4970 -0.7504  2.1144
   14MOL   H115 1701   5.844   3.900   0.976  0.4057 -0.6735 -1.6415
   14MOL   C116 1702   5.964   3.744   1.066 -0.2182 -0.2151 -0.0896
   14MOL   C117 1703   5.975   3.656   0.948  0.2136 -0.3489  0.2654
   14MOL   F118 1704   5.972   3.535   1.002 -0.2948 -1.0275 -0.2144
   14MOL   H119 1705   6.056   3.744   1.124 -0.6054 -0.4664  0.5205
   14MOL   H120 1706   5.901   3.717   1.151  1.3983 -1.2476  0.8033
   14MOL   H121 1707   6.072   3.676   0.902 -0.1728  0.1159 -0.3582
   14MOL   H122 1708   5.895   3.656   0.874 -0.8165 -0.5812  1.3683
   15MOL     C1 1709   3.485   2.748   0.732 -0.3652  0.3918 -0.7146
   15MOL     C2 1710   3.611   2.749   0.820 -0.0081  0.2145  0.4599
   15MOL     F3 1711   3.600   2.710   0.946  0.3818 -0.1080  0.2267
   15MOL     H4 1712   3.408   2.810   0.778 -1.3213 -1.1787 -0.1483
   15MOL     H5 1713   3.434   2.652   0.722  1.1933 -0.4368 -0.8298
   15MOL     H6 1714   3.647   2.851   0.828  5.4700 -1.5691  0.4276
   15MOL     H7 1715   3.496   2.788   0.631  0.4693  1.4630 -0.2067
   15MOL     C8 1716   3.719   2.665   0.759  0.1962  0.0270  0.0653
   15MOL     C9 1717   3.847   2.664   0.845 -0.0158 -1.0331  0.1197
   15MOL    F10 1718   3.919   2.575   0.788 -0.2393  0.3462 -0.0241
   15MOL    H11 1719   3.676   2.565   0.763  0.1263  0.0828  0.8761
   15MOL    H12 1720   3.733   2.696   0.655  0.9196  1.5098  0.5832
   15MOL    H13 1721   3.815   2.622   0.941  0.1969 -1.6338 -0.0709
   15MOL    C14 1722   3.922   2.801   0.848 -0.1083  0.1117 -0.6858
   15MOL    C15 1723   4.048   2.796   0.927 -0.3959 -0.9482  0.1797
   15MOL    F16 1724   4.110   2.914   0.926 -0.5941  0.0785 -0.2028
   15MOL    H17 1725   3.942   2.840   0.748  0.7558 -0.1748 -0.6264
   15MOL    H18 1726   3.859   2.876   0.896  2.7837  1.7494  0.7409
   15MOL    H19 1727   4.113   2.722   0.880 -0.2674 -2.0128  1.9973
   15MOL    C20 1728   4.030   2.763   1.074  0.1027  0.1414  0.1035
   15MOL    C21 1729   3.966   2.872   1.167  0.5632 -0.6580  0.2278
   15MOL    F22 1730   3.828   2.876   1.142 -0.6937  0.2320 -0.2925
   15MOL    H23 1731   3.960   2.681   1.089 -0.8567  0.7951 -0.6883
   15MOL    H24 1732   4.125   2.722   1.108 -0.0903  0.6676  1.2956
   15MOL    H25 1733   3.998   2.971   1.134 -0.8780  0.9119  3.2726
   15MOL    C26 1734   3.985   2.857   1.319  0.8603 -0.5555  0.6084
   15MOL    C27 1735   4.127   2.840   1.374 -0.9132 -0.1349  0.4439
   15MOL    F28 1736   4.212   2.941   1.347 -0.6505 -0.0387  0.4630
   15MOL    H29 1737   3.948   2.946   1.370  3.3838  2.1240 -2.0726
   15MOL    H30 1738   3.921   2.776   1.353 -1.3689  0.5202 -0.8622
   15MOL    H31 1739   4.166   2.745   1.336  2.1852  0.1933  2.5874
   15MOL    C32 1740   4.119   2.831   1.526 -0.0139 -0.2050 -0.8115
   15MOL    C33 1741   4.251   2.771   1.584  0.4444  0.2775  0.1879
   15MOL    F34 1742   4.345   2.864   1.567  0.1394 -0.2109 -0.0324
   15MOL    H35 1743   4.089   2.924   1.574  1.3413  0.5926 -1.4844
   15MOL    H36 1744   4.046   2.756   1.556 -0.5749  0.0404 -1.5755
   15MOL    H37 1745   4.276   2.694   1.511 -0.4013 -0.4606  0.6703
   15MOL    C38 1746   4.235   2.732   1.735 -0.4193 -0.3225  0.5921
   15MOL    C39 1747   4.368   2.718   1.804 -0.0810 -0.1558 -0.4676
   15MOL    F40 1748   4.347   2.688   1.936 -0.3019  0.3528  0.4026
   15MOL    H41 1749   4.181   2.808   1.791 -1.3754 -0.6655  0.1449
   15MOL    H42 1750   4.175   2.643   1.752  0.0528 -1.1643 -1.9529
   15MOL    H43 1751   4.417   2.815   1.815  1.2392 -1.0413  1.9869
   15MOL    C44 1752   4.469   2.620   1.733  0.5341 -0.4629 -0.2355
   15MOL    C45 1753   4.414   2.478   1.735 -0.3677 -0.2987 -0.0844
   15MOL    F46 1754   4.323   2.469   1.640 -0.5419  0.0750 -0.1852
   15MOL    H47 1755   4.498   2.652   1.632 -0.1278 -0.9033 -0.5688
   15MOL    H48 1756   4.569   2.615   1.775  0.7662 -2.3370 -0.9747
   15MOL    H49 1757   4.359   2.459   1.827 -1.4623  0.8341 -0.4806
   15MOL    C50 1758   4.528   2.376   1.716 -0.1287  0.9901 -0.2624
   15MOL    C51 1759   4.486   2.236   1.672 -0.2308  0.0887 -0.8866
   15MOL    F52 1760   4.425   2.246   1.551 -0.0934  0.7875 -0.0112
   15MOL    H53 1761   4.595   2.408   1.636 -0.9744 -1.0450 -1.8251
   15MOL    H54 1762   4.583   2.365   1.810  2.1182  0.9722 -1.5449
   15MOL    H55 1763   4.415   2.182   1.736  0.7825 -1.0425 -0.6946
   15MOL    C56 1764   4.603   2.143   1.648 -0.1293 -0.1686 -0.4928
   15MOL    C57 1765   4.710   2.124   1.760  0.5436 -0.6984 -0.5214
   15MOL    F58 1766   4.653   2.098   1.874  0.4440  0.2674 -0.2410
   15MOL    H59 1767   4.563   2.044   1.624  2.9864 -1.6386  0.0452
   15MOL    H60 1768   4.653   2.164   1.553 -0.7004 -0.7520 -0.9344
   15MOL    H61 1769   4.771   2.213   1.773  0.2863 -0.6195  0.1993
   15MOL    C62 1770   4.799   2.005   1.724 -0.0539 -0.0996 -0.2505
   15MOL    C63 1771   4.894   2.035   1.609 -0.2588  0.2287 -0.1642
   15MOL    F64 1772   4.968   2.147   1.619  0.0324  0.3628  0.6645
   15MOL    H65 1773   4.863   1.984   1.809 -0.1797  0.4654 -0.0071
   15MOL    H66 1774   4.740   1.919   1.693  2.8861 -2.5065  0.6992
   15MOL    H67 1775   4.849   2.037   1.510 -0.9919  2.6443  0.1854
   15MOL    C68 1776   5.002   1.930   1.605  0.7077 -0.5015  0.5019
   15MOL    C69 1777   4.959   1.791   1.558  0.6880  0.4672 -0.2289
   15MOL    F70 1778   4.921   1.800   1.426  0.5697 -0.1928 -0.0846
   15MOL    H71 1779   5.086   1.961   1.543  0.4308 -0.6051  0.0786
   15MOL    H72 1780   5.050   1.916   1.702  0.6342  2.4543  1.0247
   15MOL    H73 1781   4.866   1.762   1.608  0.3220 -0.2568 -1.3225
   15MOL    C74 1782   5.060   1.684   1.583 -0.1997 -0.0077 -0.2986
   15MOL    C75 1783   5.194   1.701   1.514  0.2565 -0.3456 -0.2831
   15MOL    F76 1784   5.255   1.812   1.552  0.3537  0.2903 -0.2671
   15MOL    H77 1785   5.083   1.673   1.689  1.5837  0.4303 -0.6189
   15MOL    H78 1786   5.016   1.588   1.560  0.1700 -0.1622 -0.3706
   15MOL    H79 1787   5.176   1.696   1.407 -0.0230 -1.8550 -0.1752
   15MOL    C80 1788   5.296   1.592   1.542  0.2240 -0.7053  0.0162
   15MOL    C81 1789   5.430   1.593   1.460 -0.4088 -0.1090  0.7467
   15MOL    F82 1790   5.500   1.486   1.492 -0.1421  0.1964 -0.0385
   15MOL    H83 1791   5.330   1.602   1.645 -0.8494  1.2776  0.2150
   15MOL    H84 1792   5.244   1.498   1.525 -2.2725  0.5790  0.2154
   15MOL    H85 1793   5.494   1.678   1.480  1.9376 -1.8818  1.0788
   15MOL    C86 1794   5.422   1.592   1.302 -0.1762  0.3270  0.5323
   15MOL    C87 1795   5.555   1.632   1.227 -0.0857 -0.2949  0.8144
   15MOL    F88 1796   5.596   1.756   1.259  0.3806 -0.5219  0.1276
   15MOL    H89 1797   5.406   1.489   1.271  0.5244  0.2849  0.2984
   15MOL    H90 1798   5.339   1.648   1.259  0.2350  0.3948 -0.1928
   15MOL    H91 1799   5.519   1.635   1.124  3.0816  0.9374 -0.3189
   15MOL    C92 1800   5.672   1.535   1.252  0.4458  0.2392 -0.0580
   15MOL    C93 1801   5.664   1.383   1.215  0.0109  0.6975  0.6452
   15MOL    F94 1802   5.599   1.391   1.100  0.3473 -0.3769 -0.0813
   15MOL    H95 1803   5.761   1.581   1.209  0.7519 -0.0347  0.2809
   15MOL    H96 1804   5.686   1.541   1.360 -0.1523 -0.6255  0.0715
   15MOL    H97 1805   5.610   1.310   1.275  1.4649  0.6433  1.9277
   15MOL    C98 1806   5.804   1.325   1.189  0.3119  0.4576  0.7521
   15MOL    C99 1807   5.904   1.330   1.313  0.2667  0.1625 -0.0866
   15MOL   F100 1808   5.836   1.257   1.409  0.1219 -0.1374 -0.1509
   15MOL   H101 1809   5.785   1.218   1.177  2.4074 -0.2526  3.3225
   15MOL   H102 1810   5.847   1.369   1.099 -1.1954  0.1005 -0.1527
   15MOL   H103 1811   5.913   1.431   1.351 -2.0506  0.1002  0.7117
   15MOL   C104 1812   6.038   1.272   1.273 -0.4257  0.0362 -0.1813
   15MOL   C105 1813   6.154   1.303   1.375 -0.4060 -0.1882 -0.6184
   15MOL   F106 1814   6.167   1.438   1.368  0.0583 -0.6698 -0.6281
   15MOL   H107 1815   6.019   1.165   1.269  0.5574 -0.2099  1.3526
   15MOL   H108 1816   6.066   1.315   1.176 -1.2597  0.6855 -0.1354
   15MOL   H109 1817   6.244   1.260   1.331 -0.2178  2.4143 -2.9308
   15MOL   C110 1818   6.115   1.272   1.521 -0.5272 -0.3740  0.3783
   15MOL   C111 1819   6.107   1.123   1.546  0.4513  0.0757 -0.1316
   15MOL   F112 1820   6.227   1.074   1.539 -0.2315  0.1952  0.0935
   15MOL   H113 1821   6.186   1.324   1.586 -1.6878  0.3720  1.0628
   15MOL   H114 1822   6.018   1.315   1.544  0.9964  1.4598  3.8706
   15MOL   H115 1823   6.047   1.083   1.464 -0.1838 -0.8213  0.7620
   15MOL   C116 1824   6.039   1.103   1.684  0.7836 -0.3188 -0.0986
   15MOL   C117 1825   6.024   0.953   1.710 -0.7263 -0.2682  0.4765
   15MOL   F118 1826   5.979   0.937   1.836 -0.1022 -0.1310  0.2407
   15MOL   H119 1827   6.100   1.154   1.758 -0.5781 -2.1078  2.3335
   15MOL   H120 1828   5.941   1.148   1.694  1.0481  0.2981 -0.3015
   15MOL   H121 1829   6.116   0.897   1.698 -1.4843 -2.1192  2.7122
   15MOL   H122 1830   5.950   0.904   1.647 -2.6652  2.7278  0.3373
   16MOL     C1 1831   6.709   0.387   7.807  0.1569  0.0817 -0.2268
   16MOL     C2 1832   6.790   0.385   7.941  0.4351  0.5102  0.2409
   16MOL     F3 1833   6.819   0.262   7.976 -0.3828 -0.0694 -0.2397
   16MOL     H4 1834   6.768   0.373   7.717  3.0916 -0.8227  1.7794
   16MOL     H5 1835   6.658   0.482   7.791  0.2619  0.5554  2.1747
   16MOL     H6 1836   6.734   0.428   0.020  0.1278  1.5175 -0.4975
   16MOL     H7 1837   6.640   0.303   7.816 -1.3367  1.0353 -2.2563
   16MOL     C8 1838   6.924   0.465   7.935  0.1975 -0.1814  0.4344
   16MOL     C9 1839   6.898   0.617   7.902  0.1764 -0.2411  0.2035
   16MOL    F10 1840   6.785   0.659   7.961  0.0043 -0.0910 -0.2394
   16MOL    H11 1841   6.986   0.446   0.019 -1.7601 -2.9840  1.2962
   16MOL    H12 1842   6.979   0.429   7.848 -1.3492  1.0533 -1.1071
   16MOL    H13 1843   6.870   0.623   7.797  0.4043 -0.4220  0.1346
   16MOL    C14 1844   7.010   0.721   7.926  0.5300  0.1832 -0.1485
   16MOL    C15 1845   7.118   0.735   7.819  0.2024  0.6419 -0.0382
   16MOL    F16 1846   7.192   0.835   7.860 -0.1721  0.5234 -0.4553
   16MOL    H17 1847   6.961   0.819   7.932 -0.9898 -0.6098  0.5962
   16MOL    H18 1848   7.071   0.704   0.012  2.1133 -0.4706 -1.3255
   16MOL    H19 1849   7.076   0.766   7.723  2.2661  1.7964 -0.5822
   16MOL    C20 1850   7.223   0.624   7.810 -1.7879  0.5749  0.2682
   16MOL    C21 1851   7.333   0.655   7.702  0.4335  0.7327 -0.5403
   16MOL    F22 1852   7.418   0.555   7.693  0.1511 -0.5437 -0.4221
   16MOL    H23 1853   7.262   0.612   7.911 -2.5982  2.9362  0.9063
   16MOL    H24 1854   7.175   0.531   7.779 -0.9834  0.7457 -1.5456
   16MOL    H25 1855   7.401   0.732   7.740  0.8505 -0.1986  0.6245
   16MOL    C26 1856   7.286   0.701   7.562  0.7737 -0.6024 -0.4584
   16MOL    C27 1857   7.229   0.596   7.474  0.2737 -0.2854  0.3171
   16MOL    F28 1858   7.119   0.556   7.531  0.0755 -0.3220 -0.0522
   16MOL    H29 1859   7.217   0.784   7.578  2.8074  1.0447 -0.0465
   16MOL    H30 1860   7.371   0.753   7.521  1.2537  0.8349  2.2198
   16MOL    H31 1861   7.305   0.519   7.460  0.5558 -0.0116  0.3261
   16MOL    C32 1862   7.182   0.654   7.333 -0.4557 -0.3192 -0.2509
   16MOL    C33 1863   7.166   0.557   7.218  0.3979 -0.4151 -0.1913
   16MOL    F34 1864   7.281   0.491   7.201 -0.0488 -0.0133  0.2089
   16MOL    H35 1865   7.102   0.728   7.340 -1.6406 -1.7013  1.1316
   16MOL    H36 1866   7.269   0.708   7.293  0.9061 -0.8565  1.9032
   16MOL    H37 1867   7.158   0.617   7.128 -0.3890 -0.4845 -0.1705
   16MOL    C38 1868   7.055   0.451   7.248 -0.5816  0.3495 -0.6326
   16MOL    C39 1869   6.992   0.392   7.118 -0.3826  0.4983  0.1500
   16MOL    F40 1870   6.933   0.498   7.068  0.1812 -0.2737  0.2131
   16MOL    H41 1871   7.075   0.368   7.315 -0.0504  0.5381 -0.5498
   16MOL    H42 1872   6.969   0.499   7.295  0.9201  2.3788  0.1122
   16MOL    H43 1873   6.929   0.314   7.160 -0.3320 -1.0906 -2.6413
   16MOL    C44 1874   7.095   0.339   7.014  0.0373 -0.4439 -0.3719
   16MOL    C45 1875   7.168   0.207   7.061  0.4250  0.6392  0.1835
   16MOL    F46 1876   7.084   0.100   7.079 -0.2489 -0.1549  0.6422
   16MOL    H47 1877   7.028   0.304   6.936  0.8604 -0.6491 -0.9905
   16MOL    H48 1878   7.158   0.424   6.987 -2.0617  1.1329 -0.4419
   16MOL    H49 1879   7.217   0.243   7.151  0.1003  1.9256 -0.1384
   16MOL    C50 1880   7.283   0.169   6.964  0.3801 -0.0367  0.5287
   16MOL    C51 1881   7.389   0.067   7.009  0.1910 -0.4033  0.1102
   16MOL    F52 1882   7.427   0.118   7.127 -0.0298  0.0899 -0.0482
   16MOL    H53 1883   7.253   0.147   6.862  1.1894 -0.3958  0.3651
   16MOL    H54 1884   7.330   0.266   6.948  0.4796  0.2940  2.6788
   16MOL    H55 1885   7.476   0.086   6.945 -1.9135 -0.4437 -2.8582
   16MOL    C56 1886   7.360   7.920   7.026  0.6932  0.2118  0.2421
   16MOL    C57 1887   7.487   7.845   7.076 -0.1963  1.3001  0.1302
   16MOL    F58 1888   7.522   7.874   7.209  0.9334 -0.0021  0.1325
   16MOL    H59 1889   7.271   7.909   7.088 -0.2992  2.5672 -0.6861
   16MOL    H60 1890   7.337   7.885   6.925 -2.4526 -2.1719  1.7087
   16MOL    H61 1891   7.574   7.871   7.015  2.4781  0.8918  3.6052
   16MOL    C62 1892   7.481   7.686   7.075 -0.0757  0.3805  0.3757
   16MOL    C63 1893   7.363   7.619   7.134  0.2880  0.3376  0.3339
   16MOL    F64 1894   7.247   7.659   7.081  0.9502  0.0603  0.0971
   16MOL    H65 1895   7.479   7.651   6.972 -0.5060  1.1937  0.1066
   16MOL    H66 1896   7.576   7.654   7.118 -0.0110  1.6425  1.1956
   16MOL    H67 1897   7.360   7.653   7.238  3.2328 -0.2727  0.6591
   16MOL    C68 1898   7.355   7.466   7.144  1.0623 -0.0910  0.3179
   16MOL    C69 1899   7.469   7.399   7.221  0.7182  0.8720  0.5034
   16MOL    F70 1900   7.467   7.447   7.350  0.6562  0.4304  0.9003
   16MOL    H71 1901   7.265   7.448   7.203 -0.2678 -0.1086 -1.6686
   16MOL    H72 1902   7.346   7.421   7.045 -0.2754  1.9777 -0.5575
   16MOL    H73 1903   7.569   7.417   7.184  1.4588 -1.0774  1.4725
   16MOL    C74 1904   7.449   7.242   7.226 -0.1352  0.0762 -0.1821
   16MOL    C75 1905   7.463   7.162   7.099  0.3838  0.0637 -0.5037
   16MOL    F76 1906   7.584   7.173   7.064  0.2430 -0.3188 -0.3135
   16MOL    H77 1907   7.503   7.191   7.307  1.5118  1.0627 -0.6318
   16MOL    H78 1908   7.349   7.223   7.264 -0.0695 -0.5851 -0.3226
   16MOL    H79 1909   7.394   7.202   7.025  1.2800 -0.3926 -1.5862
   16MOL    C80 1910   7.435   7.010   7.121  0.2702 -0.2663 -0.1278
   16MOL    C81 1911   7.414   6.929   6.989  0.1240  0.0040  0.4874
   16MOL    F82 1912   7.302   6.978   6.934  0.5236 -0.6585 -0.8585
   16MOL    H83 1913   7.504   6.962   7.191 -0.8419 -1.3769  0.2173
   16MOL    H84 1914   7.344   7.001   7.181  1.0187  1.3425  1.2923
   16MOL    H85 1915   7.391   6.826   7.014 -0.8622  0.1435  0.1751
   16MOL    C86 1916   7.530   6.933   6.883 -0.3478  0.1099 -0.5585
   16MOL    C87 1917   7.662   6.862   6.936 -0.5571 -0.2043  0.1071
   16MOL    F88 1918   7.627   6.750   6.999 -0.2576  0.1000 -0.3594
   16MOL    H89 1919   7.500   6.888   6.788 -1.4213 -1.5182  0.5289
   16MOL    H90 1920   7.556   7.038   6.869 -2.0989  1.0258  2.4249
   16MOL    H91 1921   7.707   6.916   7.019 -1.5550 -0.2956  0.7023
   16MOL    C92 1922   7.765   6.833   6.829 -0.2388  0.3074  0.9205
   16MOL    C93 1923   7.897   6.768   6.880  0.9918  0.1993  0.4781
   16MOL    F94 1924   7.944   6.705   6.776 -0.0949  0.7412  0.6028
   16MOL    H95 1925   7.721   6.761   6.759 -0.9589  1.2992  0.3474
   16MOL    H96 1926   7.795   6.916   6.765  0.0071 -0.4305  0.0660
   16MOL    H97 1927   7.878   6.688   6.951 -0.6369 -0.5717 -0.8110
   16MOL    C98 1928   0.000   6.870   6.936  0.0174 -0.2417  0.1769
   16MOL    C99 1929   0.132   6.821   6.990  0.4202 -1.2424  0.3908
   16MOL   F100 1930   0.194   6.933   7.035 -0.0307 -0.0008  0.1719
   16MOL   H101 1931   0.013   6.940   6.854 -0.2452 -0.0338  0.3117
   16MOL   H102 1932   7.964   6.933   7.015 -0.9090 -1.2080  0.5017
   16MOL   H103 1933   0.194   6.787   6.907 -0.1163  3.3681 -2.0339
   16MOL   C104 1934   0.113   6.721   7.106  0.3858 -0.2716  0.4830
   16MOL   C105 1935   0.240   6.701   7.191  0.5893 -0.0028 -0.2619
   16MOL   F106 1936   0.199   6.714   7.321 -0.4286  0.3624  0.0427
   16MOL   H107 1937   0.035   6.760   7.172 -0.9759 -0.3137 -1.0765
   16MOL   H108 1938   0.076   6.626   7.069 -1.1510  0.2802  0.5336
   16MOL   H109 1939   0.314   6.781   7.183  1.2953 -0.7356 -1.0737
   16MOL   C110 1940   0.318   6.570   7.167  0.7571  0.6470  0.0076
   16MOL   C111 1941   0.443   6.557   7.247  0.8141  0.7713 -0.4772
   16MOL   F112 1942   0.417   6.551   7.379  0.0483  0.5290  0.1739
   16MOL   H113 1943   0.256   6.481   7.183  3.3167 -1.4881 -1.5500
   16MOL   H114 1944   0.346   6.563   7.062  0.6351 -2.5499  0.1345
   16MOL   H115 1945   0.503   6.645   7.225  0.3095  1.4997  0.9993
   16MOL   C116 1946   0.526   6.432   7.227  0.3339 -0.3963 -0.2875
   16MOL   C117 1947   0.666   6.431   7.290  0.0339  0.3570 -0.6716
   16MOL   F118 1948   0.725   6.318   7.249  0.0665  0.4188 -0.5029
   16MOL   H119 1949   0.465   6.345   7.251  0.5205 -0.4413  0.0179
   16MOL   H120 1950   0.534   6.423   7.118 -0.8526  0.9539 -0.5070
   16MOL   H121 1951   0.665   6.428   7.399 -1.3174  0.5299 -0.6619
   16MOL   H122 1952   0.727   6.515   7.255  0.2710  0.0711 -0.9451
   17MOL     C1 1953   6.653   2.126   0.366  0.1368 -0.0136 -0.3648
   17MOL     C2 1954   6.782   2.052   0.336  0.6339 -0.5249  0.1042
   17MOL     F3 1955   6.834   2.110   0.220 -0.0194  0.4087 -0.2307
   17MOL     H4 1956   6.620   2.087   0.462  0.8922  0.3994  0.0695
   17MOL     H5 1957   6.581   2.088   0.292  0.4360 -0.0465 -0.6401
   17MOL     H6 1958   6.756   1.947   0.327 -1.2941 -0.2846  2.4465
   17MOL     H7 1959   6.669   2.234   0.369 -1.2175  0.1978 -0.1661
   17MOL     C8 1960   6.882   2.070   0.450  0.1558 -0.8843 -0.5092
   17MOL     C9 1961   7.016   1.983   0.439  0.1678  0.1519  0.0857
   17MOL    F10 1962   7.096   2.037   0.345 -0.2444  0.3221 -0.3014
   17MOL    H11 1963   6.909   2.175   0.461 -1.6736 -0.5392  1.0316
   17MOL    H12 1964   6.836   2.043   0.545  0.2544 -0.5747 -0.3731
   17MOL    H13 1965   6.986   1.882   0.409 -1.2390 -0.3447  3.0493
   17MOL    C14 1966   7.094   1.973   0.575 -0.7644  0.2876  1.0679
   17MOL    C15 1967   7.211   1.871   0.581  0.2783 -0.0247  0.4091
   17MOL    F16 1968   7.158   1.760   0.537 -0.2488  0.2952  0.2241
   17MOL    H17 1969   7.111   2.073   0.616  0.1914  0.3087  0.6472
   17MOL    H18 1970   7.016   1.931   0.639  0.1293 -0.1834  1.8560
   17MOL    H19 1971   7.232   1.853   0.687 -0.3806  1.3142  0.7828
   17MOL    C20 1972   7.337   1.908   0.497  0.0769  1.1447  0.2490
   17MOL    C21 1973   7.386   2.049   0.512  0.4216 -0.2783 -0.0587
   17MOL    F22 1974   7.413   2.072   0.640  0.2103  0.2085 -0.4250
   17MOL    H23 1975   7.421   1.840   0.513  1.4222  2.7731  0.1997
   17MOL    H24 1976   7.319   1.891   0.391  1.5358 -1.8278  0.4319
   17MOL    H25 1977   7.310   2.122   0.484  0.3057  0.2657  1.6213
   17MOL    C26 1978   7.518   2.060   0.431 -0.7664 -0.3175 -0.6972
   17MOL    C27 1979   7.575   2.203   0.420 -0.2124  0.7223  0.5296
   17MOL    F28 1980   7.704   2.209   0.386 -0.2981 -0.1044 -0.0240
   17MOL    H29 1981   7.590   1.986   0.467 -0.6863 -0.3032 -0.8271
   17MOL    H30 1982   7.509   2.032   0.326  1.0029 -0.4503 -0.8278
   17MOL    H31 1983   7.568   2.237   0.524  0.4314 -0.4744  0.9843
   17MOL    C32 1984   7.496   2.287   0.321  1.1946 -0.7185  0.1679
   17MOL    C33 1985   7.566   2.422   0.277 -0.1990  0.3341 -0.0010
   17MOL    F34 1986   7.487   2.469   0.185  0.0257 -0.1361 -0.1137
   17MOL    H35 1987   7.491   2.239   0.223  0.2607  0.7524 -0.5424
   17MOL    H36 1988   7.392   2.301   0.351  0.9051  0.5072 -1.3398
   17MOL    H37 1989   7.661   2.410   0.225 -0.5074 -0.3799 -0.4065
   17MOL    C38 1990   7.561   2.531   0.391 -0.1374  0.1896  0.1517
   17MOL    C39 1991   7.629   2.661   0.347 -0.1613  0.6218 -0.1911
   17MOL    F40 1992   7.539   2.727   0.280 -0.3132 -0.2014 -0.2592
   17MOL    H41 1993   7.456   2.549   0.415 -1.0520  0.1274 -3.3985
   17MOL    H42 1994   7.607   2.487   0.479  0.5638 -1.2824 -0.9296
   17MOL    H43 1995   7.717   2.647   0.285 -0.2977  2.1737 -0.7617
   17MOL    C44 1996   7.683   2.751   0.462  0.2973  0.2418 -0.5970
   17MOL    C45 1997   7.773   2.864   0.422  0.4962  0.0208 -0.1223
   17MOL    F46 1998   7.713   2.941   0.327 -0.2510 -0.0262  0.3065
   17MOL    H47 1999   7.601   2.789   0.523  1.0905  0.2866  0.4489
   17MOL    H48 2000   7.739   2.683   0.526  1.1509 -0.4267 -2.0283
   17MOL    H49 2001   7.868   2.826   0.384  1.5681  0.3858  2.0956
   17MOL    C50 2002   7.813   2.952   0.546 -0.1294  0.7379  0.1589
   17MOL    C51 2003   7.931   3.041   0.521  0.1373 -0.5541 -0.2365
   17MOL    F52 2004   0.022   2.950   0.518 -0.2766  0.1335  0.6301
   17MOL    H53 2005   7.721   2.999   0.580 -1.4030 -2.3233  1.1338
   17MOL    H54 2006   7.834   2.889   0.632 -0.7498  0.0612 -0.1771
   17MOL    H55 2007   7.926   3.099   0.612  0.0994  0.8384 -1.1150
   17MOL    C56 2008   7.928   3.144   0.403 -0.1546 -0.1671 -0.5447
   17MOL    C57 2009   0.045   3.233   0.379 -0.0017  0.6141 -0.3892
   17MOL    F58 2010   0.162   3.163   0.376 -0.2053 -0.3109 -0.0215
   17MOL    H59 2011   7.914   3.086   0.311 -0.9809 -0.0648 -0.4880
   17MOL    H60 2012   7.843   3.207   0.428 -1.0588 -2.2534  1.8339
   17MOL    H61 2013   0.052   3.308   0.457 -0.2328  1.3363 -1.0521
   17MOL    C62 2014   0.023   3.317   0.249 -0.1441 -0.0723  0.5926
   17MOL    C63 2015   0.133   3.415   0.205  0.0801 -0.3488  0.3809
   17MOL    F64 2016   0.130   3.448   0.074  0.2421  0.2367  0.2318
   17MOL    H65 2017   8.003   3.263   0.158 -0.0286  0.9725 -0.0706
   17MOL    H66 2018   7.941   3.385   0.254  0.0764  0.2515  0.0104
   17MOL    H67 2019   0.228   3.361   0.209  0.7273  0.7517 -0.1681
   17MOL    C68 2020   0.160   3.536   0.302  0.3439  0.4402  0.0345
   17MOL    C69 2021   0.284   3.618   0.266 -0.3157  0.7466  0.6234
   17MOL    F70 2022   0.269   3.729   0.333 -0.3011  0.0017  0.1343
   17MOL    H71 2023   0.074   3.604   0.306 -0.0811 -0.1387  0.8482
   17MOL    H72 2024   0.167   3.507   0.407 -0.9382  0.9777  0.2864
   17MOL    H73 2025   0.279   3.638   0.159 -0.2366  1.9505  0.8381
   17MOL    C74 2026   0.417   3.546   0.294 -0.1753  0.6352 -0.3912
   17MOL    C75 2027   0.539   3.629   0.247  0.1599 -0.4945 -0.4634
   17MOL    F76 2028   0.649   3.586   0.290 -0.4656  0.3030  0.1873
   17MOL    H77 2029   0.419   3.519   0.399 -0.6210  1.6375 -0.1172
   17MOL    H78 2030   0.421   3.445   0.255  0.3024  0.2240  0.7280
   17MOL    H79 2031   0.527   3.729   0.287  1.5713  0.0199 -1.3081
   17MOL    C80 2032   0.558   3.639   0.095 -0.5431  0.1127  1.6807
   17MOL    C81 2033   0.617   3.501   0.044  0.4580  0.5860  0.9272
   17MOL    F82 2034   0.524   3.402   0.063  0.3299  0.1910  0.2848
   17MOL    H83 2035   0.463   3.672   0.051 -0.2758  1.5525  2.1557
   17MOL    H84 2036   0.615   3.726   0.064 -1.5834  1.0765  2.4388
   17MOL    H85 2037   0.703   3.476   0.107  0.3771 -1.5469  0.2346
   17MOL    C86 2038   0.649   3.504   7.895  0.2387 -0.3055 -1.0010
   17MOL    C87 2039   0.735   3.379   7.850  0.0292 -0.4211  0.7591
   17MOL    F88 2040   0.745   3.359   7.717 -0.6678  0.0354  0.1415
   17MOL    H89 2041   0.554   3.497   7.842 -0.5722  0.3654  0.3282
   17MOL    H90 2042   0.691   3.601   7.865  1.5819 -0.4148  0.5024
   17MOL    H91 2043   0.681   3.288   7.876  1.7555 -1.6074  0.2577
   17MOL    C92 2044   0.876   3.374   7.899  0.0263 -0.1997 -0.1634
   17MOL    C93 2045   0.956   3.237   7.896  0.2671  0.1048 -0.6639
   17MOL    F94 2046   0.893   3.156   7.991  0.1296  0.4272  0.0545
   17MOL    H95 2047   0.936   3.450   7.849  0.9890  0.3453  1.8014
   17MOL    H96 2048   0.878   3.408   8.002 -3.1155 -1.4147  0.3590
   17MOL    H97 2049   1.050   3.248   7.949 -0.7412 -0.0721  1.2177
   17MOL    C98 2050   0.984   3.159   7.754 -0.6516 -0.5032 -1.0662
   17MOL    C99 2051   1.037   3.258   7.645 -0.1021  0.4208 -0.0326
   17MOL   F100 2052   1.170   3.278   7.652  0.4759 -0.3517 -0.2286
   17MOL   H101 2053   1.057   3.085   7.785  3.5530  4.1063  0.7163
   17MOL   H102 2054   0.889   3.113   7.727 -0.7299  0.1538 -1.9218
   17MOL   H103 2055   0.983   3.352   7.650  0.4022  0.7794 -1.2536
   17MOL   C104 2056   1.013   3.190   7.505 -0.0156  0.4227 -0.9657
   17MOL   C105 2057   1.084   3.266   7.390  0.3456 -0.2015 -0.4601
   17MOL   F106 2058   1.067   3.203   7.276  0.2864  0.2938 -0.6649
   17MOL   H107 2059   1.066   3.095   7.502  0.3446  0.4805  1.8383
   17MOL   H108 2060   0.907   3.176   7.484  0.0641  2.8319 -3.2016
   17MOL   H109 2061   1.188   3.264   7.424  0.2194 -1.5274 -0.1346
   17MOL   C110 2062   1.021   3.407   7.368 -0.5504  0.0183 -0.0523
   17MOL   C111 2063   0.885   3.418   7.299 -0.3447 -0.1138 -0.0264
   17MOL   F112 2064   0.792   3.391   7.392 -0.0085 -0.5511  0.4909
   17MOL   H113 2065   1.015   3.463   7.461  0.5659  1.1383 -0.6480
   17MOL   H114 2066   1.090   3.465   7.306 -0.2192  1.1297  1.3429
   17MOL   H115 2067   0.866   3.341   7.224 -3.2030  0.6605 -0.1683
   17MOL   C116 2068   0.848   3.544   7.223 -0.2058 -0.2456  0.0578
   17MOL   C117 2069   0.699   3.555   7.186  0.2657  0.1987  0.2378
   17MOL   F118 2070   0.678   3.683   7.155 -0.0326 -0.0592  0.0942
   17MOL   H119 2071   0.887   3.630   7.278  0.0907  1.5195 -2.8020
   17MOL   H120 2072   0.915   3.545   7.137 -1.5276 -2.2614 -1.0261
   17MOL   H121 2073   0.640   3.533   7.275  0.6787 -1.5833  0.0966
   17MOL   H122 2074   0.671   3.493   7.101  1.4881  1.5838 -1.2153
   18MOL     C1 2075   5.235   4.106   5.046  1.0264  0.3620  0.2512
   18MOL     C2 2076   5.351   4.017   5.034  0.4407  0.2618 -0.0947
   18MOL     F3 2077   5.453   4.074   4.976  0.7037 -0.0649  0.7632
   18MOL     H4 2078   5.249   4.197   5.104  0.1511  0.2567  0.6334
   18MOL     H5 2079   5.141   4.050   5.049  0.3806  1.4531  0.6630
   18MOL     H6 2080   5.328   3.929   4.975  1.9832  0.1676 -0.5712
   18MOL     H7 2081   5.227   4.151   4.947  0.7541 -0.6126 -0.1736
   18MOL     C8 2082   5.400   3.967   5.174  0.0444 -0.0330  0.6491
   18MOL     C9 2083   5.317   3.851   5.229 -0.1698  0.1978  0.6012
   18MOL    F10 2084   5.303   3.763   5.135 -0.1513 -0.0693 -0.0640
   18MOL    H11 2085   5.504   3.940   5.155  0.0781  1.3855 -1.3687
   18MOL    H12 2086   5.415   4.046   5.248  1.9096 -0.3692  0.6598
   18MOL    H13 2087   5.212   3.873   5.247  0.1346  0.1271  2.5291
   18MOL    C14 2088   5.383   3.782   5.347  0.4155 -0.3222 -0.2680
   18MOL    C15 2089   5.377   3.862   5.472  0.3876  0.0583 -0.1355
   18MOL    F16 2090   5.248   3.907   5.494 -0.4521  0.2234 -0.2501
   18MOL    H17 2091   5.326   3.690   5.359 -0.6167  0.3719  0.2326
   18MOL    H18 2092   5.480   3.739   5.319  0.9774  1.3499 -0.9224
   18MOL    H19 2093   5.445   3.947   5.458  2.3412 -1.3066  0.9051
   18MOL    C20 2094   5.412   3.781   5.588 -0.5839 -0.2692 -0.4539
   18MOL    C21 2095   5.463   3.850   5.715  0.5205  0.3806 -0.2928
   18MOL    F22 2096   5.580   3.904   5.678  0.9724 -0.6180  0.1554
   18MOL    H23 2097   5.319   3.728   5.608 -1.3951  1.4115  0.3233
   18MOL    H24 2098   5.497   3.716   5.569 -0.5804 -0.0506 -1.2375
   18MOL    H25 2099   5.481   3.775   5.792 -0.6647  0.5683  0.1750
   18MOL    C26 2100   5.388   3.966   5.779  0.0579  0.0178 -0.6359
   18MOL    C27 2101   5.271   3.924   5.865 -0.0847  0.2928  0.2589
   18MOL    F28 2102   5.302   3.902   5.991  0.0967 -0.1097  0.4346
   18MOL    H29 2103   5.457   4.033   5.831  1.6477  0.1579 -2.8636
   18MOL    H30 2104   5.356   4.033   5.699  0.7695 -1.0792 -1.8505
   18MOL    H31 2105   5.225   3.834   5.826 -0.5486 -0.7349  3.0548
   18MOL    C32 2106   5.161   4.032   5.859 -0.7048  0.1472 -1.1110
   18MOL    C33 2107   5.036   3.986   5.936 -0.3163  0.3860 -0.0252
   18MOL    F34 2108   4.956   4.089   5.927  0.0420  0.2324  0.1275
   18MOL    H35 2109   5.190   4.133   5.886  1.3690  0.2066 -3.4018
   18MOL    H36 2110   5.136   4.043   5.753 -2.5819  1.2509 -0.5781
   18MOL    H37 2111   5.055   3.972   6.043  0.3681  4.0292  0.3670
   18MOL    C38 2112   4.966   3.860   5.886  0.8797  0.3710  0.5102
   18MOL    C39 2113   4.917   3.856   5.736  0.1963  0.8569 -0.0996
   18MOL    F40 2114   5.032   3.845   5.676 -0.5021  0.2951  0.0779
   18MOL    H41 2115   5.018   3.770   5.917  0.6123 -0.0162 -0.1606
   18MOL    H42 2116   4.876   3.844   5.946 -1.1162 -1.7025 -2.9088
   18MOL    H43 2117   4.863   3.947   5.709 -0.7852  0.1052 -0.7085
   18MOL    C44 2118   4.825   3.733   5.700  0.2772 -0.0706 -0.1450
   18MOL    C45 2119   4.761   3.740   5.563 -0.4987 -0.3299  0.1670
   18MOL    F46 2120   4.695   3.856   5.562  0.1297 -0.0942 -0.0925
   18MOL    H47 2121   4.894   3.648   5.702 -0.2592 -0.5298 -1.2514
   18MOL    H48 2122   4.750   3.720   5.779  0.5337  1.3669  0.3560
   18MOL    H49 2123   4.688   3.663   5.536 -0.5420 -0.7615  1.4807
   18MOL    C50 2124   4.859   3.750   5.445  0.6451  0.1739  0.4482
   18MOL    C51 2125   4.948   3.619   5.425  0.5073  0.1223 -0.3529
   18MOL    F52 2126   4.879   3.513   5.456  0.3128 -0.5718  0.1247
   18MOL    H53 2127   4.801   3.756   5.353 -0.8563 -0.2397  1.3583
   18MOL    H54 2128   4.926   3.836   5.456 -1.1937  1.7253 -0.1276
   18MOL    H55 2129   5.023   3.636   5.503  0.6249 -1.9955  0.0145
   18MOL    C56 2130   5.004   3.595   5.283 -0.0033 -0.1186  0.2074
   18MOL    C57 2131   5.104   3.475   5.271 -0.3097 -0.3876  0.2730
   18MOL    F58 2132   5.199   3.486   5.364  0.1366  0.2444  0.3889
   18MOL    H59 2133   4.927   3.576   5.209  1.0250  0.6657 -1.0828
   18MOL    H60 2134   5.059   3.679   5.241  1.9945 -0.8670  1.2704
   18MOL    H61 2135   5.152   3.472   5.173 -0.1997  0.9946  0.2704
   18MOL    C62 2136   5.033   3.339   5.287 -0.3923 -0.3701  0.8046
   18MOL    C63 2137   5.125   3.218   5.270 -1.0787  0.3479  0.3524
   18MOL    F64 2138   5.063   3.112   5.314  0.2945  0.3259  0.4322
   18MOL    H65 2139   4.991   3.334   5.388 -0.9387  2.9877  0.8180
   18MOL    H66 2140   4.948   3.320   5.222  0.6565 -0.5878 -0.5213
   18MOL    H67 2141   5.214   3.226   5.332 -0.3842 -2.6703 -0.1960
   18MOL    C68 2142   5.160   3.196   5.124  0.0540  0.2467  0.0608
   18MOL    C69 2143   5.275   3.091   5.112 -0.2031 -0.1834  0.1832
   18MOL    F70 2144   5.383   3.145   5.172 -0.2896 -0.1258 -0.3791
   18MOL    H71 2145   5.072   3.160   5.071  1.3851 -2.6753 -0.2771
   18MOL    H72 2146   5.188   3.286   5.070  0.2513  0.1234 -0.0442
   18MOL    H73 2147   5.308   3.086   5.008 -1.8518  1.8141 -0.4916
   18MOL    C74 2148   5.248   2.943   5.147 -1.5488  0.1605 -0.0397
   18MOL    C75 2149   5.344   2.841   5.088 -0.0939  0.9507 -0.6356
   18MOL    F76 2150   5.468   2.878   5.121  0.1035 -0.0071  0.1459
   18MOL    H77 2151   5.257   2.943   5.255  0.1288 -2.4589 -0.1326
   18MOL    H78 2152   5.143   2.916   5.141 -1.6827  0.3949  1.2154
   18MOL    H79 2153   5.345   2.831   4.980 -1.0320  0.1175 -0.5743
   18MOL    C80 2154   5.331   2.702   5.158 -0.1412  0.4169 -0.2239
   18MOL    C81 2155   5.196   2.637   5.111 -0.4067 -0.2953  0.2946
   18MOL    F82 2156   5.203   2.641   4.978 -0.5113  0.1316  0.0332
   18MOL    H83 2157   5.412   2.636   5.129 -0.4924 -0.1809  0.1362
   18MOL    H84 2158   5.333   2.713   5.267 -3.0236  0.9199 -0.1739
   18MOL    H85 2159   5.108   2.694   5.140 -0.4753 -0.3778  0.2452
   18MOL    C86 2160   5.165   2.509   5.186 -0.0615 -0.5147 -0.9210
   18MOL    C87 2161   5.173   2.524   5.340  0.0963  0.7433 -0.3279
   18MOL    F88 2162   5.087   2.617   5.379  0.2763  0.2370 -0.3285
   18MOL    H89 2163   5.071   2.478   5.139 -0.4328  0.0459 -0.5542
   18MOL    H90 2164   5.245   2.440   5.159 -0.2217 -1.2567  0.4568
   18MOL    H91 2165   5.274   2.548   5.373 -0.1260  0.9376  0.2246
   18MOL    C92 2166   5.141   2.390   5.399 -0.5285 -0.2870 -0.0329
   18MOL    C93 2167   5.266   2.300   5.417  0.7550  0.3123  0.0455
   18MOL    F94 2168   5.361   2.365   5.488 -0.2635 -0.1413 -0.1239
   18MOL    H95 2169   5.116   2.406   5.504  0.4228 -0.5276  0.2381
   18MOL    H96 2170   5.067   2.332   5.345 -1.1936 -0.2722  0.8626
   18MOL    H97 2171   5.308   2.284   5.318  0.9488  0.4400  0.1076
   18MOL    C98 2172   5.228   2.167   5.482 -0.2477 -0.3669  0.3182
   18MOL    C99 2173   5.350   2.077   5.509 -1.0719 -0.1141 -0.0855
   18MOL   F100 2174   5.415   2.116   5.611  0.0448  0.0833  0.1216
   18MOL   H101 2175   5.173   2.193   5.573  0.0153 -0.1956  0.4300
   18MOL   H102 2176   5.157   2.121   5.414 -0.8989  0.3600  0.4937
   18MOL   H103 2177   5.412   2.090   5.420  1.5319 -0.3037  1.6394
   18MOL   C104 2178   5.310   1.930   5.510 -0.3877  0.8206 -0.6284
   18MOL   C105 2179   5.232   1.880   5.633 -0.4280 -0.6902 -0.1121
   18MOL   F106 2180   5.176   1.762   5.609  0.3713  0.0895  0.3311
   18MOL   H107 2181   5.266   1.897   5.416 -1.0997 -2.1654  0.6861
   18MOL   H108 2182   5.406   1.878   5.504  0.3047  2.0858 -0.5496
   18MOL   H109 2183   5.150   1.948   5.654 -0.0607  0.2975 -1.7935
   18MOL   C110 2184   5.319   1.848   5.759  0.1560  0.3138  0.3618
   18MOL   C111 2185   5.252   1.792   5.885  0.0411 -0.5748 -0.1059
   18MOL   F112 2186   5.346   1.767   5.976 -0.1592  0.0114 -0.0726
   18MOL   H113 2187   5.391   1.774   5.725 -0.0713  0.7898 -1.1796
   18MOL   H114 2188   5.371   1.941   5.783  0.4954  0.2674 -0.1882
   18MOL   H115 2189   5.221   1.692   5.854  1.8246 -0.7187 -1.5621
   18MOL   C116 2190   5.148   1.873   5.948 -0.3869 -0.0040  0.2748
   18MOL   C117 2191   5.199   2.018   5.982  0.0504  0.4426 -0.3769
   18MOL   F118 2192   5.103   2.076   6.052  0.0160 -0.1154 -0.3437
   18MOL   H119 2193   5.056   1.890   5.893  0.5998  0.7127 -1.1744
   18MOL   H120 2194   5.128   1.831   6.047 -0.2104  2.2771  1.3272
   18MOL   H121 2195   5.232   2.082   5.901  0.8142  0.6781  0.1091
   18MOL   H122 2196   5.282   2.014   6.053  1.1041 -0.4851 -1.6298
   19MOL     C1 2197   5.576   5.793   7.743  0.1286 -0.5103 -0.3970
   19MOL     C2 2198   5.555   5.940   7.691 -0.1029 -0.1678 -0.4861
   19MOL     F3 2199   5.626   6.023   7.765  0.1714  0.4248 -0.1942
   19MOL     H4 2200   5.682   5.779   7.767  0.9221  1.1739 -2.6701
   19MOL     H5 2201   5.531   5.713   7.683  2.1151 -2.2326  0.3485
   19MOL     H6 2202   5.450   5.966   7.699  0.1726  0.8657 -0.2402
   19MOL     H7 2203   5.534   5.778   7.842 -0.7866  0.9175 -0.5637
   19MOL     C8 2204   5.595   5.950   7.535 -0.1466 -0.8080  0.2784
   19MOL     C9 2205   5.606   6.098   7.480  0.2971 -0.7172  0.0544
   19MOL    F10 2206   5.599   6.098   7.347 -0.6712  0.3330  0.5008
   19MOL    H11 2207   5.682   5.886   7.523 -1.1306 -2.2311  0.5836
   19MOL    H12 2208   5.509   5.900   7.490  0.7014 -3.9148  2.0005
   19MOL    H13 2209   5.695   6.153   7.509 -0.3961  0.8883 -0.8094
   19MOL    C14 2210   5.475   6.185   7.512  0.0935 -0.0607  0.5719
   19MOL    C15 2211   5.477   6.337   7.470 -0.2002  0.3484  0.5069
   19MOL    F16 2212   5.346   6.376   7.478  0.3312  0.0391  0.1871
   19MOL    H17 2213   5.391   6.146   7.455 -0.2458  0.3414  0.7964
   19MOL    H18 2214   5.436   6.169   7.612  2.5739 -0.4958  1.5060
   19MOL    H19 2215   5.500   6.347   7.364  0.6319 -0.8868  0.5563
   19MOL    C20 2216   5.555   6.428   7.563 -0.0081  0.0439 -0.3424
   19MOL    C21 2217   5.622   6.550   7.500 -0.8741  0.3172 -0.1470
   19MOL    F22 2218   5.680   6.509   7.388 -0.6851  0.5407 -0.6022
   19MOL    H23 2219   5.498   6.463   7.649  2.0641  2.2275  0.2133
   19MOL    H24 2220   5.634   6.374   7.613  0.9571  0.1825 -1.6838
   19MOL    H25 2221   5.701   6.584   7.568 -0.4886  0.5872 -0.7285
   19MOL    C26 2222   5.524   6.660   7.472 -0.1559 -0.0372 -0.0871
   19MOL    C27 2223   5.595   6.784   7.420 -0.4783 -0.1942 -0.2427
   19MOL    F28 2224   5.667   6.753   7.313 -0.2529  0.4408 -0.0484
   19MOL    H29 2225   5.462   6.618   7.392 -1.0161  0.3319  0.3768
   19MOL    H30 2226   5.472   6.677   7.566 -2.5719  0.4671 -1.4627
   19MOL    H31 2227   5.661   6.810   7.504 -0.9925  0.7783 -0.1297
   19MOL    C32 2228   5.501   6.907   7.378 -0.1279  0.1035  0.4841
   19MOL    C33 2229   5.569   7.046   7.368 -0.3585  0.3013  0.4414
   19MOL    F34 2230   5.625   7.071   7.485  0.0542 -0.0336 -0.3462
   19MOL    H35 2231   5.452   6.886   7.283 -2.1333  1.7485  1.1229
   19MOL    H36 2232   5.415   6.911   7.445  1.4411  1.4678  2.4615
   19MOL    H37 2233   5.499   7.130   7.366  1.2334  1.6763  1.4219
   19MOL    C38 2234   5.668   7.066   7.250 -0.2470 -0.4997 -0.3454
   19MOL    C39 2235   5.618   7.094   7.105 -0.7257  0.7750  0.0795
   19MOL    F40 2236   5.567   7.213   7.108 -0.1545 -0.4549  0.4599
   19MOL    H41 2237   5.732   7.151   7.275 -2.7959  0.7183  2.3112
   19MOL    H42 2238   5.734   6.981   7.234  0.3079 -0.4200  1.4567
   19MOL    H43 2239   5.546   7.021   7.068  0.1506 -0.6271  1.0720
   19MOL    C44 2240   5.725   7.098   6.987 -0.1611  0.0101  0.0760
   19MOL    C45 2241   5.687   7.145   6.845  0.1375 -0.1256  0.0271
   19MOL    F46 2242   5.655   7.273   6.854 -0.1060  0.0914 -0.3427
   19MOL    H47 2243   5.807   7.155   7.032 -0.3033 -1.9523  2.9524
   19MOL    H48 2244   5.778   7.005   6.972  0.0347  0.4537 -2.0876
   19MOL    H49 2245   5.590   7.107   6.814  0.5048 -0.4383 -0.7534
   19MOL    C50 2246   5.792   7.120   6.729  0.5530 -0.3676  0.7387
   19MOL    C51 2247   5.724   7.116   6.593  0.2903  0.0564 -0.1337
   19MOL    F52 2248   5.647   7.005   6.584 -0.4884 -0.2137 -0.1326
   19MOL    H53 2249   5.871   7.195   6.721 -1.0265  1.3758  1.0086
   19MOL    H54 2250   5.848   7.031   6.756  1.4804 -0.2335 -0.6640
   19MOL    H55 2251   5.802   7.092   6.522  0.3565  0.9696 -0.3823
   19MOL    C56 2252   5.638   7.240   6.547  0.2477  0.2624 -0.2428
   19MOL    C57 2253   5.562   7.225   6.414  0.0720  0.5677  0.7347
   19MOL    F58 2254   5.652   7.201   6.314  0.1591 -0.1905 -0.1408
   19MOL    H59 2255   5.566   7.266   6.625 -0.2683 -1.1308 -0.2401
   19MOL    H60 2256   5.704   7.326   6.537  0.2973  0.1981 -0.4722
   19MOL    H61 2257   5.525   7.324   6.386 -2.1013 -0.9254 -1.9305
   19MOL    C62 2258   5.441   7.122   6.406 -0.0879 -0.4818  0.2740
   19MOL    C63 2259   5.336   7.136   6.520  0.3792 -0.0074 -1.0631
   19MOL    F64 2260   5.307   7.265   6.536 -0.1351 -0.1828  0.2912
   19MOL    H65 2261   5.387   7.156   6.318 -0.1710 -0.6130  0.2744
   19MOL    H66 2262   5.487   7.024   6.397  1.5787  0.1740  1.3069
   19MOL    H67 2263   5.380   7.109   6.615 -0.5863 -1.4522 -1.0080
   19MOL    C68 2264   5.216   7.051   6.499 -0.2147 -0.1598 -0.3211
   19MOL    C69 2265   5.234   6.890   6.518  0.1564  0.1348 -0.7296
   19MOL    F70 2266   5.293   6.871   6.639  0.4820 -0.4380 -0.2060
   19MOL    H71 2267   5.135   7.083   6.565  0.4635 -0.0512  0.4727
   19MOL    H72 2268   5.170   7.081   6.405 -0.6406  0.5076  0.0986
   19MOL    H73 2269   5.316   6.843   6.463 -0.1130 -1.4802  0.2107
   19MOL    C74 2270   5.100   6.812   6.512 -0.2839  0.3715  0.5513
   19MOL    C75 2271   5.102   6.660   6.519  0.5736  0.4340 -0.0671
   19MOL    F76 2272   4.984   6.609   6.538  0.3380 -0.0479 -0.6886
   19MOL    H77 2273   5.051   6.859   6.598 -0.8970  1.0020 -0.1287
   19MOL    H78 2274   5.041   6.847   6.427 -0.6901 -1.4028  0.0856
   19MOL    H79 2275   5.166   6.622   6.599  0.0320 -0.7053 -0.1644
   19MOL    C80 2276   5.171   6.600   6.398 -0.1641 -0.4806 -0.1783
   19MOL    C81 2277   5.178   6.445   6.405  0.4534  0.1164  0.6461
   19MOL    F82 2278   5.237   6.400   6.294 -0.1263 -0.7382 -0.0220
   19MOL    H83 2279   5.105   6.616   6.312  0.6121 -1.6243 -1.0009
   19MOL    H84 2280   5.266   6.646   6.371 -0.2206 -1.0115 -1.3144
   19MOL    H85 2281   5.079   6.401   6.394 -0.9349  2.5510  2.7110
   19MOL    C86 2282   5.256   6.388   6.526 -0.3802  0.2780  0.8987
   19MOL    C87 2283   5.403   6.433   6.521 -1.0992  0.4267 -0.5551
   19MOL    F88 2284   5.422   6.552   6.580 -0.4964  0.4710  0.0410
   19MOL    H89 2285   5.206   6.415   6.619 -1.0277 -0.3684  0.7478
   19MOL    H90 2286   5.264   6.279   6.528  2.5411  0.3628 -2.2259
   19MOL    H91 2287   5.427   6.445   6.415 -2.0858  1.2482 -0.6949
   19MOL    C92 2288   5.488   6.327   6.602 -0.3612 -0.0616  0.1821
   19MOL    C93 2289   5.649   6.332   6.598 -0.3706  0.7112  0.1319
   19MOL    F94 2290   5.704   6.221   6.651  0.0177 -0.1532  0.0809
   19MOL    H95 2291   5.457   6.341   6.706 -1.7649  4.1304 -0.6926
   19MOL    H96 2292   5.457   6.228   6.570  0.4346 -1.2529  2.9782
   19MOL    H97 2293   5.681   6.425   6.644  0.9118  0.7288 -0.7750
   19MOL    C98 2294   5.693   6.334   6.453  0.0650  0.4795  0.1769
   19MOL    C99 2295   5.663   6.213   6.365 -0.7226  0.4594 -0.2278
   19MOL   F100 2296   5.535   6.232   6.317 -0.0944  0.6993  0.2381
   19MOL   H101 2297   5.643   6.416   6.403 -0.6854  0.8307  1.4902
   19MOL   H102 2298   5.797   6.365   6.445 -0.5066  2.4160  0.0727
   19MOL   H103 2299   5.673   6.118   6.418 -1.6881 -1.2865 -3.0617
   19MOL   C104 2300   5.762   6.206   6.245 -0.9807  0.3113 -0.7728
   19MOL   C105 2301   5.899   6.154   6.284  0.2152 -0.2375 -0.2157
   19MOL   F106 2302   5.890   6.025   6.336  0.6780  0.5733  0.3973
   19MOL   H107 2303   5.731   6.126   6.178 -0.6760  1.3184 -2.1520
   19MOL   H108 2304   5.765   6.295   6.182 -1.1153  0.4057 -0.6469
   19MOL   H109 2305   5.945   6.204   6.369 -0.3775  0.4912 -0.3202
   19MOL   C110 2306   5.998   6.135   6.159  0.6408  0.4241 -0.7362
   19MOL   C111 2307   6.055   6.266   6.125 -0.5318  0.3037 -0.3948
   19MOL   F112 2308   6.122   6.311   6.229  0.1213  0.4397 -0.1382
   19MOL   H113 2309   6.084   6.072   6.181  0.0785  0.0442  0.4697
   19MOL   H114 2310   5.943   6.092   6.076 -2.0168  2.2244  0.0196
   19MOL   H115 2311   5.975   6.337   6.109 -1.2545  0.1175  2.2781
   19MOL   C116 2312   6.160   6.263   6.007  0.7658  0.1065  0.1079
   19MOL   C117 2313   6.188   6.418   5.962  0.4515  0.1976 -0.0714
   19MOL   F118 2314   6.071   6.472   5.928 -0.2257  0.7055  0.5203
   19MOL   H119 2315   6.254   6.216   6.034  0.6061  0.8263  2.0383
   19MOL   H120 2316   6.115   6.219   5.918  0.0001  0.6083  0.2323
   19MOL   H121 2317   6.261   6.434   5.883 -2.1264 -0.3000 -2.6612
   19MOL   H122 2318   6.225   6.479   6.045  0.4662 -0.9108  0.7514
   20MOL     C1 2319   1.961   1.249   1.752 -1.0459 -0.0442  0.5273
   20MOL     C2 2320   1.945   1.374   1.835 -0.5801  0.2405  1.1319
   20MOL     F3 2321   2.067   1.426   1.865  0.3399  0.2263  0.5366
   20MOL     H4 2322   2.020   1.284   1.668  0.3002 -0.8792  1.0951
   20MOL     H5 2323   1.867   1.209   1.714 -1.0087  1.3322 -1.0503
   20MOL     H6 2324   1.891   1.354   1.927  0.2700 -1.0516  1.3566
   20MOL     H7 2325   2.034   1.181   1.797 -0.2489  0.7080  0.3979
   20MOL     C8 2326   1.869   1.479   1.748  0.2251 -1.0342 -0.0441
   20MOL     C9 2327   1.718   1.456   1.702  0.7110 -0.3290  0.1936
   20MOL    F10 2328   1.645   1.431   1.816  0.0363  0.0261 -0.0314
   20MOL    H11 2329   1.868   1.566   1.814  1.1315 -0.1638 -1.1562
   20MOL    H12 2330   1.924   1.506   1.658  1.8882  0.1984  1.3072
   20MOL    H13 2331   1.710   1.367   1.640 -1.1633 -0.1453  0.1531
   20MOL    C14 2332   1.664   1.578   1.630  0.2590 -0.8426  0.4427
   20MOL    C15 2333   1.536   1.545   1.554 -0.0178 -1.0100 -0.1362
   20MOL    F16 2334   1.428   1.540   1.640  0.1694  0.2542 -0.0118
   20MOL    H17 2335   1.642   1.659   1.700  1.2720 -0.4823  0.3528
   20MOL    H18 2336   1.734   1.611   1.554  0.0839 -0.1549  0.5749
   20MOL    H19 2337   1.545   1.453   1.496  1.1894  0.3948 -2.1920
   20MOL    C20 2338   1.492   1.664   1.446  0.3897  0.4686  0.5883
   20MOL    C21 2339   1.356   1.636   1.372  0.2830 -0.3670  0.8615
   20MOL    F22 2340   1.348   1.732   1.281 -0.0604 -0.5570 -0.2325
   20MOL    H23 2341   1.499   1.761   1.495 -1.5484 -0.1177  2.1233
   20MOL    H24 2342   1.565   1.654   1.366 -1.3196 -1.5093 -0.7556
   20MOL    H25 2343   1.273   1.654   1.441  0.6255  0.4452  1.0566
   20MOL    C26 2344   1.336   1.505   1.289 -0.3625 -0.2052 -0.4885
   20MOL    C27 2345   1.187   1.484   1.259 -0.4283 -0.1848 -0.2238
   20MOL    F28 2346   1.153   1.588   1.183  0.0670 -0.1765  0.0098
   20MOL    H29 2347   1.394   1.510   1.197 -0.6346 -0.0399 -0.6518
   20MOL    H30 2348   1.367   1.421   1.352  1.7524  0.2350 -0.9172
   20MOL    H31 2349   1.140   1.503   1.356  0.4240 -0.4026  0.2301
   20MOL    C32 2350   1.151   1.349   1.193 -0.0382  0.5305  0.5990
   20MOL    C33 2351   1.024   1.346   1.115 -0.1052  0.4504  0.6498
   20MOL    F34 2352   0.997   1.233   1.050  0.0693 -0.5611  0.4041
   20MOL    H35 2353   1.237   1.324   1.131 -0.4917 -0.5480  0.3956
   20MOL    H36 2354   1.151   1.280   1.277  2.3578 -2.4661 -1.7274
   20MOL    H37 2355   1.028   1.424   1.039 -0.3919 -1.9776 -1.9323
   20MOL    C38 2356   0.902   1.365   1.208  0.1285  0.1197 -0.5242
   20MOL    C39 2357   0.782   1.429   1.137  0.4885 -0.4328  0.5954
   20MOL    F40 2358   0.671   1.390   1.210  0.2369 -0.1948 -0.1102
   20MOL    H41 2359   0.875   1.272   1.258  0.1701  0.8541  0.8837
   20MOL    H42 2360   0.919   1.425   1.297  1.8533 -1.1869  0.0528
   20MOL    H43 2361   0.772   1.378   1.041  0.7462 -0.8985  0.8149
   20MOL    C44 2362   0.780   1.583   1.124 -0.9845 -0.7731  0.1675
   20MOL    C45 2363   0.668   1.625   1.029 -0.0779  0.0099 -0.0268
   20MOL    F46 2364   0.565   1.607   1.105  0.1256 -0.1371  0.0912
   20MOL    H47 2365   0.781   1.642   1.216 -1.7186 -0.0993 -0.2493
   20MOL    H48 2366   0.866   1.620   1.068 -2.9188  2.6644 -0.6587
   20MOL    H49 2367   0.663   1.558   0.944  2.3863  0.0967 -0.2947
   20MOL    C50 2368   0.670   1.771   0.998  0.0797  0.1786  0.0417
   20MOL    C51 2369   0.568   1.800   0.883  0.1804 -0.2161 -0.3256
   20MOL    F52 2370   0.441   1.773   0.932  0.2706 -0.1970  0.0939
   20MOL    H53 2371   0.631   1.822   1.086 -0.8614  1.6632 -1.2112
   20MOL    H54 2372   0.772   1.810   0.993  0.3030 -0.3294  0.5498
   20MOL    H55 2373   0.583   1.744   0.790  4.0917 -2.9319  1.7986
   20MOL    C56 2374   0.564   1.947   0.849 -0.3252  0.3574 -0.4168
   20MOL    C57 2375   0.469   1.988   0.729  0.6557  0.4583 -0.5252
   20MOL    F58 2376   0.339   1.960   0.754  0.2262  0.3700 -0.3576
   20MOL    H59 2377   0.522   2.011   0.927  0.2635 -0.7761  0.8259
   20MOL    H60 2378   0.664   1.987   0.833 -1.0021  2.2568 -0.1298
   20MOL    H61 2379   0.502   1.933   0.641 -0.1244 -1.1122  0.1491
   20MOL    C62 2380   0.474   2.140   0.688 -0.6282 -0.0644 -0.4345
   20MOL    C63 2381   0.384   2.175   0.569 -0.2949  0.0955 -0.0181
   20MOL    F64 2382   0.385   2.305   0.535  0.3207 -0.5763  0.1881
   20MOL    H65 2383   0.450   2.199   0.776  0.3614 -0.8883  0.4084
   20MOL    H66 2384   0.577   2.168   0.667 -0.9100  2.0692  0.8982
   20MOL    H67 2385   0.285   2.141   0.598  0.6160 -1.1768  1.7252
   20MOL    C68 2386   0.424   2.103   0.439 -0.6708 -0.0151  0.8190
   20MOL    C69 2387   0.563   2.111   0.385  0.1113  0.3249  0.1125
   20MOL    F70 2388   0.658   2.063   0.467  0.1995  0.2776 -0.5090
   20MOL    H71 2389   0.408   1.997   0.459 -0.6206  0.0428  1.1769
   20MOL    H72 2390   0.356   2.136   0.360  0.0959  0.4862  0.3643
   20MOL    H73 2391   0.579   2.217   0.363 -0.1653  1.1172  3.4913
   20MOL    C74 2392   0.583   2.042   0.246  0.3546  0.1973  0.0339
   20MOL    C75 2393   0.569   1.891   0.248  0.0061  0.1157  0.2601
   20MOL    F76 2394   0.445   1.856   0.240  0.4482  0.0866 -0.2503
   20MOL    H77 2395   0.523   2.087   0.167 -2.8808 -0.4412  2.0321
   20MOL    H78 2396   0.682   2.072   0.212  0.8866  0.6824  1.9519
   20MOL    H79 2397   0.602   1.860   0.347 -0.8411 -1.7491 -0.0184
   20MOL    C80 2398   0.652   1.832   0.136 -0.6133  0.3502  0.9072
   20MOL    C81 2399   0.627   1.676   0.124 -0.1711  0.0641  0.0310
   20MOL    F82 2400   0.665   1.639   0.001 -0.1007  0.1657 -0.1180
   20MOL    H83 2401   0.617   1.882   0.046 -0.7376  0.7576  1.1786
   20MOL    H84 2402   0.756   1.854   0.161  0.0825 -2.0401  0.2321
   20MOL    H85 2403   0.520   1.664   0.110 -0.2477 -0.4053  0.9510
   20MOL    C86 2404   0.692   1.583   0.224  0.3241 -0.8141 -0.5912
   20MOL    C87 2405   0.845   1.586   0.224  0.7786 -1.1989  0.1354
   20MOL    F88 2406   0.867   1.702   0.292  0.6701 -0.0502 -0.1100
   20MOL    H89 2407   0.654   1.613   0.321  0.0696 -1.4562 -0.4942
   20MOL    H90 2408   0.653   1.485   0.199 -0.9710 -0.0678 -1.5858
   20MOL    H91 2409   0.894   1.585   0.127  0.5921 -1.5073  0.0443
   20MOL    C92 2410   0.906   1.474   0.301  0.1224  0.2155 -0.0779
   20MOL    C93 2411   0.898   1.341   0.223 -0.5492 -0.6152  0.1871
   20MOL    F94 2412   0.970   1.344   0.105  0.0791  0.4211  0.6483
   20MOL    H95 2413   1.009   1.500   0.323  1.0779 -1.1866 -2.6761
   20MOL    H96 2414   0.856   1.469   0.398  1.3292 -1.7348  0.4804
   20MOL    H97 2415   0.792   1.326   0.201 -0.8488  0.7800  0.5741
   20MOL    C98 2416   0.946   1.220   0.303 -0.5822 -0.4342 -0.1010
   20MOL    C99 2417   0.852   1.190   0.424  0.2452 -0.1272  0.5249
   20MOL   F100 2418   0.731   1.173   0.373 -0.1362 -0.2136  0.2799
   20MOL   H101 2419   0.951   1.137   0.233 -1.1436 -0.5043 -0.0632
   20MOL   H102 2420   1.046   1.250   0.335 -1.1214 -0.8166  2.0226
   20MOL   H103 2421   0.830   1.273   0.491  1.5789  0.0502  0.7561
   20MOL   C104 2422   0.879   1.065   0.516 -0.0598  0.3916 -0.2667
   20MOL   C105 2423   0.992   1.090   0.618  0.3380 -0.1068  0.1204
   20MOL   F106 2424   0.962   1.203   0.691  0.0536  0.2744 -0.3784
   20MOL   H107 2425   0.785   1.045   0.566 -0.6465 -0.4513 -1.6837
   20MOL   H108 2426   0.901   0.988   0.443  1.3934 -1.6441  2.2304
   20MOL   H109 2427   1.082   1.119   0.563  0.7789 -0.7676  0.4856
   20MOL   C110 2428   1.019   0.970   0.709  0.2583  0.3637  0.2142
   20MOL   C111 2429   1.118   1.003   0.823  0.8505 -0.5994 -0.3755
   20MOL   F112 2430   1.147   0.895   0.890 -0.4819 -0.1566 -0.0437
   20MOL   H113 2431   0.930   0.932   0.760 -0.3630 -0.6373 -1.5878
   20MOL   H114 2432   1.054   0.894   0.639  0.7366  1.1113 -0.3639
   20MOL   H115 2433   1.069   1.064   0.898  2.4698  1.5513 -1.0050
   20MOL   C116 2434   1.250   1.071   0.780 -0.4404  0.2412  0.2826
   20MOL   C117 2435   1.346   1.089   0.897  0.1270 -0.0806 -0.0831
   20MOL   F118 2436   1.468   1.131   0.859  0.2000 -0.1335 -0.0661
   20MOL   H119 2437   1.300   1.014   0.702  1.0180  1.8459 -0.0021
   20MOL   H120 2438   1.240   1.169   0.733  1.5707  0.4989  0.3592
   20MOL   H121 2439   1.364   0.990   0.937 -1.0650 -0.1418  0.3129
   20MOL   H122 2440   1.325   1.167   0.971  0.9212  1.4356 -1.4095
   21MOL     C1 2441   0.319   0.027   1.694  0.1883  0.8167 -0.0575
   21MOL     C2 2442   0.375   7.960   1.819 -0.0549  0.0567 -0.0307
   21MOL     F3 2443   0.476   0.026   1.863  0.1071  0.2817 -0.4947
   21MOL     H4 2444   0.388   0.013   1.611 -1.1867  1.4061 -1.2950
   21MOL     H5 2445   0.314   0.135   1.712  0.4151  1.1177 -1.7303
   21MOL     H6 2446   0.396   7.856   1.792 -1.9084 -0.4044  0.2381
   21MOL     H7 2447   0.230   7.989   1.647  0.7397  0.8846 -1.1669
   21MOL     C8 2448   0.287   7.944   1.937  0.5046  0.2133 -0.0053
   21MOL     C9 2449   0.155   7.876   1.904 -0.7055 -0.4231  0.7618
   21MOL    F10 2450   0.178   7.749   1.853  0.0769  0.0143  0.2585
   21MOL    H11 2451   0.329   7.883   2.017 -0.5406  1.0755  1.2246
   21MOL    H12 2452   0.273   0.039   1.982 -1.1476  0.0847 -0.2073
   21MOL    H13 2453   0.094   7.936   1.836  1.7801  0.1705 -1.0162
   21MOL    C14 2454   0.079   7.856   2.036  0.1327  0.2802 -0.3166
   21MOL    C15 2455   7.938   7.791   2.023 -0.1769 -0.7004  0.3136
   21MOL    F16 2456   7.894   7.753   2.140 -0.1209  0.2139 -0.0089
   21MOL    H17 2457   0.138   7.789   2.099  1.7033  0.2272 -1.8148
   21MOL    H18 2458   0.078   7.955   2.082 -0.6712  0.7696 -1.3888
   21MOL    H19 2459   7.951   7.697   1.968 -0.3342 -1.6625  1.8829
   21MOL    C20 2460   7.833   7.879   1.957 -0.0855 -0.4566  0.2249
   21MOL    C21 2461   7.692   7.806   1.951 -0.4911 -0.5966  0.0634
   21MOL    F22 2462   7.618   7.913   1.932 -0.5998 -0.3922  0.3358
   21MOL    H23 2463   7.819   7.969   2.016  2.3736  0.3956 -0.4407
   21MOL    H24 2464   7.865   7.910   1.858 -0.0252  0.0239  0.3975
   21MOL    H25 2465   7.671   7.765   2.050  0.2178 -1.0554  0.0261
   21MOL    C26 2466   7.661   7.696   1.848  0.8061 -0.0339 -0.5029
   21MOL    C27 2467   7.507   7.667   1.811 -0.0048  1.2633  0.3013
   21MOL    F28 2468   7.448   7.772   1.755  0.2157  0.2377 -0.2501
   21MOL    H29 2469   7.721   7.727   1.763  0.1987  3.3339  0.2244
   21MOL    H30 2470   7.701   7.600   1.880 -1.5625 -0.4314  1.4639
   21MOL    H31 2471   7.468   7.661   1.913  0.1882 -0.4538  0.2967
   21MOL    C32 2472   7.481   7.534   1.727 -0.6022 -0.1991 -0.2381
   21MOL    C33 2473   7.505   7.550   1.577 -0.0815 -0.4333 -0.1685
   21MOL    F34 2474   7.641   7.546   1.565 -0.2735 -0.1023  0.2852
   21MOL    H35 2475   7.535   7.448   1.766  1.9283  1.4518  0.0416
   21MOL    H36 2476   7.372   7.523   1.732 -0.5042 -0.6736  1.1255
   21MOL    H37 2477   7.465   7.641   1.534 -0.6026 -0.7513 -0.3649
   21MOL    C38 2478   7.432   7.433   1.502 -0.7853 -0.5076 -0.6624
   21MOL    C39 2479   7.476   7.413   1.357 -0.1871 -0.8242 -0.3380
   21MOL    F40 2480   7.606   7.396   1.349 -0.7458 -0.6489  0.5647
   21MOL    H41 2481   7.453   7.342   1.557 -1.3654  0.7035  1.6073
   21MOL    H42 2482   7.324   7.449   1.508 -0.5232  0.8865  0.7256
   21MOL    H43 2483   7.448   7.503   1.302  0.3094  1.2888  2.7559
   21MOL    C44 2484   7.398   7.294   1.292  0.2794 -0.6954  0.6182
   21MOL    C45 2485   7.426   7.282   1.139  0.1336 -0.2428  0.1472
   21MOL    F46 2486   7.375   7.158   1.110  0.0727 -0.3189  0.1644
   21MOL    H47 2487   7.447   7.207   1.337 -1.4447 -1.0703  1.7998
   21MOL    H48 2488   7.290   7.293   1.308 -0.3239  1.0833 -3.0343
   21MOL    H49 2489   7.532   7.281   1.115  0.1957  0.6855  0.3527
   21MOL    C50 2490   7.347   7.384   1.046 -0.5975 -0.0004  0.0964
   21MOL    C51 2491   7.367   7.355   0.897  0.0733 -0.1703  0.1959
   21MOL    F52 2492   7.288   7.448   0.838  0.2588  0.0575 -0.4161
   21MOL    H53 2493   7.242   7.367   1.070 -0.6103 -1.8103 -1.1366
   21MOL    H54 2494   7.367   7.490   1.066 -0.5352  0.4831 -2.3712
   21MOL    H55 2495   7.328   7.256   0.869 -1.7067  0.7557 -0.7044
   21MOL    C56 2496   7.514   7.378   0.850 -0.0404  0.2209  0.9848
   21MOL    C57 2497   7.514   7.363   0.701  0.6450 -0.2069 -0.1511
   21MOL    F58 2498   7.639   7.399   0.671  0.2527  0.1151 -0.0622
   21MOL    H59 2499   7.548   7.474   0.888  0.0329 -0.0911  1.7220
   21MOL    H60 2500   7.576   7.299   0.893 -0.0688 -1.4598 -1.9500
   21MOL    H61 2501   7.452   7.438   0.652  0.7064  0.0606  0.1807
   21MOL    C62 2502   7.481   7.222   0.652 -0.3549  0.0780 -0.2682
   21MOL    C63 2503   7.535   7.182   0.514 -0.4254  0.0657 -0.1736
   21MOL    F64 2504   7.528   7.052   0.501  0.0440  0.2235 -0.4278
   21MOL    H65 2505   7.541   7.162   0.721 -1.1006 -0.9862 -0.5433
   21MOL    H66 2506   7.377   7.190   0.658 -0.1380 -1.1246 -2.3990
   21MOL    H67 2507   7.644   7.188   0.517 -0.3312 -1.1878 -0.7415
   21MOL    C68 2508   7.477   7.242   0.388  0.4415 -0.4217  0.4853
   21MOL    C69 2509   7.324   7.237   0.380 -0.3396 -0.0369 -0.5475
   21MOL    F70 2510   7.267   7.349   0.439 -0.5784  0.1979 -0.0792
   21MOL    H71 2511   7.500   7.348   0.390 -0.3159 -0.2588  0.9202
   21MOL    H72 2512   7.533   7.210   0.300 -0.3383  2.1577 -0.9880
   21MOL    H73 2513   7.284   7.154   0.437  1.9775  0.6704  2.1973
   21MOL    C74 2514   7.262   7.210   0.239  0.0117 -0.3775 -0.1984
   21MOL    C75 2515   7.282   7.067   0.193  0.3519  0.1036  0.4998
   21MOL    F76 2516   7.230   6.980   0.281 -0.3268 -0.0378 -0.3004
   21MOL    H77 2517   7.157   7.241   0.241  0.7129  2.1535 -0.9923
   21MOL    H78 2518   7.310   7.267   0.160 -0.3084  1.0280  0.6007
   21MOL    H79 2519   7.390   7.053   0.190  0.2704 -0.3162 -0.5375
   21MOL    C80 2520   7.229   7.054   0.053  1.0214 -0.5178 -0.4892
   21MOL    C81 2521   7.071   7.038   0.044 -0.5062  0.2900 -0.6737
   21MOL    F82 2522   7.011   7.146   0.091  0.2718 -0.4279  0.2503
   21MOL    H83 2523   7.263   7.132   7.988  0.5166  0.8703  0.8462
   21MOL    H84 2524   7.268   6.957   0.020  0.2763 -0.6546 -0.9752
   21MOL    H85 2525   7.042   6.959   0.113 -1.7519  1.8351  0.6186
   21MOL    C86 2526   7.000   7.001   7.919 -0.3900 -0.6348  0.4770
   21MOL    C87 2527   7.082   6.924   7.821 -0.0780  0.8148 -0.8017
   21MOL    F88 2528   7.114   6.804   7.869  0.1589  0.1163  0.3309
   21MOL    H89 2529   6.913   6.940   7.945 -0.4453 -1.7939 -2.2572
   21MOL    H90 2530   6.965   7.093   7.873  0.6068 -0.1287  0.7344
   21MOL    H91 2531   7.176   6.979   7.813  0.5111 -0.2172 -0.9820
   21MOL    C92 2532   7.017   6.899   7.689 -1.2689  0.2083 -0.2872
   21MOL    C93 2533   6.990   7.027   7.606  0.1493  0.8246  0.0862
   21MOL    F94 2534   7.103   7.092   7.603  0.2567 -0.2557 -0.6657
   21MOL    H95 2535   7.093   6.831   7.649  0.7091  1.6765  0.8729
   21MOL    H96 2536   6.929   6.838   7.710 -0.4467 -1.2522 -1.0377
   21MOL    H97 2537   6.916   7.097   7.646 -0.0918  1.7302 -1.9055
   21MOL    C98 2538   6.949   6.985   7.467 -0.2685  0.3077 -0.2614
   21MOL    C99 2539   6.904   7.094   7.364 -0.1792 -0.6180 -0.0555
   21MOL   F100 2540   6.931   7.030   7.251 -0.1477 -0.4552  0.6541
   21MOL   H101 2541   7.029   6.925   7.424 -1.5869 -0.6087 -1.4710
   21MOL   H102 2542   6.864   6.918   7.480 -1.2058  1.3119 -1.1153
   21MOL   H103 2543   6.962   7.187   7.358 -1.3942 -0.0087 -3.3772
   21MOL   C104 2544   6.759   7.135   7.365 -0.1184  0.3748 -0.5440
   21MOL   C105 2545   6.703   7.191   7.228 -0.2522 -0.1766  0.0480
   21MOL   F106 2546   6.586   7.137   7.206 -0.3246  0.0422 -0.1547
   21MOL   H107 2547   6.705   7.046   7.397  1.7190 -1.7826 -3.1914
   21MOL   H108 2548   6.723   7.193   7.449  0.0285  0.6659 -0.6825
   21MOL   H109 2549   6.763   7.155   7.144 -1.3416 -1.1858 -0.3076
   21MOL   C110 2550   6.679   7.346   7.236 -0.2632 -0.2601 -0.6396
   21MOL   C111 2551   6.803   7.439   7.264  0.3042  0.5231  0.2895
   21MOL   F112 2552   6.873   7.427   7.149 -0.0458 -0.4118 -0.2334
   21MOL   H113 2553   6.616   7.381   7.155  0.3288  1.2969 -0.4330
   21MOL   H114 2554   6.622   7.364   7.328  1.0638  0.2792  0.0921
   21MOL   H115 2555   6.864   7.404   7.348 -0.0751  0.1158  0.3950
   21MOL   C116 2556   6.758   7.588   7.271 -0.8486  0.0512 -1.2100
   21MOL   C117 2557   6.880   7.684   7.296  0.3522 -0.0905 -0.3088
   21MOL   F118 2558   6.936   7.658   7.414  0.5631  0.6891 -0.2832
   21MOL   H119 2559   6.714   7.622   7.177  0.0478 -2.2754 -2.4947
   21MOL   H120 2560   6.684   7.613   7.347  2.3933 -0.0406  2.0746
   21MOL   H121 2561   6.849   7.788   7.294 -0.2957 -0.2158  1.5099
   21MOL   H122 2562   6.959   7.676   7.222  2.2030 -0.2936  1.6307
   22MOL     C1 2563   4.430   2.763   4.455  0.7903  0.2199  0.4416
   22MOL     C2 2564   4.354   2.665   4.544 -0.4639  0.2964  0.0523
   22MOL     F3 2565   4.243   2.723   4.562  0.0266  0.0675 -0.3952
   22MOL     H4 2566   4.430   2.864   4.496 -0.8181  0.8436 -1.0098
   22MOL     H5 2567   4.389   2.763   4.354  0.3141 -1.6027  0.6281
   22MOL     H6 2568   4.411   2.653   4.636  0.1874  0.1057 -0.3726
   22MOL     H7 2569   4.536   2.742   4.440  0.6414 -0.1447 -0.1203
   22MOL     C8 2570   4.340   2.527   4.471  0.8002  0.2216 -0.3979
   22MOL     C9 2571   4.475   2.448   4.457  0.2096 -0.1703 -0.6098
   22MOL    F10 2572   4.495   2.399   4.579 -0.0897 -0.4109 -0.3069
   22MOL    H11 2573   4.265   2.465   4.520  0.3583  2.0208  1.2714
   22MOL    H12 2574   4.307   2.548   4.369  3.5445  2.2639 -0.9348
   22MOL    H13 2575   4.552   2.524   4.444  2.1539 -2.1765 -1.1697
   22MOL    C14 2576   4.497   2.340   4.346  0.3742  0.3744  0.3738
   22MOL    C15 2577   4.532   2.388   4.203 -0.2015 -0.8321 -0.7880
   22MOL    F16 2578   4.655   2.454   4.205 -0.4681  0.5129 -0.7469
   22MOL    H17 2579   4.577   2.270   4.370 -0.6532 -1.5570 -1.6514
   22MOL    H18 2580   4.413   2.272   4.337  1.0590 -0.7351  2.1955
   22MOL    H19 2581   4.466   2.465   4.162  0.9412 -1.6916 -4.4305
   22MOL    C20 2582   4.536   2.279   4.095 -0.0904  0.1879  0.3098
   22MOL    C21 2583   4.400   2.230   4.041 -0.3103 -0.3072 -0.1088
   22MOL    F22 2584   4.317   2.331   4.043 -0.4081  0.7323 -0.1465
   22MOL    H23 2585   4.598   2.308   4.010  0.6633 -0.5428  0.5944
   22MOL    H24 2586   4.582   2.194   4.147  0.3825  2.4855  3.8016
   22MOL    H25 2587   4.360   2.154   4.108 -0.9651  0.4895  0.4049
   22MOL    C26 2588   4.405   2.166   3.898  0.5073  1.1036  1.0258
   22MOL    C27 2589   4.497   2.044   3.870  0.1913  0.1327  0.5582
   22MOL    F28 2590   4.455   1.949   3.957  0.2582 -0.0606  0.2016
   22MOL    H29 2591   4.299   2.145   3.887  0.9988 -1.2605  0.5261
   22MOL    H30 2592   4.417   2.242   3.821 -0.6666  1.1043  0.8410
   22MOL    H31 2593   4.600   2.066   3.897  0.2831 -0.2430  0.5152
   22MOL    C32 2594   4.490   1.978   3.727  0.1479 -0.4844 -0.3597
   22MOL    C33 2595   4.585   1.850   3.705 -0.4140  1.0189 -0.1997
   22MOL    F34 2596   4.545   1.801   3.587 -0.4421  0.6615 -0.1009
   22MOL    H35 2597   4.387   1.959   3.697 -0.8866  4.6311 -0.5389
   22MOL    H36 2598   4.520   2.056   3.656 -0.9678  0.0782 -0.2148
   22MOL    H37 2599   4.560   1.775   3.780  0.0032  1.1213  0.0442
   22MOL    C38 2600   4.740   1.871   3.686 -0.1382  0.4730 -0.0213
   22MOL    C39 2601   4.828   1.842   3.815 -0.1913  0.4679  0.5511
   22MOL    F40 2602   4.851   1.711   3.827 -0.2381 -0.5305 -0.2234
   22MOL    H41 2603   4.788   1.818   3.604  0.5427 -1.4001  1.5668
   22MOL    H42 2604   4.765   1.970   3.648  2.3474 -0.5646 -1.1909
   22MOL    H43 2605   4.777   1.863   3.909 -2.0932  0.5695 -0.4875
   22MOL    C44 2606   4.972   1.910   3.824  0.1992 -0.1369 -0.1443
   22MOL    C45 2607   4.974   2.064   3.848 -0.6826 -0.1679 -0.1357
   22MOL    F46 2608   4.942   2.073   3.977  0.1178 -0.7180  0.2659
   22MOL    H47 2609   5.015   1.863   3.913  1.0310  0.6741 -0.1093
   22MOL    H48 2610   5.041   1.884   3.744  2.1913  2.6669  0.5692
   22MOL    H49 2611   4.900   2.120   3.791  0.0688 -1.1232 -2.1192
   22MOL    C50 2612   5.110   2.133   3.825  0.3834 -0.0300  0.1712
   22MOL    C51 2613   5.144   2.152   3.676  1.0600 -1.1619  0.2855
   22MOL    F52 2614   5.031   2.211   3.627 -0.5335  0.0350 -0.5308
   22MOL    H53 2615   5.105   2.235   3.862  4.6340  0.3654 -0.0410
   22MOL    H54 2616   5.193   2.084   3.877 -0.6056 -1.7155  0.1933
   22MOL    H55 2617   5.153   2.050   3.638 -2.1917 -2.0170  1.6053
   22MOL    C56 2618   5.279   2.212   3.646 -0.0353  0.1722  0.4414
   22MOL    C57 2619   5.305   2.234   3.497 -0.2615  0.6986  0.1186
   22MOL    F58 2620   5.420   2.309   3.484 -0.3616  0.5092  0.1840
   22MOL    H59 2621   5.279   2.313   3.688 -0.5862  0.3726 -0.0285
   22MOL    H60 2622   5.356   2.161   3.703 -0.2314 -1.0920 -0.4210
   22MOL    H61 2623   5.238   2.308   3.453 -1.3564 -0.9173 -1.0004
   22MOL    C62 2624   5.305   2.114   3.407  0.8066  0.1908 -0.4430
   22MOL    C63 2625   5.411   2.007   3.412 -0.3480  0.2363 -0.0753
   22MOL    F64 2626   5.369   1.923   3.512 -0.0101 -0.1510  0.4643
   22MOL    H65 2627   5.210   2.061   3.415 -0.3995  2.3626 -0.0921
   22MOL    H66 2628   5.298   2.152   3.305  1.6812  0.5281 -0.3849
   22MOL    H67 2629   5.508   2.041   3.448 -0.5785 -0.9897  1.8114
   22MOL    C68 2630   5.428   1.935   3.278 -0.4741 -0.0172 -0.1171
   22MOL    C69 2631   5.537   1.829   3.273  0.0133  0.7197 -0.4767
   22MOL    F70 2632   5.502   1.727   3.347  0.5789 -0.9374  0.1423
   22MOL    H71 2633   5.335   1.889   3.242 -0.5153 -0.5533  0.6545
   22MOL    H72 2634   5.447   2.016   3.208  1.3664 -0.9575 -0.7254
   22MOL    H73 2635   5.624   1.877   3.317 -1.6246  2.7050  0.7042
   22MOL    C74 2636   5.569   1.785   3.136 -0.8819 -0.0992  0.2622
   22MOL    C75 2637   5.682   1.865   3.066  0.5336 -0.9620 -0.4042
   22MOL    F76 2638   5.792   1.846   3.133  0.0004  0.2331 -0.0573
   22MOL    H77 2639   5.606   1.683   3.142  2.2197  0.9598 -0.0894
   22MOL    H78 2640   5.482   1.776   3.070 -0.4027 -3.9143  0.0523
   22MOL    H79 2641   5.648   1.969   3.071 -0.0959 -1.1707 -0.2516
   22MOL    C80 2642   5.702   1.823   2.919  0.0421 -0.1723 -0.4234
   22MOL    C81 2643   5.774   1.928   2.832  0.4728 -0.2089 -0.1841
   22MOL    F82 2644   5.911   1.922   2.854  0.5561 -0.4849  0.2316
   22MOL    H83 2645   5.753   1.727   2.908  0.0763 -0.3752  1.3501
   22MOL    H84 2646   5.605   1.792   2.882 -0.5249  1.5448 -0.4408
   22MOL    H85 2647   5.741   2.027   2.864  0.7924  0.0207 -0.5624
   22MOL    C86 2648   5.763   1.915   2.681 -0.2255  0.1410 -0.1551
   22MOL    C87 2649   5.645   2.004   2.623 -0.2859  0.8024 -0.0211
   22MOL    F88 2650   5.686   2.125   2.593  0.2578  0.3081 -0.2536
   22MOL    H89 2651   5.858   1.936   2.632 -1.3722 -0.1273 -2.5566
   22MOL    H90 2652   5.754   1.808   2.664 -0.3788  0.1202  0.0544
   22MOL    H91 2653   5.556   2.016   2.684 -1.9340 -0.2941 -2.1400
   22MOL    C92 2654   5.589   1.948   2.483  0.4147  0.4019 -0.3796
   22MOL    C93 2655   5.494   1.829   2.508  0.1632 -0.3968 -0.2702
   22MOL    F94 2656   5.370   1.871   2.529 -0.1420  0.5620 -0.1780
   22MOL    H95 2657   5.533   2.029   2.436  2.0142  0.7135 -1.8067
   22MOL    H96 2658   5.669   1.921   2.415  1.3627 -2.3534  1.7349
   22MOL    H97 2659   5.521   1.766   2.593 -0.7765  1.7182  1.6302
   22MOL    C98 2660   5.497   1.734   2.387  0.4003 -0.4015  0.1021
   22MOL    C99 2661   5.431   1.784   2.252 -0.0437  0.2373  0.1213
   22MOL   F100 2662   5.495   1.893   2.229  0.1935  0.2423 -0.8855
   22MOL   H101 2663   5.593   1.695   2.356 -0.7667 -2.0086 -1.6363
   22MOL   H102 2664   5.436   1.647   2.414 -1.2390  0.0439 -2.0643
   22MOL   H103 2665   5.326   1.807   2.270 -0.2454 -0.1111 -0.6027
   22MOL   C104 2666   5.451   1.677   2.147  0.0953  0.0911  0.1488
   22MOL   C105 2667   5.378   1.715   2.018 -0.3232 -0.0355  0.4846
   22MOL   F106 2668   5.254   1.741   2.041 -0.2848  0.0225  0.5067
   22MOL   H107 2669   5.555   1.650   2.133 -0.3654 -1.9804  0.5485
   22MOL   H108 2670   5.395   1.588   2.177 -1.5729  1.6363  1.7312
   22MOL   H109 2671   5.376   1.630   1.950 -1.4786  1.0402 -0.8363
   22MOL   C110 2672   5.445   1.824   1.936 -0.6326 -0.8793 -0.0987
   22MOL   C111 2673   5.572   1.789   1.860  0.2039 -0.6474 -0.0661
   22MOL   F112 2674   5.544   1.692   1.773  0.9262  0.0184  0.0124
   22MOL   H113 2675   5.385   1.852   1.850 -0.9385 -1.4940 -0.0876
   22MOL   H114 2676   5.460   1.910   2.000 -1.6814  0.8339 -2.1163
   22MOL   H115 2677   5.646   1.736   1.920  2.3084  0.7619 -1.3262
   22MOL   C116 2678   5.636   1.898   1.789 -0.0587 -0.3884 -0.6032
   22MOL   C117 2679   5.681   2.015   1.876 -0.0150  0.1508 -0.0951
   22MOL   F118 2680   5.570   2.089   1.889  0.5009 -0.5894  0.3643
   22MOL   H119 2681   5.717   1.864   1.724 -0.4216 -0.1509 -1.1884
   22MOL   H120 2682   5.552   1.933   1.728 -2.6490 -2.1908  1.8238
   22MOL   H121 2683   5.758   2.073   1.824  0.7467 -0.3303  0.4780
   22MOL   H122 2684   5.715   1.986   1.975 -0.1592 -0.2047 -0.1494
   23MOL     C1 2685   3.408   5.795   6.613  0.0999 -0.7556 -0.6628
   23MOL     C2 2686   3.373   5.936   6.575  0.1124 -0.8457  0.3843
   23MOL     F3 2687   3.273   5.986   6.652  0.1707  0.0658  0.4319
   23MOL     H4 2688   3.466   5.793   6.705 -0.7138 -0.0879 -0.1201
   23MOL     H5 2689   3.466   5.746   6.535  1.8645  1.0291 -0.4954
   23MOL     H6 2690   3.323   5.923   6.480  1.7185  2.2216 -0.9588
   23MOL     H7 2691   3.318   5.732   6.609  0.8863 -1.8733 -0.9687
   23MOL     C8 2692   3.486   6.040   6.570  0.0307  0.2818  0.1279
   23MOL     C9 2693   3.599   6.003   6.470 -0.0058 -0.3733  0.0205
   23MOL    F10 2694   3.548   5.968   6.352 -0.0587 -0.4153  0.3545
   23MOL    H11 2695   3.451   6.142   6.554 -1.2041  0.2959  2.7548
   23MOL    H12 2696   3.530   6.046   6.669 -2.4748  0.9063  1.2428
   23MOL    H13 2697   3.650   5.915   6.509 -0.1303  0.6441  2.6202
   23MOL    C14 2698   3.712   6.105   6.463  0.1539 -0.2467  0.4917
   23MOL    C15 2699   3.831   6.076   6.376 -0.0173 -0.0764  0.5634
   23MOL    F16 2700   3.898   5.970   6.421 -0.8510  0.2153 -0.4178
   23MOL    H17 2701   3.670   6.204   6.445  1.7868  1.1144  3.8583
   23MOL    H18 2702   3.741   6.113   6.568  0.9362 -1.3379  0.3618
   23MOL    H19 2703   3.904   6.156   6.390  0.4077 -0.1729 -0.9938
   23MOL    C20 2704   3.795   6.059   6.225  0.0092  0.1572  0.8150
   23MOL    C21 2705   3.912   6.039   6.129 -0.1946 -0.5559  0.3122
   23MOL    F22 2706   3.985   5.941   6.168  0.2298  0.3209  0.3958
   23MOL    H23 2707   3.724   5.977   6.215 -0.3754  0.7768 -1.9602
   23MOL    H24 2708   3.732   6.143   6.196 -2.6873 -1.9940  0.2970
   23MOL    H25 2709   3.978   6.125   6.119 -1.3277  0.3371  0.3086
   23MOL    C26 2710   3.864   6.010   5.988 -0.0354 -0.2893  0.4814
   23MOL    C27 2711   3.971   6.019   5.880 -0.4333  0.6486 -0.1898
   23MOL    F28 2712   4.033   6.140   5.886  0.0158  0.0500 -0.5205
   23MOL    H29 2713   3.828   5.908   5.990  2.0920 -1.0471  1.8289
   23MOL    H30 2714   3.774   6.068   5.965 -0.4640 -0.8016  0.8578
   23MOL    H31 2715   3.918   6.026   5.786 -0.9248 -0.5904 -0.0076
   23MOL    C32 2716   4.076   5.906   5.870  0.2091  0.1207 -0.1231
   23MOL    C33 2717   4.187   5.939   5.771 -0.2305  0.0704  0.4282
   23MOL    F34 2718   4.270   5.836   5.773 -0.4694 -0.1382  0.2147
   23MOL    H35 2719   4.129   5.885   5.962 -1.5185 -2.9447  0.2111
   23MOL    H36 2720   4.026   5.814   5.841  0.7325 -0.4482  0.7913
   23MOL    H37 2721   4.245   6.024   5.806  1.6242 -0.8395 -0.3656
   23MOL    C38 2722   4.147   5.974   5.627  0.3151 -0.0847  0.3122
   23MOL    C39 2723   4.060   5.868   5.553 -0.3425  0.0353  0.4719
   23MOL    F40 2724   3.941   5.851   5.618 -0.2709  0.4730  0.0119
   23MOL    H41 2725   4.095   6.070   5.635 -1.3347 -0.8447 -1.0541
   23MOL    H42 2726   4.238   5.993   5.571 -0.4599 -1.3584 -1.4260
   23MOL    H43 2727   4.111   5.776   5.580 -1.3583 -0.6450  0.1005
   23MOL    C44 2728   4.046   5.883   5.403  0.2275  0.7007  0.5170
   23MOL    C45 2729   3.965   6.002   5.340 -0.1779 -0.3327  0.0142
   23MOL    F46 2730   4.034   6.117   5.351 -0.5923  0.3210  0.2749
   23MOL    H47 2731   4.146   5.894   5.361  0.7008 -1.3685  1.0492
   23MOL    H48 2732   4.009   5.787   5.366 -1.6758  1.5838  0.0244
   23MOL    H49 2733   3.881   6.026   5.405 -0.9284 -1.0358 -0.6792
   23MOL    C50 2734   3.949   5.988   5.187  0.3001  0.2008 -0.4258
   23MOL    C51 2735   3.856   6.083   5.107  0.1061  0.2247  0.1551
   23MOL    F52 2736   3.741   6.036   5.156  0.1023  0.3882  0.7715
   23MOL    H53 2737   4.053   5.982   5.156  0.8503  0.7082  1.3145
   23MOL    H54 2738   3.915   5.886   5.166  0.6062 -0.1084  0.5431
   23MOL    H55 2739   3.858   6.051   5.003 -1.6261 -1.3791  0.5873
   23MOL    C56 2740   3.877   6.237   5.128  0.2047  0.0926 -0.0699
   23MOL    C57 2741   4.004   6.303   5.065  0.0222  0.7876 -0.0168
   23MOL    F58 2742   4.006   6.271   4.934 -0.0455 -0.2691  0.5520
   23MOL    H59 2743   3.789   6.283   5.084 -1.3932 -0.6445  2.2975
   23MOL    H60 2744   3.878   6.265   5.233 -1.3718  2.4695 -0.6680
   23MOL    H61 2745   4.094   6.252   5.098  0.0947  1.3927  0.7297
   23MOL    C62 2746   4.019   6.454   5.082  0.7815  0.3590  0.1343
   23MOL    C63 2747   4.152   6.498   5.054 -0.2494  0.3966 -0.7443
   23MOL    F64 2748   4.150   6.628   5.026  0.0492 -0.1846  0.5623
   23MOL    H65 2749   3.946   6.495   5.012 -0.2246  0.3423  1.1595
   23MOL    H66 2750   3.990   6.495   5.179  1.5834 -1.8011  1.3162
   23MOL    H67 2751   4.198   6.448   4.969  0.8198  1.4494 -0.8084
   23MOL    C68 2752   4.251   6.498   5.174  0.3253 -0.6143  0.3092
   23MOL    C69 2753   4.296   6.365   5.234 -0.4203  0.0675  0.0798
   23MOL    F70 2754   4.357   6.294   5.141  0.1871 -0.4083  0.1278
   23MOL    H71 2755   4.339   6.552   5.138  2.2333 -3.7461  0.1385
   23MOL    H72 2756   4.199   6.554   5.251  0.7312 -1.3593  1.1299
   23MOL    H73 2757   4.210   6.318   5.282 -0.4116 -1.6235 -1.4763
   23MOL    C74 2758   4.410   6.380   5.339 -0.4163 -0.1055  0.2822
   23MOL    C75 2759   4.364   6.466   5.460 -0.0121  0.1950 -0.2829
   23MOL    F76 2760   4.265   6.412   5.524  0.4689  0.7119  0.6101
   23MOL    H77 2761   4.445   6.283   5.374  0.7915  0.4337  0.5663
   23MOL    H78 2762   4.499   6.425   5.296  2.1769 -2.0490  3.3956
   23MOL    H79 2763   4.334   6.568   5.438 -1.8618 -0.5813 -1.5229
   23MOL    C80 2764   4.479   6.479   5.561 -0.3081 -0.2588 -0.0719
   23MOL    C81 2765   4.453   6.564   5.679 -0.5056 -0.0416  1.0379
   23MOL    F82 2766   4.358   6.511   5.760 -0.1998 -1.0610 -0.3873
   23MOL    H83 2767   4.518   6.381   5.592  0.3299  0.3777  1.1869
   23MOL    H84 2768   4.563   6.509   5.499  0.0548 -2.0496 -0.4892
   23MOL    H85 2769   4.409   6.659   5.650 -0.0342 -0.3469 -0.7446
   23MOL    C86 2770   4.582   6.598   5.753  0.0463  0.3113  0.2856
   23MOL    C87 2771   4.567   6.706   5.860  0.5264 -0.0171  0.0150
   23MOL    F88 2772   4.679   6.712   5.931 -0.4386 -0.1418  0.0139
   23MOL    H89 2773   4.621   6.504   5.792 -1.6227  0.5451  2.6689
   23MOL    H90 2774   4.666   6.625   5.690  1.0493 -2.9089  0.1684
   23MOL    H91 2775   4.494   6.680   5.937  0.8532  1.6807  0.9223
   23MOL    C92 2776   4.544   6.850   5.814  0.5454  0.3550  0.4842
   23MOL    C93 2777   4.534   6.959   5.923 -0.1206  0.3660  0.1923
   23MOL    F94 2778   4.564   7.076   5.859  0.1437 -0.4685 -0.4937
   23MOL    H95 2779   4.618   6.888   5.744 -0.0598  0.7209  0.0439
   23MOL    H96 2780   4.445   6.845   5.769  0.6426  1.6400  0.1098
   23MOL    H97 2781   4.615   6.944   5.994 -0.3886 -1.5993  0.1260
   23MOL    C98 2782   4.409   6.964   6.007  0.0100 -0.0941  0.1934
   23MOL    C99 2783   4.382   7.087   6.091  0.1072  0.4088  0.6424
   23MOL   F100 2784   4.348   7.173   6.000  0.2860  0.7379 -0.1560
   23MOL   H101 2785   4.324   6.939   5.944 -0.8628  3.1010  0.0247
   23MOL   H102 2786   4.425   6.879   6.074  1.1426 -0.7399 -0.8749
   23MOL   H103 2787   4.480   7.121   6.123  0.3781  0.3775 -0.1661
   23MOL   C104 2788   4.278   7.084   6.203  0.4769 -0.5312  0.1213
   23MOL   C105 2789   4.342   7.027   6.333  0.5269 -1.4749  0.4539
   23MOL   F106 2790   4.430   7.115   6.377 -0.3450  0.6507 -0.2767
   23MOL   H107 2791   4.238   7.182   6.228 -0.9756 -0.8296 -1.0185
   23MOL   H108 2792   4.200   7.014   6.176  0.0233 -0.9269  2.3643
   23MOL   H109 2793   4.402   6.940   6.307  2.9805 -0.2369  1.7648
   23MOL   C110 2794   4.232   7.000   6.436  0.8812 -0.2579  0.3868
   23MOL   C111 2795   4.296   6.981   6.574 -0.1915  1.0052 -0.1659
   23MOL   F112 2796   4.201   7.007   6.663 -0.4428  0.0916 -0.6025
   23MOL   H113 2797   4.162   7.084   6.432 -0.8332 -1.6938 -0.7374
   23MOL   H114 2798   4.156   6.924   6.418 -2.0306  2.3969  1.1338
   23MOL   H115 2799   4.379   7.046   6.601  0.8734 -0.4862  0.2466
   23MOL   C116 2800   4.340   6.836   6.589 -0.1191 -0.1205  0.0371
   23MOL   C117 2801   4.409   6.817   6.722 -0.6508  0.0039  0.0578
   23MOL   F118 2802   4.504   6.909   6.728  0.1191  0.3085 -0.1706
   23MOL   H119 2803   4.254   6.770   6.579 -0.3342 -0.1267  1.7451
   23MOL   H120 2804   4.399   6.799   6.506  2.3202  1.3000  1.0856
   23MOL   H121 2805   4.452   6.717   6.723 -0.3700  0.1163 -0.3840
   23MOL   H122 2806   4.343   6.825   6.808 -1.5752 -0.1950 -0.6286
   24MOL     C1 2807   1.203   3.352   5.491  0.5017 -0.7325  0.9068
   24MOL     C2 2808   1.134   3.494   5.491  0.0649 -0.4279  0.7456
   24MOL     F3 2809   1.123   3.540   5.613  0.0579  0.2450  0.3416
   24MOL     H4 2810   1.232   3.323   5.390 -0.7694  1.3237 -0.0896
   24MOL     H5 2811   1.138   3.272   5.526  1.7734 -1.5087  1.5203
   24MOL     H6 2812   1.037   3.462   5.454  0.1899 -0.0728  0.0976
   24MOL     H7 2813   1.294   3.341   5.549  0.4233 -2.7388  0.6962
   24MOL     C8 2814   1.212   3.591   5.402  0.9929 -0.2344  0.3538
   24MOL     C9 2815   1.158   3.738   5.408 -0.0784  0.5466  0.9136
   24MOL    F10 2816   1.252   3.809   5.349  0.0521  0.0761  0.1863
   24MOL    H11 2817   1.310   3.596   5.450  0.7988  1.1457  0.6464
   24MOL    H12 2818   1.207   3.547   5.302  0.5775  0.1666  0.1994
   24MOL    H13 2819   1.143   3.764   5.513  0.7134  0.7616  0.9716
   24MOL    C14 2820   1.024   3.741   5.339 -0.3372  0.0192 -0.0629
   24MOL    C15 2821   0.955   3.875   5.357  0.5157 -0.3969  0.3022
   24MOL    F16 2822   0.922   3.895   5.485  0.0727 -0.0557  0.2233
   24MOL    H17 2823   1.028   3.710   5.235 -0.0984  1.6568 -0.5649
   24MOL    H18 2824   0.974   3.667   5.401  1.2057 -0.4393  0.6722
   24MOL    H19 2825   0.858   3.864   5.311  0.9912 -0.7988 -0.6055
   24MOL    C20 2826   1.009   4.015   5.297 -0.5541 -0.3499 -0.2123
   24MOL    C21 2827   1.047   4.017   5.150 -0.1524  0.6077  0.4816
   24MOL    F22 2828   0.945   3.997   5.072  0.0408  0.5655 -0.4821
   24MOL    H23 2829   0.935   4.089   5.329  0.1386 -0.2816  1.2960
   24MOL    H24 2830   1.088   4.054   5.362 -1.4101  1.1529 -0.0482
   24MOL    H25 2831   1.121   3.936   5.144  0.0684  0.7334  1.4120
   24MOL    C26 2832   1.111   4.145   5.084  0.1189  0.0684 -0.0243
   24MOL    C27 2833   1.033   4.280   5.077  0.5580  0.0255  0.0994
   24MOL    F28 2834   0.979   4.300   5.196 -0.4287  0.1738 -0.0090
   24MOL    H29 2835   1.207   4.167   5.132  1.6691 -1.7732 -2.1255
   24MOL    H30 2836   1.145   4.117   4.984 -1.3974 -0.2188 -0.4572
   24MOL    H31 2837   0.951   4.285   5.004 -0.6096 -0.1954  1.3717
   24MOL    C32 2838   1.135   4.389   5.034  0.4452  0.2071 -0.4761
   24MOL    C33 2839   1.181   4.391   4.887 -0.7193  0.0705 -0.0833
   24MOL    F34 2840   1.075   4.426   4.811  0.0087  0.3554 -0.4974
   24MOL    H35 2841   1.093   4.489   5.048  1.3953  0.3205  1.9334
   24MOL    H36 2842   1.222   4.390   5.100  0.2946  1.1242 -0.2813
   24MOL    H37 2843   1.202   4.288   4.860  2.7113  0.8153 -0.5714
   24MOL    C38 2844   1.296   4.487   4.856  0.3783 -0.3493 -0.3827
   24MOL    C39 2845   1.362   4.474   4.722  0.1855 -0.1206 -0.6311
   24MOL    F40 2846   1.470   4.552   4.721 -0.1998  0.4486 -0.0178
   24MOL    H41 2847   1.254   4.587   4.866  0.7399  0.1062 -3.1143
   24MOL    H42 2848   1.367   4.471   4.937 -0.4509  2.0382  0.8660
   24MOL    H43 2849   1.292   4.510   4.647  0.6341  0.8170 -0.6065
   24MOL    C44 2850   1.398   4.340   4.678 -0.4705 -0.0628 -0.0135
   24MOL    C45 2851   1.439   4.328   4.529  0.2207 -0.4101  0.3540
   24MOL    F46 2852   1.321   4.309   4.456  0.0438 -0.2017 -0.2523
   24MOL    H47 2853   1.479   4.316   4.746  0.3593 -1.4315 -1.4780
   24MOL    H48 2854   1.336   4.253   4.700 -2.0312  0.7448 -1.0990
   24MOL    H49 2855   1.494   4.237   4.505 -2.6819 -2.2958  0.6467
   24MOL    C50 2856   1.505   4.453   4.464 -0.0149 -0.0453 -0.0426
   24MOL    C51 2857   1.557   4.430   4.323  0.2415 -0.0543  0.4268
   24MOL    F52 2858   1.564   4.555   4.272 -0.6983  0.5132 -0.4838
   24MOL    H53 2859   1.442   4.542   4.460  2.1761  1.4257 -2.9787
   24MOL    H54 2860   1.589   4.487   4.526 -0.6741  0.3469  0.6512
   24MOL    H55 2861   1.485   4.380   4.259  0.1783  3.3584 -2.3323
   24MOL    C56 2862   1.692   4.362   4.318  0.1758 -0.2313  0.4452
   24MOL    C57 2863   1.727   4.322   4.178 -0.3412  0.1357  0.3993
   24MOL    F58 2864   1.864   4.312   4.171 -0.0036 -0.3155  0.5694
   24MOL    H59 2865   1.762   4.431   4.365  1.7483 -1.8142  0.4645
   24MOL    H60 2866   1.700   4.275   4.383  0.0484  0.4660  1.4115
   24MOL    H61 2867   1.705   4.402   4.107  0.0764 -0.4427 -0.3886
   24MOL    C62 2868   1.676   4.173   4.131 -0.8313  0.2150 -0.3570
   24MOL    C63 2869   1.692   4.136   3.981  0.8116 -0.2483 -0.1804
   24MOL    F64 2870   1.824   4.131   3.950 -0.4146  0.2717  0.0433
   24MOL    H65 2871   1.722   4.094   4.190  1.1851  1.5388 -0.1454
   24MOL    H66 2872   1.569   4.168   4.154 -1.0192  0.3328 -1.2008
   24MOL    H67 2873   1.660   4.214   3.912 -0.0451  1.4842  2.0813
   24MOL    C68 2874   1.618   4.001   3.940  0.4075 -0.1140  0.1779
   24MOL    C69 2875   1.649   3.939   3.804  0.1193 -0.0134 -0.2071
   24MOL    F70 2876   1.605   3.809   3.797  0.7454  0.1076 -0.1010
   24MOL    H71 2877   1.628   3.929   4.021  1.7727  0.6046  0.6710
   24MOL    H72 2878   1.511   4.021   3.950  0.6562  0.7361  1.2805
   24MOL    H73 2879   1.757   3.925   3.802  0.0022 -0.8062 -2.8194
   24MOL    C74 2880   1.601   4.018   3.684 -0.2366  0.5972 -0.0704
   24MOL    C75 2881   1.657   3.951   3.555  0.1641  0.9305  0.8257
   24MOL    F76 2882   1.579   3.989   3.453  0.3319  0.6240 -0.2487
   24MOL    H77 2883   1.492   4.025   3.688 -0.3690 -1.4207  0.1938
   24MOL    H78 2884   1.646   4.116   3.702 -0.9457  1.0735 -0.8349
   24MOL    H79 2885   1.641   3.844   3.560 -0.5664  1.0651  1.4714
   24MOL    C80 2886   1.802   3.972   3.526  0.5998  0.5030 -0.4197
   24MOL    C81 2887   1.858   3.897   3.405 -0.7104 -0.3337 -0.0739
   24MOL    F82 2888   1.969   3.957   3.370  0.0048  0.0730 -0.0239
   24MOL    H83 2889   1.808   4.080   3.513  0.7837  0.4878 -0.4658
   24MOL    H84 2890   1.868   3.950   3.610  1.7604  0.0107 -1.4300
   24MOL    H85 2891   1.795   3.899   3.315 -0.6422  0.7847 -0.1080
   24MOL    C86 2892   1.898   3.751   3.443 -0.3725 -0.2984 -0.2517
   24MOL    C87 2893   1.954   3.667   3.335  0.6418  0.2430  0.0670
   24MOL    F88 2894   2.079   3.710   3.332  0.5254 -0.8755  0.4245
   24MOL    H89 2895   1.971   3.754   3.524 -1.3916  0.4226  0.6510
   24MOL    H90 2896   1.813   3.700   3.489 -1.6393  0.9603 -1.1361
   24MOL    H91 2897   1.909   3.695   3.239  0.5283 -2.2947 -0.6669
   24MOL    C92 2898   1.952   3.521   3.363 -0.0244  0.2216  0.4048
   24MOL    C93 2899   1.822   3.451   3.344  0.1252 -0.0748  0.7116
   24MOL    F94 2900   1.784   3.479   3.220  0.4577  0.0471  0.4476
   24MOL    H95 2901   2.023   3.463   3.304 -0.9056 -0.4101 -0.0429
   24MOL    H96 2902   1.989   3.498   3.463 -0.7367 -0.0626  0.6029
   24MOL    H97 2903   1.744   3.493   3.408 -0.7833  1.8048 -1.5323
   24MOL    C98 2904   1.819   3.301   3.358 -0.3445  0.8956 -0.1932
   24MOL    C99 2905   1.691   3.231   3.312 -0.8689 -0.7326 -0.4021
   24MOL   F100 2906   1.718   3.098   3.332 -0.6021 -0.0956 -0.0989
   24MOL   H101 2907   1.904   3.264   3.301 -0.8437 -0.6766  0.0580
   24MOL   H102 2908   1.848   3.274   3.459 -0.1653  1.1048 -0.1874
   24MOL   H103 2909   1.679   3.258   3.207 -0.0676  0.1745 -0.2627
   24MOL   C104 2910   1.574   3.252   3.397  0.1270 -0.6939 -0.3164
   24MOL   C105 2911   1.439   3.179   3.355 -0.0301 -0.4931  0.2013
   24MOL   F106 2912   1.342   3.215   3.433  0.5812  0.0464 -0.0924
   24MOL   H107 2913   1.595   3.253   3.504  0.1942 -0.6025 -0.3301
   24MOL   H108 2914   1.546   3.358   3.390 -1.4977 -1.0678  0.1969
   24MOL   H109 2915   1.443   3.070   3.355 -0.0617 -0.4998 -0.9932
   24MOL   C110 2916   1.387   3.230   3.222 -0.6135 -1.1304  0.8562
   24MOL   C111 2917   1.272   3.144   3.169 -0.0094 -0.1340 -0.0978
   24MOL   F112 2918   1.154   3.177   3.216 -0.1460  0.2061 -0.1297
   24MOL   H113 2919   1.359   3.334   3.241 -1.0414 -0.7615 -1.6568
   24MOL   H114 2920   1.467   3.233   3.148 -0.7527  2.9489  0.7845
   24MOL   H115 2921   1.285   3.038   3.188  0.7484  0.0476  0.4341
   24MOL   C116 2922   1.266   3.154   3.014  1.0212  0.0425  0.3173
   24MOL   C117 2923   1.163   3.058   2.952  0.0266  0.6318 -0.1863
   24MOL   F118 2924   1.200   2.933   2.981  0.5611  0.4423 -0.0944
   24MOL   H119 2925   1.224   3.252   2.990  1.9641  0.3042 -0.2732
   24MOL   H120 2926   1.361   3.132   2.965  1.0419 -1.1345  0.8600
   24MOL   H121 2927   1.180   3.071   2.845 -0.7593  1.2781 -0.2376
   24MOL   H122 2928   1.059   3.070   2.981  0.8965  1.3519  2.7651
   25MOL     C1 2929   1.699   5.554   6.606  0.5109  0.1395  0.5142
   25MOL     C2 2930   1.736   5.460   6.723  0.4425 -0.0577  0.0368
   25MOL     F3 2931   1.739   5.332   6.682  0.2363  0.3020 -0.4133
   25MOL     H4 2932   1.764   5.541   6.520 -1.2000  1.3378 -0.9973
   25MOL     H5 2933   1.717   5.658   6.631  2.3591  0.3788 -1.7053
   25MOL     H6 2934   1.658   5.458   6.799  0.4379 -0.4109  0.0237
   25MOL     H7 2935   1.597   5.543   6.567  1.1294  0.2559 -1.1800
   25MOL     C8 2936   1.876   5.488   6.783 -0.2057  0.3046  0.5384
   25MOL     C9 2937   1.914   5.390   6.892  0.2936 -0.0334  0.0782
   25MOL    F10 2938   2.041   5.409   6.934  0.0656 -0.4543 -0.0701
   25MOL    H11 2939   1.953   5.503   6.707 -1.5384 -0.0474 -0.9094
   25MOL    H12 2940   1.883   5.588   6.825 -1.7485  0.8196 -0.3829
   25MOL    H13 2941   1.906   5.289   6.852 -0.1880 -0.3847  1.0320
   25MOL    C14 2942   1.835   5.402   7.030 -0.3197 -0.2020  0.4210
   25MOL    C15 2943   1.826   5.284   7.123 -0.2645 -0.6974  0.2273
   25MOL    F16 2944   1.738   5.211   7.075  0.6888  0.8725  0.2028
   25MOL    H17 2945   1.895   5.478   7.079  0.4851 -0.1580 -0.5997
   25MOL    H18 2946   1.745   5.461   7.018  0.2553  0.3101 -1.6665
   25MOL    H19 2947   1.792   5.321   7.220  1.0744 -0.7295  0.7244
   25MOL    C20 2948   1.959   5.204   7.143 -0.5017 -0.2898 -1.0818
   25MOL    C21 2949   1.972   5.129   7.277  0.5040  0.3529  0.4087
   25MOL    F22 2950   1.945   5.212   7.375 -0.5168 -0.1875  0.4173
   25MOL    H23 2951   1.992   5.139   7.062  1.9006  0.7679 -1.0244
   25MOL    H24 2952   2.041   5.277   7.140 -0.3334 -0.4612 -0.7375
   25MOL    H25 2953   2.073   5.089   7.291  0.5578  0.1028 -0.6208
   25MOL    C26 2954   1.872   5.014   7.301 -0.3670 -0.6937 -0.1095
   25MOL    C27 2955   1.887   4.901   7.205  0.3930 -0.7384 -0.6002
   25MOL    F28 2956   2.012   4.861   7.229  0.7775 -0.2798  0.2331
   25MOL    H29 2957   1.883   4.968   7.399 -2.6965 -0.5111  0.2700
   25MOL    H30 2958   1.769   5.050   7.303 -0.2799 -0.4339 -0.4112
   25MOL    H31 2959   1.884   4.934   7.101  1.7214  1.4239  0.0132
   25MOL    C32 2960   1.785   4.796   7.234 -0.4378  0.5471  0.0871
   25MOL    C33 2961   1.761   4.685   7.139 -0.2916  0.7323  0.2045
   25MOL    F34 2962   1.871   4.617   7.138 -0.3050 -0.1974  0.3019
   25MOL    H35 2963   1.811   4.763   7.335  0.9297  0.7717 -0.1750
   25MOL    H36 2964   1.684   4.834   7.246 -0.3528  0.0827  2.5524
   25MOL    H37 2965   1.725   4.726   7.045  1.0098 -0.7660 -0.9693
   25MOL    C38 2966   1.657   4.583   7.190  0.5355 -0.4899 -0.0691
   25MOL    C39 2967   1.636   4.470   7.083  0.3502  0.1294 -0.1171
   25MOL    F40 2968   1.535   4.401   7.139 -0.0331 -0.3529  0.3086
   25MOL    H41 2969   1.684   4.545   7.289 -0.6747 -3.0906 -0.6830
   25MOL    H42 2970   1.562   4.633   7.210  1.7983  1.1492  1.9525
   25MOL    H43 2971   1.722   4.402   7.077  1.5971  1.5892  0.7357
   25MOL    C44 2972   1.589   4.502   6.934  0.3614 -0.5136 -0.1258
   25MOL    C45 2973   1.581   4.386   6.843 -0.4222  0.7316 -0.4693
   25MOL    F46 2974   1.487   4.305   6.895  0.6410  0.5814  0.8154
   25MOL    H47 2975   1.497   4.560   6.939  0.8607  0.5231 -2.2775
   25MOL    H48 2976   1.655   4.579   6.894 -0.6201  0.2719 -0.2822
   25MOL    H49 2977   1.670   4.324   6.851 -0.6831  0.5947  1.6176
   25MOL    C50 2978   1.535   4.416   6.700  0.4686 -0.4684 -0.0132
   25MOL    C51 2979   1.532   4.289   6.614  0.4505 -0.0590  0.0740
   25MOL    F52 2980   1.493   4.325   6.488  0.0228  0.2309 -0.2020
   25MOL    H53 2981   1.437   4.464   6.709  1.3582  1.7101 -1.5734
   25MOL    H54 2982   1.598   4.494   6.657 -1.0009  0.5452 -0.4037
   25MOL    H55 2983   1.455   4.218   6.646 -0.7684  1.3611  0.3475
   25MOL    C56 2984   1.662   4.207   6.600 -0.3353  0.4318  0.0618
   25MOL    C57 2985   1.780   4.276   6.520  0.0106  0.1867 -0.8728
   25MOL    F58 2986   1.800   4.394   6.577 -0.2530 -0.2205  0.1525
   25MOL    H59 2987   1.695   4.171   6.698 -3.3322  0.6536  1.1943
   25MOL    H60 2988   1.631   4.117   6.547 -0.5473 -0.1592  1.1769
   25MOL    H61 2989   1.755   4.306   6.418 -0.4167  1.3977 -0.4267
   25MOL    C62 2990   1.913   4.206   6.531  0.5694 -0.2732  0.0933
   25MOL    C63 2991   1.917   4.062   6.465 -0.0069 -0.1033 -0.2705
   25MOL    F64 2992   1.882   4.072   6.339 -0.1422 -0.7703  0.6493
   25MOL    H65 2993   1.989   4.269   6.485 -0.8553  2.1594  1.0097
   25MOL    H66 2994   1.940   4.199   6.637 -1.4621 -1.2269  0.5725
   25MOL    H67 2995   1.833   3.999   6.496  0.8848 -2.6062 -2.7248
   25MOL    C68 2996   2.055   3.993   6.479 -0.1169 -0.7450  0.7934
   25MOL    C69 2997   2.105   3.980   6.628 -0.7752 -0.0912  0.1544
   25MOL    F70 2998   2.013   3.928   6.705  0.4345 -0.5338  0.2011
   25MOL    H71 2999   2.062   3.889   6.447  0.9712 -1.0056  1.8561
   25MOL    H72 3000   2.116   4.047   6.407 -1.1076  1.0792  1.3049
   25MOL    H73 3001   2.136   4.082   6.651 -0.9605 -0.3790  1.7486
   25MOL    C74 3002   2.221   3.876   6.632  0.1250 -0.0787  0.3747
   25MOL    C75 3003   2.364   3.917   6.581  0.6994  0.1189 -0.0440
   25MOL    F76 3004   2.407   4.019   6.658  0.3483 -0.0615  0.0983
   25MOL    H77 3005   2.219   3.839   6.735 -0.4400 -0.9898  0.0391
   25MOL    H78 3006   2.188   3.790   6.574 -0.1257 -0.0746  0.5109
   25MOL    H79 3007   2.364   3.959   6.481  1.1945 -1.2108 -0.6013
   25MOL    C80 3008   2.457   3.798   6.593  0.0603  0.4091 -0.4671
   25MOL    C81 3009   2.603   3.822   6.538  0.3471 -0.6463  0.0478
   25MOL    F82 3010   2.656   3.928   6.596  0.6634 -0.0556 -0.0408
   25MOL    H83 3011   2.465   3.769   6.698  3.4650 -2.2847 -1.3533
   25MOL    H84 3012   2.412   3.712   6.544  0.1927  0.2947 -0.3873
   25MOL    H85 3013   2.600   3.860   6.436 -2.2381 -3.0581 -0.8373
   25MOL    C86 3014   2.697   3.706   6.564  0.2015  0.3768  0.0493
   25MOL    C87 3015   2.681   3.588   6.474  0.2387 -0.3649  0.4659
   25MOL    F88 3016   2.687   3.615   6.348 -0.1161 -0.2761 -0.8433
   25MOL    H89 3017   2.796   3.749   6.549  0.7503 -0.7743  0.3202
   25MOL    H90 3018   2.711   3.681   6.669  0.4283 -0.3377 -0.1487
   25MOL    H91 3019   2.579   3.552   6.483  0.7416 -1.6736  0.9847
   25MOL    C92 3020   2.764   3.464   6.516 -0.0411 -0.1912  0.2896
   25MOL    C93 3021   2.915   3.473   6.479 -0.2464  0.4489 -0.1027
   25MOL    F94 3022   2.975   3.562   6.545  0.4810 -0.1582  0.4380
   25MOL    H95 3023   2.741   3.448   6.621 -0.1060 -1.1885  0.1302
   25MOL    H96 3024   2.730   3.376   6.460 -0.4286  1.6145 -2.4277
   25MOL    H97 3025   2.921   3.502   6.374  4.0591  1.8603  0.4425
   25MOL    C98 3026   2.993   3.337   6.482  0.8568 -0.3234  0.4618
   25MOL    C99 3027   3.032   3.279   6.622  0.8469 -0.3137  0.3430
   25MOL   F100 3028   2.927   3.299   6.709 -0.2059 -0.0989  0.5577
   25MOL   H101 3029   2.927   3.273   6.424  0.4011  0.9423 -0.4242
   25MOL   H102 3030   3.090   3.353   6.434  1.1190  0.9897  1.4006
   25MOL   H103 3031   3.112   3.338   6.666  1.5131 -0.1985 -1.0032
   25MOL   C104 3032   3.044   3.130   6.624 -0.2109  0.0607  0.4372
   25MOL   C105 3033   3.167   3.086   6.534 -0.0927  0.2823  0.1036
   25MOL   F106 3034   3.271   3.167   6.552 -0.2985  0.6632 -0.1429
   25MOL   H107 3035   3.067   3.094   6.724 -0.9463  1.8468  1.2613
   25MOL   H108 3036   2.962   3.072   6.582  0.6276  0.4254 -1.8051
   25MOL   H109 3037   3.150   3.126   6.434 -1.8591 -2.2769 -0.6685
   25MOL   C110 3038   3.202   2.939   6.550  0.4404  0.3545  0.2289
   25MOL   C111 3039   3.098   2.851   6.473 -0.2475 -0.3823  0.4916
   25MOL   F112 3040   3.095   2.884   6.341  0.2238  0.0796  0.1349
   25MOL   H113 3041   3.301   2.917   6.509 -0.1629  1.6029 -2.0010
   25MOL   H114 3042   3.195   2.913   6.655 -1.0178  0.4602  0.1650
   25MOL   H115 3043   2.997   2.858   6.513  0.3538 -0.2413  1.9881
   25MOL   C116 3044   3.134   2.706   6.470  0.1210  0.2236 -0.1729
   25MOL   C117 3045   3.080   2.613   6.359 -0.0329 -0.4626 -0.3281
   25MOL   F118 3046   3.134   2.641   6.241  0.2342  0.0514 -0.1932
   25MOL   H119 3047   3.242   2.695   6.466 -0.0704 -1.4280 -1.1978
   25MOL   H120 3048   3.106   2.658   6.564 -1.9354 -3.1168 -2.3739
   25MOL   H121 3049   2.974   2.606   6.336  0.4357  1.5946 -3.4484
   25MOL   H122 3050   3.124   2.516   6.381  0.5888  0.1891  1.4773
   26MOL     C1 3051   7.857   7.172   1.728  0.2928  0.0790 -0.7508
   26MOL     C2 3052   7.816   7.057   1.817 -0.3642  0.1996  0.1830
   26MOL     F3 3053   7.926   6.996   1.840 -0.3775 -0.0599 -0.8485
   26MOL     H4 3054   7.885   7.120   1.637  0.6093 -2.3028  0.6611
   26MOL     H5 3055   7.951   7.215   1.762 -0.6132  1.5557 -0.0348
   26MOL     H6 3056   7.753   7.002   1.747 -0.0081 -0.2773  0.2303
   26MOL     H7 3057   7.772   7.237   1.706 -2.0631 -1.5943  2.7781
   26MOL     C8 3058   7.739   7.104   1.945  0.1727 -0.4204 -0.6799
   26MOL     C9 3059   7.814   7.191   2.046 -0.2824 -0.8251 -0.3089
   26MOL    F10 3060   7.891   7.285   1.991 -0.4189  0.0981 -0.5202
   26MOL    H11 3061   7.651   7.157   1.909  0.0919 -0.0971 -0.0146
   26MOL    H12 3062   7.703   7.021   2.007 -1.3966  0.7889  0.0557
   26MOL    H13 3063   7.887   7.122   2.089  0.9244  0.3178 -0.4793
   26MOL    C14 3064   7.720   7.244   2.156  0.2334 -0.3773  0.2377
   26MOL    C15 3065   7.794   7.309   2.268 -0.0610  0.0787  0.3287
   26MOL    F16 3066   7.707   7.366   2.343  0.0667  0.2617 -0.8072
   26MOL    H17 3067   7.651   7.319   2.119 -0.3937 -0.2658  1.5977
   26MOL    H18 3068   7.656   7.166   2.199 -1.1255  1.2148  1.1500
   26MOL    H19 3069   7.853   7.391   2.227 -0.9642 -0.2261 -1.6553
   26MOL    C20 3070   7.871   7.213   2.366  0.4026  0.1750  0.2333
   26MOL    C21 3071   7.939   7.266   2.494 -0.0677  0.4462  0.0671
   26MOL    F22 3072   7.987   7.154   2.542 -0.4384 -0.7754 -0.2625
   26MOL    H23 3073   7.798   7.135   2.388 -0.1185 -0.0269 -2.0192
   26MOL    H24 3074   7.942   7.161   2.301 -1.1757 -1.7611  0.0198
   26MOL    H25 3075   7.871   7.297   2.574 -0.6536  0.3203 -0.3791
   26MOL    C26 3076   0.034   7.385   2.484  0.4487 -0.4239 -0.2865
   26MOL    C27 3077   0.161   7.369   2.386  0.2535 -0.4951 -0.1571
   26MOL    F28 3078   0.124   7.357   2.257 -0.2276  0.0736 -0.7998
   26MOL    H29 3079   7.986   7.480   2.463  1.9013  0.1038 -1.5281
   26MOL    H30 3080   0.066   7.410   2.585 -3.0500  1.6041  0.4276
   26MOL    H31 3081   0.213   7.277   2.410  0.5300  0.0942  1.5532
   26MOL    C32 3082   0.255   7.487   2.404 -0.8888 -0.7585 -0.2711
   26MOL    C33 3083   0.388   7.495   2.329  0.3464  0.5311  0.2539
   26MOL    F34 3084   0.361   7.556   2.212  0.0516 -0.3630 -0.3793
   26MOL    H35 3085   0.202   7.580   2.384 -1.7064 -1.2567 -0.4417
   26MOL    H36 3086   0.271   7.479   2.512 -0.6091 -0.2611 -0.2759
   26MOL    H37 3087   0.418   7.393   2.308  0.1349  0.6904 -0.8760
   26MOL    C38 3088   0.492   7.584   2.397 -0.2076  0.1533  0.2640
   26MOL    C39 3089   0.554   7.536   2.528  0.4966  0.3040  0.0471
   26MOL    F40 3090   0.612   7.416   2.523 -0.1729  0.0694 -0.3067
   26MOL    H41 3091   0.571   7.579   2.322 -1.8189 -0.1961 -1.4445
   26MOL    H42 3092   0.456   7.686   2.399 -0.5557  0.0097  1.5365
   26MOL    H43 3093   0.485   7.514   2.610  0.7171  0.5276  0.2963
   26MOL    C44 3094   0.647   7.634   2.590  0.3938  0.0893 -0.6444
   26MOL    C45 3095   0.673   7.610   2.742  0.2891  0.1077 -0.5241
   26MOL    F46 3096   0.566   7.632   2.822 -0.2251 -0.4829  0.0129
   26MOL    H47 3097   0.738   7.643   2.532  0.9496  0.0546  0.2220
   26MOL    H48 3098   0.583   7.722   2.583 -1.8792 -1.4179  0.4324
   26MOL    H49 3099   0.743   7.689   2.768  1.5790 -1.2998  0.3425
   26MOL    C50 3100   0.741   7.471   2.777 -0.1228 -0.2008  0.3622
   26MOL    C51 3101   0.883   7.449   2.724 -0.0285  1.0320  0.2918
   26MOL    F52 3102   0.963   7.519   2.807 -0.0518  0.0662 -0.0096
   26MOL    H53 3103   0.745   7.465   2.886  0.6142 -2.8483  0.2328
   26MOL    H54 3104   0.668   7.392   2.758  0.6663 -0.7975 -0.2020
   26MOL    H55 3105   0.902   7.481   2.622 -1.1924  1.2329  0.1322
   26MOL    C56 3106   0.921   7.303   2.725  0.1346  0.5651 -0.3986
   26MOL    C57 3107   1.062   7.265   2.684  0.6771  0.2213 -0.5330
   26MOL    F58 3108   1.144   7.332   2.767  0.7546  0.4567 -0.1802
   26MOL    H59 3109   0.880   7.260   2.816  0.1370 -1.8099 -1.5016
   26MOL    H60 3110   0.861   7.256   2.647 -1.0886  2.2038 -0.4703
   26MOL    H61 3111   1.087   7.299   2.584 -0.5824  0.8119 -0.6531
   26MOL    C62 3112   1.090   7.114   2.695  0.7123  0.0363 -0.1564
   26MOL    C63 3113   1.020   7.034   2.586  0.1751  0.1852 -0.5295
   26MOL    F64 3114   1.093   7.053   2.471 -0.1153 -0.5202  0.0970
   26MOL    H65 3115   1.198   7.110   2.680  1.0677  3.1828  1.1263
   26MOL    H66 3116   1.082   7.070   2.795 -0.6778  0.1715 -0.2044
   26MOL    H67 3117   0.921   7.074   2.566  0.1063  0.5222  0.4597
   26MOL    C68 3118   1.007   6.878   2.614  0.2568 -0.7514  0.7449
   26MOL    C69 3119   0.911   6.843   2.725  0.0424 -0.3057  0.1697
   26MOL    F70 3120   0.790   6.890   2.695 -0.1278 -0.1561  0.2142
   26MOL    H71 3121   0.976   6.827   2.523 -1.9159  1.0399  0.4423
   26MOL    H72 3122   1.109   6.852   2.642  1.7618  1.4416 -2.3105
   26MOL    H73 3123   0.957   6.897   2.807  0.7284 -0.6260  0.0019
   26MOL    C74 3124   0.927   6.692   2.761  0.0537 -0.3178  0.1406
   26MOL    C75 3125   0.856   6.652   2.891  1.1635 -0.3000 -0.3166
   26MOL    F76 3126   0.886   6.733   2.992 -0.1806 -0.1693 -0.3050
   26MOL    H77 3127   0.897   6.625   2.681  1.9634 -1.7765  0.5932
   26MOL    H78 3128   1.030   6.660   2.779 -0.1306  0.5431  3.0218
   26MOL    H79 3129   0.902   6.556   2.915 -1.6995 -1.3069  1.4451
   26MOL    C80 3130   0.701   6.638   2.886  0.1202  0.5366  0.4726
   26MOL    C81 3131   0.655   6.534   2.998 -0.9932  0.7104  0.3274
   26MOL    F82 3132   0.529   6.561   3.030  0.2368 -0.4444 -0.0637
   26MOL    H83 3133   0.659   6.735   2.911  1.4200  0.6558  2.2392
   26MOL    H84 3134   0.664   6.611   2.787 -1.0340  0.6951  0.8451
   26MOL    H85 3135   0.715   6.553   3.087  0.3238  0.0081 -0.3909
   26MOL    C86 3136   0.667   6.375   2.962  0.2449  0.4214  0.2749
   26MOL    C87 3137   0.552   6.324   2.866 -0.4296 -0.2096 -0.7274
   26MOL    F88 3138   0.579   6.373   2.744 -0.4733 -0.0837 -0.3701
   26MOL    H89 3139   0.767   6.344   2.929  0.3898  0.6896  0.4585
   26MOL    H90 3140   0.657   6.314   3.052  0.0559 -0.2204 -0.1770
   26MOL    H91 3141   0.454   6.363   2.895 -0.4272 -0.9611  0.2756
   26MOL    C92 3142   0.539   6.175   2.867  0.8927 -0.0535  0.0085
   26MOL    C93 3143   0.671   6.096   2.827  0.8357 -0.7178  0.0717
   26MOL    F94 3144   0.763   6.095   2.921  0.2027 -0.3918  0.1246
   26MOL    H95 3145   0.514   6.145   2.969 -0.3669  0.0012 -0.2795
   26MOL    H96 3146   0.465   6.145   2.793  1.7796 -0.8794 -0.5546
   26MOL    H97 3147   0.707   6.133   2.731 -0.5528  0.0008 -0.1868
   26MOL    C98 3148   0.653   5.947   2.809  0.5341 -0.0409 -0.0298
   26MOL    C99 3149   0.778   5.879   2.745  0.0218 -0.1939  0.5429
   26MOL   F100 3150   0.797   5.753   2.780 -0.4716  0.3581 -0.0036
   26MOL   H101 3151   0.612   5.906   2.902 -1.4039 -0.0645 -0.8616
   26MOL   H102 3152   0.567   5.921   2.748  0.4575 -1.3953  0.6324
   26MOL   H103 3153   0.862   5.934   2.786  0.4131  0.8532 -1.5781
   26MOL   C104 3154   0.771   5.876   2.590 -0.2278 -0.0274  0.1443
   26MOL   C105 3155   0.895   5.812   2.525 -0.8074 -0.2146 -0.2569
   26MOL   F106 3156   0.885   5.831   2.391  0.7024  0.0208  0.5135
   26MOL   H107 3157   0.682   5.820   2.561 -0.4456 -0.0913  0.9192
   26MOL   H108 3158   0.750   5.980   2.564 -2.3952 -0.8710 -1.6236
   26MOL   H109 3159   0.897   5.704   2.543  1.8943  0.2118  2.4584
   26MOL   C110 3160   1.040   5.861   2.565 -0.0504  0.1489 -0.0719
   26MOL   C111 3161   1.065   6.009   2.533 -0.3302 -0.1971 -0.5568
   26MOL   F112 3162   1.009   6.080   2.637 -0.1936 -0.6374  0.2228
   26MOL   H113 3163   1.050   5.836   2.670  1.0413  0.9332  0.0108
   26MOL   H114 3164   1.114   5.801   2.512 -0.3133 -0.4579  0.2422
   26MOL   H115 3165   1.009   6.028   2.442  0.6232 -0.8514 -1.2935
   26MOL   C116 3166   1.211   6.030   2.507 -0.5096  0.9265 -0.3703
   26MOL   C117 3167   1.293   5.998   2.631  0.2451 -0.3956  0.1895
   26MOL   F118 3168   1.408   6.059   2.622  1.0494 -0.8056  0.2963
   26MOL   H119 3169   1.242   5.965   2.425 -0.2351  0.3967  0.1537
   26MOL   H120 3170   1.239   6.129   2.470  0.5091  1.2589  1.2632
   26MOL   H121 3171   1.316   5.891   2.638  1.5729 -0.2173 -1.1399
   26MOL   H122 3172   1.251   6.030   2.726  0.9553 -2.8009  1.3563
   27MOL     C1 3173   2.737   7.096   3.363 -0.1021 -0.2067  0.1604
   27MOL     C2 3174   2.769   7.014   3.485  0.2371  0.0186 -0.5829
   27MOL     F3 3175   2.830   7.100   3.565  0.4442  0.5536  0.0009
   27MOL     H4 3176   2.698   7.012   3.305  0.2151 -1.4026  1.6686
   27MOL     H5 3177   2.830   7.143   3.332 -1.1157  0.5139 -1.9297
   27MOL     H6 3178   2.843   6.935   3.471 -0.0260 -0.6860  1.7572
   27MOL     H7 3179   2.667   7.175   3.393  0.1674  0.6867 -1.4791
   27MOL     C8 3180   2.646   6.957   3.551 -0.0829  0.0205 -0.0865
   27MOL     C9 3181   2.556   6.860   3.469  0.6471 -0.6607 -0.1748
   27MOL    F10 3182   2.634   6.764   3.419 -0.1394 -0.1064 -0.2019
   27MOL    H11 3183   2.679   6.911   3.644  0.4974  0.1676 -0.2169
   27MOL    H12 3184   2.587   7.043   3.585 -0.5180 -0.1862 -0.3189
   27MOL    H13 3185   2.514   6.908   3.380 -0.7284 -1.1154  0.2163
   27MOL    C14 3186   2.444   6.802   3.555 -0.0469 -0.2128  0.1848
   27MOL    C15 3187   2.333   6.892   3.616  0.0318 -0.0303  0.1050
   27MOL    F16 3188   2.260   6.929   3.508  0.0679 -0.2654  0.0467
   27MOL    H17 3189   2.401   6.723   3.494 -0.4492 -0.2264  0.4820
   27MOL    H18 3190   2.497   6.738   3.626 -0.0546 -1.0284 -0.5382
   27MOL    H19 3191   2.365   6.987   3.660 -0.5724 -0.4775  1.5398
   27MOL    C20 3192   2.241   6.822   3.711 -0.4185 -0.0096  0.0435
   27MOL    C21 3193   2.297   6.799   3.853 -0.9047 -0.6162 -0.2871
   27MOL    F22 3194   2.337   6.910   3.913 -0.6159  0.4619 -0.1840
   27MOL    H23 3195   2.152   6.883   3.727  0.7308  1.2080  2.0108
   27MOL    H24 3196   2.211   6.726   3.670 -1.2313  0.1690  0.2188
   27MOL    H25 3197   2.389   6.739   3.856 -1.4766 -1.4673  0.8126
   27MOL    C26 3198   2.194   6.734   3.944 -0.3651 -0.0179  0.0226
   27MOL    C27 3199   2.245   6.649   4.059 -0.1483 -0.6909 -0.5528
   27MOL    F28 3200   2.334   6.568   4.007  0.1331  0.0690 -0.0921
   27MOL    H29 3201   2.126   6.805   3.991 -1.2861  0.6904 -2.2852
   27MOL    H30 3202   2.124   6.665   3.897 -0.5380  0.5847 -0.6127
   27MOL    H31 3203   2.172   6.593   4.118  0.7669 -1.4829 -0.1594
   27MOL    C32 3204   2.316   6.736   4.171 -0.1100  0.3264 -0.3020
   27MOL    C33 3205   2.224   6.842   4.246  0.5916  0.3226  0.1797
   27MOL    F34 3206   2.125   6.768   4.299 -0.3042  0.2123  0.3165
   27MOL    H35 3207   2.364   6.664   4.238 -1.3347 -0.0107  0.2250
   27MOL    H36 3208   2.404   6.788   4.133 -2.0897  2.0022 -2.6670
   27MOL    H37 3209   2.185   6.903   4.165  2.2004  0.3324 -0.6214
   27MOL    C38 3210   2.282   6.928   4.364 -0.2141 -0.3713  0.5146
   27MOL    C39 3211   2.412   7.002   4.329 -0.5161 -0.3095 -0.0554
   27MOL    F40 3212   2.398   7.070   4.214  0.1231 -0.6607  0.5073
   27MOL    H41 3213   2.204   7.003   4.379 -0.9666 -1.0222 -0.1458
   27MOL    H42 3214   2.295   6.864   4.452  0.1086 -1.6471 -0.4503
   27MOL    H43 3215   2.482   6.922   4.303 -0.2286  0.2460 -0.9916
   27MOL    C44 3216   2.474   7.089   4.435 -0.0965 -0.1648 -0.0801
   27MOL    C45 3217   2.622   7.125   4.417 -0.9206  0.1069 -0.2369
   27MOL    F46 3218   2.647   7.194   4.307  0.2103 -0.4074 -0.3837
   27MOL    H47 3219   2.422   7.185   4.429  0.5596  0.0821 -2.0646
   27MOL    H48 3220   2.459   7.042   4.532 -0.3870 -0.5269 -0.3036
   27MOL    H49 3221   2.688   7.038   4.412  0.3272  1.0472 -0.6012
   27MOL    C50 3222   2.674   7.211   4.528  0.0832  0.3183  0.1404
   27MOL    C51 3223   2.826   7.232   4.531  0.3283  0.5432  0.0945
   27MOL    F52 3224   2.855   7.343   4.589  0.1358  0.3241 -0.6131
   27MOL    H53 3225   2.628   7.308   4.515 -2.7215 -0.8851  0.8247
   27MOL    H54 3226   2.655   7.169   4.627  0.8324 -1.7415 -0.5578
   27MOL    H55 3227   2.858   7.238   4.427 -1.6919 -0.5947 -0.6259
   27MOL    C56 3228   2.906   7.122   4.599 -0.4497  0.4577 -0.2282
   27MOL    C57 3229   3.055   7.153   4.604 -0.3650  0.1752  0.7424
   27MOL    F58 3230   3.089   7.084   4.718  0.1989 -0.1021  0.1490
   27MOL    H59 3231   2.861   7.110   4.697  1.4944  2.6222  0.9750
   27MOL    H60 3232   2.891   7.027   4.548  0.9960  0.0756  0.0588
   27MOL    H61 3233   3.072   7.260   4.621 -1.8141  0.5652 -0.1024
   27MOL    C62 3234   3.145   7.113   4.491  0.0957  0.0709  0.1102
   27MOL    C63 3235   3.299   7.112   4.528  0.6846  0.3527  0.3216
   27MOL    F64 3236   3.363   7.032   4.447  0.6586  0.5630 -0.0173
   27MOL    H65 3237   3.117   7.011   4.464 -1.8380  0.0397  2.0612
   27MOL    H66 3238   3.123   7.172   4.402 -1.8718 -3.0296 -1.5359
   27MOL    H67 3239   3.330   7.068   4.622 -1.2350  0.9622  1.2735
   27MOL    C68 3240   3.349   7.259   4.520  0.2769  0.0650 -0.3052
   27MOL    C69 3241   3.496   7.293   4.539  0.2337  0.2887  0.1705
   27MOL    F70 3242   3.518   7.413   4.486 -0.5249  0.1310  0.0177
   27MOL    H71 3243   3.323   7.297   4.421 -0.2851 -0.4397 -0.3508
   27MOL    H72 3244   3.299   7.333   4.583  1.1725 -2.2587  3.2607
   27MOL    H73 3245   3.557   7.223   4.483 -1.5860 -1.0882 -0.1537
   27MOL    C74 3246   3.533   7.296   4.693  0.1579 -0.2016  0.6191
   27MOL    C75 3247   3.563   7.152   4.765  0.6243 -0.7700 -0.1107
   27MOL    F76 3248   3.692   7.131   4.753  0.1201 -0.8414  0.4245
   27MOL    H77 3249   3.628   7.350   4.702 -0.8605  2.0449 -1.5124
   27MOL    H78 3250   3.461   7.350   4.754  1.2881  0.1691  1.6411
   27MOL    H79 3251   3.525   7.062   4.717  0.9546  0.1552 -2.1643
   27MOL    C80 3252   3.517   7.143   4.907 -0.2909 -0.3694 -0.7821
   27MOL    C81 3253   3.586   7.232   5.020  0.3302 -0.5379 -0.0723
   27MOL    F82 3254   3.565   7.364   4.991  0.3600 -0.7047  0.3046
   27MOL    H83 3255   3.408   7.149   4.903 -0.2148  2.2901  0.1355
   27MOL    H84 3256   3.533   7.038   4.932 -0.1656 -0.4504 -1.1945
   27MOL    H85 3257   3.693   7.219   5.006  0.4395 -1.2765  1.3797
   27MOL    C86 3258   3.538   7.180   5.156  0.0029  0.5478 -0.2004
   27MOL    C87 3259   3.602   7.244   5.288  0.4126 -0.4892 -0.5497
   27MOL    F88 3260   3.528   7.206   5.394  0.0548  0.3227  0.4148
   27MOL    H89 3261   3.434   7.207   5.175 -0.5110 -0.7231 -1.1713
   27MOL    H90 3262   3.535   7.071   5.159 -2.2314  0.5829 -0.3710
   27MOL    H91 3263   3.594   7.352   5.283 -1.4971 -0.6554 -1.5080
   27MOL    C92 3264   3.739   7.181   5.308 -0.2768  0.2575  0.2928
   27MOL    C93 3265   3.821   7.233   5.431  0.4248  0.3764 -0.3222
   27MOL    F94 3266   3.911   7.146   5.448  0.2703 -0.4005  0.0714
   27MOL    H95 3267   3.738   7.072   5.298  0.2921  0.0221  2.6355
   27MOL    H96 3268   3.801   7.205   5.221  1.5799 -1.6284  1.0424
   27MOL    H97 3269   3.756   7.233   5.518 -0.8820  1.0410 -1.2712
   27MOL    C98 3270   3.890   7.363   5.396 -0.2065 -0.4378  0.2599
   27MOL    C99 3271   3.970   7.418   5.520  0.3679 -0.1189  1.1492
   27MOL   F100 3272   4.052   7.511   5.480  0.0060  0.0247 -0.0447
   27MOL   H101 3273   3.964   7.340   5.320 -0.0917 -1.1472  0.5822
   27MOL   H102 3274   3.823   7.442   5.363 -0.4718 -0.6458  0.2897
   27MOL   H103 3275   4.027   7.336   5.562  1.5745 -0.0835 -0.3947
   27MOL   C104 3276   3.886   7.488   5.634  0.0693 -0.2309  0.7362
   27MOL   C105 3277   3.964   7.520   5.762  0.7716  0.5648 -0.0206
   27MOL   F106 3278   3.896   7.602   5.837  0.5866  0.1001 -0.6928
   27MOL   H107 3279   3.837   7.579   5.599  0.1178 -0.4323  0.1385
   27MOL   H108 3280   3.796   7.427   5.649 -0.0608 -0.0277  0.7834
   27MOL   H109 3281   4.052   7.580   5.741  1.6109 -0.5328  0.3268
   27MOL   C110 3282   4.020   7.400   5.849 -0.1986 -0.1043  0.1057
   27MOL   C111 3283   3.920   7.311   5.920 -0.0822 -0.2686  0.3336
   27MOL   F112 3284   3.832   7.260   5.839  0.0666 -0.2483  0.3513
   27MOL   H113 3285   4.088   7.337   5.792  0.9258 -0.5764  1.9400
   27MOL   H114 3286   4.104   7.435   5.909  0.9687 -0.4560 -1.2862
   27MOL   H115 3287   3.857   7.369   5.989 -0.5059 -1.5708  1.0648
   27MOL   C116 3288   3.982   7.199   6.005  0.4315 -0.7617  0.1982
   27MOL   C117 3289   3.888   7.110   6.088 -0.8366 -0.5287 -1.0457
   27MOL   F118 3290   3.942   7.025   6.175  0.0838  0.0594  0.0607
   27MOL   H119 3291   4.052   7.141   5.946 -0.1473  0.3832 -1.6538
   27MOL   H120 3292   4.044   7.249   6.080 -0.4632  1.9255 -0.7749
   27MOL   H121 3293   3.827   7.046   6.024  3.1116 -2.5369 -2.9318
   27MOL   H122 3294   3.815   7.161   6.151  1.6554 -0.4325  1.8813
   28MOL     C1 3295   0.942   3.976   0.061 -0.2556  0.3917 -0.1954
   28MOL     C2 3296   0.888   3.845   0.008  0.0084  0.5352 -0.2491
   28MOL     F3 3297   0.793   3.869   7.922  0.4922  0.2708  0.3938
   28MOL     H4 3298   1.005   3.963   0.149  0.1529  0.1431 -0.5232
   28MOL     H5 3299   0.854   4.030   0.096 -0.8336  0.5422 -1.8267
   28MOL     H6 3300   0.843   3.794   0.093  1.8345  0.8677  0.9501
   28MOL     H7 3301   0.988   4.045   7.994 -2.8437  2.0600 -0.3321
   28MOL     C8 3302   0.990   3.744   7.958 -0.6534  0.4705  0.3855
   28MOL     C9 3303   1.068   3.669   0.066  0.7543 -0.1804  0.3203
   28MOL    F10 3304   0.986   3.585   0.130  0.7862 -0.6654  0.4815
   28MOL    H11 3305   0.931   3.672   7.901  0.0089  0.6066 -0.4761
   28MOL    H12 3306   1.053   3.794   7.884  1.1839 -2.7215 -0.2793
   28MOL    H13 3307   1.100   3.736   0.146  0.9574 -0.7693  0.7346
   28MOL    C14 3308   1.181   3.593   0.000 -0.6853  0.1621  0.2130
   28MOL    C15 3309   1.253   3.496   0.091  0.3920 -0.9402  0.5572
   28MOL    F16 3310   1.349   3.432   0.024 -0.0880  0.3854  0.6499
   28MOL    H17 3311   1.152   3.542   7.911  2.7568  0.5308 -1.1422
   28MOL    H18 3312   1.256   3.667   7.974  0.6009 -0.8949  0.8108
   28MOL    H19 3313   1.187   3.421   0.134 -1.1289 -0.9993 -1.7861
   28MOL    C20 3314   1.319   3.579   0.214  0.3430  1.2188 -0.0273
   28MOL    C21 3315   1.388   3.499   0.319  0.0128  0.7315  0.6362
   28MOL    F22 3316   1.427   3.596   0.406  0.0359 -0.0483  0.5822
   28MOL    H23 3317   1.391   3.643   0.164  2.6920 -2.1531 -1.1560
   28MOL    H24 3318   1.237   3.640   0.252 -0.0770  1.6068 -1.5201
   28MOL    H25 3319   1.480   3.445   0.299 -0.3552  0.2531  0.2331
   28MOL    C26 3320   1.292   3.415   0.412 -0.2721  0.5371 -0.1116
   28MOL    C27 3321   1.304   3.264   0.379  0.5935  1.0516 -0.0366
   28MOL    F28 3322   1.428   3.223   0.413 -0.0956 -0.2729  0.3082
   28MOL    H29 3323   1.317   3.430   0.518 -1.7446  0.3441  0.2700
   28MOL    H30 3324   1.190   3.446   0.390  0.2475  0.9883 -1.9278
   28MOL    H31 3325   1.290   3.259   0.271 -0.7171  3.6805 -0.0386
   28MOL    C32 3326   1.200   3.182   0.454 -0.1573  0.8300  0.2893
   28MOL    C33 3327   1.070   3.151   0.376  0.0112  0.7652  0.3147
   28MOL    F34 3328   1.089   3.103   0.256 -0.2128  0.1708 -0.1531
   28MOL    H35 3329   1.232   3.084   0.487  0.4014  0.9509  0.1035
   28MOL    H36 3330   1.177   3.237   0.545  1.2649  0.2455  1.0131
   28MOL    H37 3331   1.019   3.245   0.357 -2.1446 -0.9212 -2.5527
   28MOL    C38 3332   0.976   3.058   0.456  0.0634 -0.2331 -0.0389
   28MOL    C39 3333   0.842   3.029   0.389 -0.7973  0.2315 -0.0589
   28MOL    F40 3334   0.774   2.936   0.454 -0.0380  0.1880 -1.1253
   28MOL    H41 3335   1.037   2.968   0.468  0.0075 -0.4501 -1.3149
   28MOL    H42 3336   0.954   3.102   0.553 -1.0387  0.0181 -0.3929
   28MOL    H43 3337   0.842   3.001   0.284 -0.3326 -1.0396  0.2637
   28MOL    C44 3338   0.746   3.153   0.389 -0.3967  0.2383 -0.2865
   28MOL    C45 3339   0.609   3.127   0.324 -0.5028 -0.1192 -0.1589
   28MOL    F46 3340   0.536   3.229   0.347  0.2398  0.0871  0.1287
   28MOL    H47 3341   0.740   3.191   0.491  1.6349 -1.4236  0.5021
   28MOL    H48 3342   0.796   3.234   0.335  1.1537 -0.4987  0.0163
   28MOL    H49 3343   0.557   3.047   0.376 -2.1781  1.8183  1.2403
   28MOL    C50 3344   0.617   3.100   0.170 -0.3442  0.0625 -0.0356
   28MOL    C51 3345   0.482   3.076   0.102 -0.0416 -0.5289  0.7601
   28MOL    F52 3346   0.501   3.037   7.977 -0.1606  0.5927 -0.0813
   28MOL    H53 3347   0.662   3.187   0.123  2.0488 -0.3068  1.4282
   28MOL    H54 3348   0.683   3.014   0.156  1.0134  1.2899 -1.3700
   28MOL    H55 3349   0.426   3.170   0.094  1.5330  0.2231 -2.1842
   28MOL    C56 3350   0.389   2.966   0.161 -0.4003  0.0657 -0.2525
   28MOL    C57 3351   0.250   2.942   0.101 -0.2366  0.0928 -0.2756
   28MOL    F58 3352   0.259   2.923   7.974  0.1375  0.0459  0.2855
   28MOL    H59 3353   0.444   2.872   0.157 -0.8526 -0.1920 -0.3309
   28MOL    H60 3354   0.377   2.993   0.266  0.7802  0.0645 -0.1105
   28MOL    H61 3355   0.183   3.028   0.110  0.0872  0.3216 -0.0607
   28MOL    C62 3356   0.179   2.823   0.157  0.2052  0.5454 -0.3048
   28MOL    C63 3357   0.030   2.799   0.128 -0.2649  1.4782 -0.3664
   28MOL    F64 3358   7.970   2.917   0.142  0.2915 -0.1973  0.2325
   28MOL    H65 3359   0.231   2.731   0.131 -1.1837 -0.5187  0.5381
   28MOL    H66 3360   0.188   2.818   0.265  0.7767  1.7434 -0.2935
   28MOL    H67 3361   7.990   2.737   0.207 -0.4270  0.8412 -0.9466
   28MOL    C68 3362   0.009   2.749   7.987  0.0375 -0.1260 -0.0162
   28MOL    C69 3363   7.861   2.760   7.932  0.4646 -0.2235 -0.6086
   28MOL    F70 3364   7.838   2.890   7.915  0.8744 -0.1595  0.0884
   28MOL    H71 3365   0.082   2.785   7.915  2.2129 -0.7063  1.8427
   28MOL    H72 3366   0.036   2.644   7.988  0.1438 -0.0950  0.5899
   28MOL    H73 3367   7.790   2.720   0.002  1.6167  1.1462  1.3336
   28MOL    C74 3368   7.832   2.682   7.797  0.4856 -0.4245 -0.0931
   28MOL    C75 3369   7.844   2.528   7.805 -0.1683 -0.1096 -0.4063
   28MOL    F76 3370   7.766   2.482   7.906 -0.1529 -0.0687 -0.6375
   28MOL    H77 3371   7.729   2.705   7.766  0.7052  1.7619  0.6901
   28MOL    H78 3372   7.891   2.720   7.713  0.3555 -0.7296 -0.3246
   28MOL    H79 3373   7.942   2.498   7.844 -0.7718 -1.2556  0.2328
   28MOL    C80 3374   7.801   2.468   7.673  0.0716 -0.0376 -0.9982
   28MOL    C81 3375   7.836   2.322   7.655  0.0119 -0.3628 -1.2277
   28MOL    F82 3376   7.963   2.296   7.707  0.6957  0.2057  0.1644
   28MOL    H83 3377   7.700   2.496   7.647 -0.4337 -0.9215 -0.0176
   28MOL    H84 3378   7.855   2.522   7.595 -1.5774  0.3852 -1.8684
   28MOL    H85 3379   7.855   2.303   7.550  0.6979 -0.4815 -1.0851
   28MOL    C86 3380   7.736   2.208   7.689 -0.4261 -0.9625  0.7138
   28MOL    C87 3381   7.788   2.071   7.667 -0.3568  0.3310  0.0942
   28MOL    F88 3382   7.737   1.984   7.752 -0.1293  0.3691  0.4507
   28MOL    H89 3383   7.714   2.213   7.796  2.5358 -1.1437  1.3559
   28MOL    H90 3384   7.633   2.230   7.659 -0.2347 -0.3236  0.5293
   28MOL    H91 3385   7.894   2.069   7.689 -0.2492  0.1917 -0.4329
   28MOL    C92 3386   7.762   2.040   7.523 -0.3257  0.4954  0.6023
   28MOL    C93 3387   7.786   1.894   7.468 -0.1087 -0.4746 -0.5624
   28MOL    F94 3388   7.743   1.883   7.339 -0.5199 -0.0919 -0.4751
   28MOL    H95 3389   7.662   2.074   7.496 -0.3530  2.3094  2.8622
   28MOL    H96 3390   7.834   2.104   7.471  0.1051  0.7700  1.5308
   28MOL    H97 3391   7.719   1.827   7.523  0.8431 -0.1567  1.0133
   28MOL    C98 3392   7.931   1.839   7.471 -0.2752  0.6829  0.5958
   28MOL    C99 3393   0.047   1.915   7.408  0.0313  0.2321 -0.1476
   28MOL   F100 3394   0.087   2.009   7.499 -0.4400 -0.1021  1.0241
   28MOL   H101 3395   7.954   1.816   7.574 -1.2983 -0.8599  0.5045
   28MOL   H102 3396   7.925   1.736   7.437 -0.3069  0.6935  0.5684
   28MOL   H103 3397   0.015   1.962   7.315  0.9527 -2.3737 -1.8435
   28MOL   C104 3398   0.167   1.824   7.383 -0.8419 -0.1480  0.1528
   28MOL   C105 3399   0.156   1.747   7.250 -0.2683  0.1575 -0.4912
   28MOL   F106 3400   0.161   1.825   7.144 -0.1016  0.8781  0.3293
   28MOL   H107 3401   0.253   1.890   7.372  0.6067 -1.6900  1.8453
   28MOL   H108 3402   0.174   1.766   7.475  2.3407 -0.2106 -0.0612
   28MOL   H109 3403   0.068   1.684   7.240  1.7269 -3.1667  2.0365
   28MOL   C110 3404   0.268   1.643   7.244 -0.5607 -0.1065 -0.0749
   28MOL   C111 3405   0.279   1.547   7.126 -0.9242  0.1212  1.0938
   28MOL   F112 3406   0.394   1.488   7.136 -0.1360  0.5160 -0.2214
   28MOL   H113 3407   0.362   1.697   7.255 -1.0055  1.0428 -1.6692
   28MOL   H114 3408   0.267   1.595   7.342  1.1246  1.0112  0.5198
   28MOL   H115 3409   0.276   1.601   7.031 -0.0490 -1.7130 -0.0005
   28MOL   C116 3410   0.178   1.436   7.112  0.2287  0.3565 -0.4006
   28MOL   C117 3411   0.220   1.344   6.988 -0.1424 -0.1599  0.1569
   28MOL   F118 3412   0.251   1.418   6.883  0.2729  0.1167  0.0296
   28MOL   H119 3413   0.175   1.378   7.204  1.9799  1.1056  0.1399
   28MOL   H120 3414   0.079   1.478   7.096 -0.8127 -1.6418  0.5570
   28MOL   H121 3415   0.142   1.275   6.953 -1.0730  1.8587 -1.8904
   28MOL   H122 3416   0.313   1.294   7.013 -1.3650 -1.7540  1.6056
   29MOL     C1 3417   4.399   7.909   5.104 -0.1081  0.3554 -0.8772
   29MOL     C2 3418   4.249   7.932   5.093 -0.2197  0.5309 -0.1614
   29MOL     F3 3419   4.230   0.055   5.041 -0.3595 -0.1224  0.5488
   29MOL     H4 3420   4.428   7.813   5.146 -0.0437  0.2667 -1.1253
   29MOL     H5 3421   4.447   7.979   5.173  2.4681 -0.7720 -1.4709
   29MOL     H6 3422   4.227   7.940   5.199  1.0275 -1.1122  0.2322
   29MOL     H7 3423   4.442   7.921   5.004  0.2546  0.0736 -0.7539
   29MOL     C8 3424   4.171   7.832   5.007  0.1662  0.3005  0.6361
   29MOL     C9 3425   4.152   7.689   5.061  0.3344 -0.2363  0.3586
   29MOL    F10 3426   4.129   7.702   5.190  0.0829  0.7256  0.2499
   29MOL    H11 3427   4.070   7.871   4.997 -0.1281 -0.4006  0.8412
   29MOL    H12 3428   4.215   7.839   4.907  0.6382 -1.0580  0.7366
   29MOL    H13 3429   4.244   7.631   5.061  0.4541 -0.0598 -1.4685
   29MOL    C14 3430   4.038   7.614   4.990  0.5257  0.1620 -0.3599
   29MOL    C15 3431   4.050   7.458   4.997 -0.3031  0.3102  0.4905
   29MOL    F16 3432   3.953   7.427   5.080 -0.0203 -0.8178 -0.2907
   29MOL    H17 3433   3.951   7.654   5.042  1.2660 -0.2411  1.2296
   29MOL    H18 3434   4.024   7.644   4.886  0.4056 -0.8767 -0.6473
   29MOL    H19 3435   4.142   7.424   5.044 -1.4263 -1.1792  1.6511
   29MOL    C20 3436   4.021   7.389   4.862 -0.5093 -0.3488 -0.3242
   29MOL    C21 3437   4.115   7.425   4.741  0.2417 -0.0227 -0.4463
   29MOL    F22 3438   4.239   7.379   4.764  1.0064 -0.2016 -0.0411
   29MOL    H23 3439   4.016   7.280   4.869 -2.1064 -0.2214  0.7053
   29MOL    H24 3440   3.923   7.424   4.829 -0.0948 -1.7019 -3.1707
   29MOL    H25 3441   4.134   7.533   4.742 -0.2603  0.0606  0.7495
   29MOL    C26 3442   4.073   7.367   4.605 -0.2344 -0.0475  0.6801
   29MOL    C27 3443   4.165   7.401   4.488 -1.1764  0.6162 -0.2135
   29MOL    F28 3444   4.151   7.314   4.390  0.3712  0.1197 -0.1946
   29MOL    H29 3445   4.101   7.263   4.619 -0.3101 -0.1663 -0.0417
   29MOL    H30 3446   3.968   7.377   4.578 -0.4659  1.2675  2.0218
   29MOL    H31 3447   4.267   7.385   4.523 -0.5161  1.7230 -1.5743
   29MOL    C32 3448   4.159   7.538   4.427 -1.1106  1.0921  0.2864
   29MOL    C33 3449   4.276   7.564   4.324  0.1718  0.5227  0.1540
   29MOL    F34 3450   4.243   7.670   4.241  0.5383  0.3175 -0.3634
   29MOL    H35 3451   4.060   7.546   4.383 -1.1397  0.0873  0.1598
   29MOL    H36 3452   4.152   7.618   4.500 -1.9788  2.6917 -1.5300
   29MOL    H37 3453   4.285   7.486   4.249 -2.0407 -0.7317  1.1341
   29MOL    C38 3454   4.424   7.598   4.371 -0.3693 -1.0653 -0.2253
   29MOL    C39 3455   4.445   7.708   4.470  0.0148  0.0329  0.0810
   29MOL    F40 3456   4.368   7.676   4.577  0.4692 -0.0432  0.4922
   29MOL    H41 3457   4.477   7.509   4.404  0.4936  0.3376  2.2940
   29MOL    H42 3458   4.478   7.635   4.284 -1.1388  1.7179  0.4399
   29MOL    H43 3459   4.401   7.800   4.431  1.1663 -0.3919 -2.3229
   29MOL    C44 3460   4.594   7.718   4.516  0.2826  0.0590 -0.2366
   29MOL    C45 3461   4.617   7.823   4.631 -0.3615 -0.2565  0.5120
   29MOL    F46 3462   4.539   7.801   4.744  0.1069 -0.0661  0.5763
   29MOL    H47 3463   4.623   7.622   4.558 -1.1728 -0.7129 -0.9434
   29MOL    H48 3464   4.647   7.749   4.426 -1.1969 -0.7286 -1.4083
   29MOL    H49 3465   4.600   7.927   4.602  2.3684 -0.3624 -1.6650
   29MOL    C50 3466   4.758   7.824   4.689 -0.2607  0.0168  0.2402
   29MOL    C51 3467   4.867   7.867   4.598 -0.1722  0.4853 -0.1024
   29MOL    F52 3468   4.843   7.991   4.572  0.0240 -0.1199  0.2067
   29MOL    H53 3469   4.763   7.876   4.785  0.3490 -1.4636  1.0365
   29MOL    H54 3470   4.772   7.718   4.712 -0.6285 -0.1005 -0.0665
   29MOL    H55 3471   4.864   7.812   4.504 -0.7664  1.1677 -0.4816
   29MOL    C56 3472   5.004   7.871   4.668 -0.4399  0.1627  0.3553
   29MOL    C57 3473   5.112   7.924   4.562 -0.1455  0.0387  0.3650
   29MOL    F58 3474   5.085   0.042   4.528  0.0560 -0.2659  0.0858
   29MOL    H59 3475   5.001   7.929   4.760  0.0745 -0.0392  0.4960
   29MOL    H60 3476   5.027   7.769   4.696 -3.0000 -0.1813  1.3439
   29MOL    H61 3477   5.105   7.865   4.470  0.1246 -0.2490  0.5283
   29MOL    C62 3478   5.264   7.913   4.610 -0.6017 -0.3014 -0.4719
   29MOL    C63 3479   5.373   7.959   4.513 -0.8987  0.7099  0.1365
   29MOL    F64 3480   5.341   0.086   4.489  0.5953  0.1225  0.1617
   29MOL    H65 3481   5.271   7.973   4.701 -0.5941 -0.2108 -0.5332
   29MOL    H66 3482   5.295   7.811   4.632 -1.0449 -1.0140 -3.0714
   29MOL    H67 3483   5.351   7.914   4.416  0.5614  1.8823 -0.7542
   29MOL    C68 3484   5.519   7.942   4.555 -0.0087 -0.0939  0.3162
   29MOL    C69 3485   5.617   7.967   4.441 -0.3382  0.3723  0.3577
   29MOL    F70 3486   5.740   7.962   4.495  0.2693 -0.3322 -0.5596
   29MOL    H71 3487   5.543   0.015   4.630  1.3612 -1.1256  0.9483
   29MOL    H72 3488   5.538   7.847   4.605  0.7432 -0.5789 -0.8823
   29MOL    H73 3489   5.595   0.064   4.404 -2.4379 -0.0771  0.3255
   29MOL    C74 3490   5.615   7.860   4.322 -0.2948 -0.2226 -0.8064
   29MOL    C75 3491   5.740   7.862   4.237 -0.1358  0.1110  0.3676
   29MOL    F76 3492   5.736   7.766   4.142 -0.1955  0.0725 -0.4373
   29MOL    H77 3493   5.600   7.757   4.356  0.6385  0.3414  1.4179
   29MOL    H78 3494   5.528   7.885   4.261  1.6346  2.7499 -2.4434
   29MOL    H79 3495   5.824   7.843   4.304  2.8803  4.5943 -1.8548
   29MOL    C80 3496   5.755   7.998   4.165  0.4154 -0.4880  0.6184
   29MOL    C81 3497   5.887   0.001   4.083 -0.2948  0.3154 -0.7156
   29MOL    F82 3498   5.888   0.126   4.040 -0.4213  0.2095 -0.9270
   29MOL    H83 3499   5.676   0.012   4.092  0.1602  1.5652  1.3560
   29MOL    H84 3500   5.754   0.073   4.241 -1.2246 -0.4888  0.6161
   29MOL    H85 3501   5.861   7.944   3.995  0.1608 -0.1431 -0.5406
   29MOL    C86 3502   6.020   7.969   4.150  0.6033 -0.3705 -0.2970
   29MOL    C87 3503   6.144   7.964   4.051 -0.5900 -0.6469 -0.2320
   29MOL    F88 3504   6.263   7.961   4.113 -0.4171 -0.5304 -0.6057
   29MOL    H89 3505   6.037   0.044   4.224 -0.4010  1.1058 -1.5936
   29MOL    H90 3506   6.014   7.873   4.202 -0.4954 -0.3258 -0.3204
   29MOL    H91 3507   6.147   0.059   4.003  2.0953 -0.3394  0.4777
   29MOL    C92 3508   6.141   7.856   3.941 -0.6175 -0.2404 -0.0661
   29MOL    C93 3509   6.162   7.713   3.986 -0.2393 -0.3368  0.0233
   29MOL    F94 3510   6.083   7.686   4.089  0.1336  0.5741  0.2036
   29MOL    H95 3511   6.044   7.844   3.893 -1.8515 -0.0714  2.3255
   29MOL    H96 3512   6.218   7.872   3.865  0.3080 -1.7447  0.5075
   29MOL    H97 3513   6.263   7.719   4.027  0.1499 -1.2869 -0.7809
   29MOL    C98 3514   6.170   7.606   3.869 -0.5264 -0.3339 -0.7215
   29MOL    C99 3515   6.227   7.468   3.910 -0.2679  0.2053  0.6281
   29MOL   F100 3516   6.143   7.410   3.994  0.0596  0.0545 -0.3012
   29MOL   H101 3517   6.075   7.592   3.819 -0.0417 -1.7952 -1.2452
   29MOL   H102 3518   6.221   7.643   3.780 -1.3533 -0.2178 -1.1509
   29MOL   H103 3519   6.325   7.473   3.958 -0.3262 -0.3603  0.8045
   29MOL   C104 3520   6.252   7.367   3.792  0.4150  0.4476  0.4635
   29MOL   C105 3521   6.118   7.338   3.712 -0.6970  0.1058 -0.2369
   29MOL   F106 3522   6.100   7.449   3.635 -0.1533  0.1019  0.4223
   29MOL   H107 3523   6.317   7.417   3.720 -0.2121 -1.0544 -1.1928
   29MOL   H108 3524   6.301   7.282   3.840  0.7231  1.6130  2.2828
   29MOL   H109 3525   6.036   7.349   3.783 -0.1816  0.0502  0.3679
   29MOL   C110 3526   6.120   7.204   3.648  0.6000 -0.6136  0.7267
   29MOL   C111 3527   6.225   7.194   3.526  0.1884  0.3172 -0.5622
   29MOL   F112 3528   6.343   7.167   3.580 -0.2926  0.2968  0.3058
   29MOL   H113 3529   6.137   7.127   3.723  0.3230 -1.5269 -0.1365
   29MOL   H114 3530   6.020   7.181   3.611  0.6822 -0.0775  0.1695
   29MOL   H115 3531   6.226   7.294   3.484 -1.0481  0.9647  0.8867
   29MOL   C116 3532   6.186   7.085   3.418 -0.8721 -0.7572 -1.2078
   29MOL   C117 3533   6.275   7.086   3.294 -0.5264  0.5008 -0.0165
   29MOL   F118 3534   6.252   6.987   3.209 -0.0416 -0.3180  0.2464
   29MOL   H119 3535   6.191   6.990   3.472 -1.4851 -0.3084 -0.3634
   29MOL   H120 3536   6.090   7.101   3.369 -0.3687  1.7644 -1.4293
   29MOL   H121 3537   6.379   7.081   3.329 -1.2191  1.0874  2.2051
   29MOL   H122 3538   6.263   7.178   3.237  0.1033  0.5367 -0.1015
   30MOL     C1 3539   7.849   4.176   2.038 -0.0089 -0.9320 -0.0447
   30MOL     C2 3540   7.749   4.058   2.026  0.4374 -0.0345  0.4044
   30MOL     F3 3541   7.628   4.100   1.995 -0.2183  0.2034 -0.5239
   30MOL     H4 3542   7.870   4.224   1.942 -2.1945  0.2878  0.0406
   30MOL     H5 3543   7.945   4.151   2.083 -0.3649  0.5844  1.6256
   30MOL     H6 3544   7.737   4.016   2.126 -1.7891  0.4815  0.3774
   30MOL     H7 3545   7.818   4.267   2.091  1.3737  0.4172 -1.4831
   30MOL     C8 3546   7.799   3.951   1.929  0.1735 -0.3615 -0.0582
   30MOL     C9 3547   7.931   3.893   1.976 -0.2835  0.4641 -0.2700
   30MOL    F10 3548   7.916   3.825   2.088  0.5282  0.2661  0.1377
   30MOL    H11 3549   7.728   3.870   1.917  1.2990 -1.3057 -0.4935
   30MOL    H12 3550   7.810   3.991   1.828 -1.6433  0.7871  0.1812
   30MOL    H13 3551   7.993   3.979   2.002 -1.7215  1.3673  0.2118
   30MOL    C14 3552   7.994   3.793   1.874  0.3311 -0.4819  0.5117
   30MOL    C15 3553   0.051   3.860   1.757 -0.2144 -0.1959 -0.5581
   30MOL    F16 3554   0.130   3.947   1.811 -0.3092 -0.0546 -0.2767
   30MOL    H17 3555   0.067   3.739   1.932  1.0829  0.9873  0.9050
   30MOL    H18 3556   7.914   3.727   1.839  1.9295 -1.7373 -0.8672
   30MOL    H19 3557   7.978   3.914   1.700 -0.4305  0.3567  0.2504
   30MOL    C20 3558   0.112   3.759   1.665 -0.0439 -0.6119 -0.1628
   30MOL    C21 3559   0.182   3.812   1.535 -0.4117  0.9197 -0.5743
   30MOL    F22 3560   0.240   3.705   1.485 -0.5483  0.3782  0.1280
   30MOL    H23 3561   0.188   3.695   1.711 -0.1970 -1.0199 -0.4717
   30MOL    H24 3562   0.041   3.682   1.633  0.5334 -0.4265 -1.9051
   30MOL    H25 3563   0.256   3.885   1.567 -0.3166  0.1333  1.0352
   30MOL    C26 3564   0.100   3.851   1.414  0.4432 -1.1565 -0.0425
   30MOL    C27 3565   0.175   3.886   1.290 -0.4297 -0.7962  0.7171
   30MOL    F28 3566   0.220   3.775   1.239  0.4682  0.0414  0.5493
   30MOL    H29 3567   0.035   3.770   1.382 -0.0001 -1.4492  1.5475
   30MOL    H30 3568   0.033   3.936   1.430  1.0593 -1.3129  4.1259
   30MOL    H31 3569   0.262   3.939   1.327 -0.0503  0.6546 -2.1054
   30MOL    C32 3570   0.092   3.969   1.183  0.0398 -0.1993 -0.0841
   30MOL    C33 3571   0.161   3.975   1.042  0.0022  0.4249 -0.1897
   30MOL    F34 3572   0.079   4.041   0.967 -0.2913  0.1465  0.2550
   30MOL    H35 3573   8.000   3.916   1.173 -1.1414  1.8855 -0.1280
   30MOL    H36 3574   0.070   4.064   1.231 -1.0491 -1.0031  1.0352
   30MOL    H37 3575   0.165   3.876   0.995  0.2221  0.8107 -0.9973
   30MOL    C38 3576   0.305   4.034   1.041 -0.9127 -1.1015  0.4110
   30MOL    C39 3577   0.379   4.027   0.908  0.2823 -0.2244  0.2853
   30MOL    F40 3578   0.499   4.089   0.921  0.6303  0.1228 -0.5489
   30MOL    H41 3579   0.311   4.133   1.086 -0.4064 -1.2062  0.5699
   30MOL    H42 3580   0.370   3.975   1.105 -2.0587 -2.2973  0.4946
   30MOL    H43 3581   0.335   4.091   0.832  0.1542 -0.4482  0.1725
   30MOL    C44 3582   0.397   3.893   0.836  0.2034  0.0077  0.1395
   30MOL    C45 3583   0.458   3.786   0.927 -0.8448  0.2136  0.3776
   30MOL    F46 3584   0.444   3.673   0.861 -0.0820 -0.0623 -0.0813
   30MOL    H47 3585   0.300   3.855   0.802  0.0004  0.4104  0.2635
   30MOL    H48 3586   0.459   3.915   0.749 -0.5801  2.4278  0.1744
   30MOL    H49 3587   0.405   3.761   1.018  1.2949  0.9516  1.8667
   30MOL    C50 3588   0.613   3.805   0.959  0.0795  1.2532 -0.2296
   30MOL    C51 3589   0.670   3.681   1.035  0.9184  0.7924 -0.2945
   30MOL    F52 3590   0.796   3.703   1.046  0.2479 -0.1606 -0.1705
   30MOL    H53 3591   0.664   3.812   0.863 -1.6300  0.3850 -1.2114
   30MOL    H54 3592   0.628   3.896   1.017 -2.1857 -0.0173  2.4459
   30MOL    H55 3593   0.651   3.600   0.965 -1.9036  2.8859 -2.0348
   30MOL    C56 3594   0.613   3.653   1.181 -0.2084  0.0907 -0.3891
   30MOL    C57 3595   0.645   3.765   1.283 -0.4242  0.0753 -0.3959
   30MOL    F58 3596   0.565   3.865   1.250  0.2758  0.2169  0.4554
   30MOL    H59 3597   0.505   3.639   1.181 -0.0228 -1.5777  1.7558
   30MOL    H60 3598   0.668   3.567   1.221 -0.2778  1.2514  2.2753
   30MOL    H61 3599   0.748   3.802   1.277 -0.5576  0.3392 -1.0209
   30MOL    C62 3600   0.618   3.714   1.424  0.8269 -1.0637 -0.2651
   30MOL    C63 3601   0.647   3.821   1.540 -0.2932  0.1139 -0.3420
   30MOL    F64 3602   0.550   3.907   1.546 -0.3252  0.2379 -0.3008
   30MOL    H65 3603   0.514   3.679   1.425  0.5424 -0.3030  1.8083
   30MOL    H66 3604   0.676   3.624   1.444  1.2025 -0.2961  2.3073
   30MOL    H67 3605   0.732   3.888   1.527 -0.8944  1.3199  1.5834
   30MOL    C68 3606   0.664   3.762   1.678  0.3572  0.0609  1.0899
   30MOL    C69 3607   0.549   3.667   1.713 -0.3474 -0.4871  0.5364
   30MOL    F70 3608   0.585   3.549   1.661 -0.2325 -0.6271 -0.1267
   30MOL    H71 3609   0.758   3.707   1.688  0.3202 -0.5708 -1.6192
   30MOL    H72 3610   0.674   3.844   1.748  1.8380 -1.1594  2.3641
   30MOL    H73 3611   0.458   3.698   1.662 -0.9884 -1.5008  1.0761
   30MOL    C74 3612   0.524   3.647   1.863 -0.6038  0.1026  0.0058
   30MOL    C75 3613   0.457   3.772   1.933 -0.3607 -0.4528 -0.6261
   30MOL    F76 3614   0.332   3.776   1.895  0.4308 -0.6605  0.3998
   30MOL    H77 3615   0.458   3.561   1.856  0.2457 -0.3736 -2.6399
   30MOL    H78 3616   0.625   3.626   1.899 -0.2347  0.2234 -0.9388
   30MOL    H79 3617   0.498   3.863   1.891  1.0278  0.8182  3.2886
   30MOL    C80 3618   0.480   3.783   2.089 -0.0756  0.2951  0.1619
   30MOL    C81 3619   0.626   3.791   2.148  0.6254 -0.8880 -0.4206
   30MOL    F82 3620   0.687   3.887   2.075 -0.7615  0.0988  0.3995
   30MOL    H83 3621   0.414   3.863   2.123 -2.7153  0.4164 -4.8357
   30MOL    H84 3622   0.435   3.691   2.126 -1.7856  1.3758  0.8182
   30MOL    H85 3623   0.685   3.700   2.136  0.5068 -1.3761  2.4318
   30MOL    C86 3624   0.635   3.822   2.297  0.0600  0.5009 -0.2545
   30MOL    C87 3625   0.574   3.715   2.393 -0.3965  0.3784  0.2298
   30MOL    F88 3626   0.606   3.587   2.362 -0.2628 -0.2666 -0.1806
   30MOL    H89 3627   0.742   3.820   2.317  0.2504  0.3242 -1.2345
   30MOL    H90 3628   0.595   3.918   2.328 -0.2997 -0.3675  2.0500
   30MOL    H91 3629   0.467   3.718   2.372 -0.0121  0.2796 -1.9035
   30MOL    C92 3630   0.615   3.747   2.539  0.5755 -0.1469  0.0377
   30MOL    C93 3631   0.569   3.653   2.651  0.7225 -0.7026  0.3306
   30MOL    F94 3632   0.613   3.698   2.769  0.1281  0.0962  0.1894
   30MOL    H95 3633   0.724   3.750   2.540  0.5831 -0.4857  0.6112
   30MOL    H96 3634   0.590   3.849   2.567  0.7208  0.3639 -1.6513
   30MOL    H97 3635   0.609   3.551   2.645 -2.5954 -2.0330 -0.0729
   30MOL    C98 3636   0.415   3.652   2.668 -0.2547  0.5798  0.0029
   30MOL    C99 3637   0.364   3.571   2.783  0.5690  0.0210 -0.2419
   30MOL   F100 3638   0.244   3.626   2.819 -0.4262  0.8367 -0.1345
   30MOL   H101 3639   0.385   3.757   2.675 -2.2623 -0.0588  1.2548
   30MOL   H102 3640   0.373   3.610   2.577 -0.5670  1.5888 -0.3217
   30MOL   H103 3641   0.424   3.593   2.871 -0.8561  2.0116  0.2692
   30MOL   C104 3642   0.338   3.423   2.762 -0.5687  0.4718 -0.1504
   30MOL   C105 3643   0.280   3.348   2.876 -0.0407 -0.1484 -0.1954
   30MOL   F106 3644   0.159   3.391   2.902 -0.3023 -0.5430  0.2931
   30MOL   H107 3645   0.279   3.399   2.673 -0.3795 -0.2340 -0.0855
   30MOL   H108 3646   0.435   3.378   2.742  1.1716  3.3698  1.4868
   30MOL   H109 3647   0.333   3.373   2.968  0.9232  0.7740 -0.9844
   30MOL   C110 3648   0.297   3.194   2.866  0.2543  0.3316 -0.1286
   30MOL   C111 3649   0.255   3.115   2.987 -0.2056 -0.0649 -0.2529
   30MOL   F112 3650   0.123   3.151   3.012  0.3830  0.6268 -0.5677
   30MOL   H113 3651   0.225   3.170   2.788 -2.2452  2.4246  1.4459
   30MOL   H114 3652   0.397   3.158   2.841 -0.5662  0.2932 -3.6555
   30MOL   H115 3653   0.315   3.140   3.074  0.7747  0.6604 -1.1190
   30MOL   C116 3654   0.262   2.962   2.961  0.1750 -0.0549 -0.3111
   30MOL   C117 3655   0.190   2.864   3.056  0.4633 -0.4349  0.1317
   30MOL   F118 3656   0.230   2.746   3.003 -0.2169 -0.4880  0.4731
   30MOL   H119 3657   0.209   2.937   2.869 -0.0852 -2.2751  0.4041
   30MOL   H120 3658   0.364   2.926   2.953  0.8922  1.7775  0.2232
   30MOL   H121 3659   0.082   2.873   3.060  0.3150 -0.9330 -2.0117
   30MOL   H122 3660   0.231   2.863   3.157 -0.3247 -0.8937  0.4528
   31MOL     C1 3661   7.087   4.777   6.688  0.4318  0.0427  0.2519
   31MOL     C2 3662   6.969   4.859   6.749 -0.0768  0.5885 -0.3059
   31MOL     F3 3663   6.861   4.781   6.742 -0.1137 -0.6414  0.3327
   31MOL     H4 3664   7.184   4.820   6.714 -0.5432  1.8491  0.9834
   31MOL     H5 3665   7.081   4.757   6.581  0.5270  2.8106 -0.2999
   31MOL     H6 3666   6.964   4.939   6.676  0.9473  0.8210 -0.1315
   31MOL     H7 3667   7.090   4.679   6.735 -0.9331  1.0784  2.5914
   31MOL     C8 3668   6.993   4.915   6.894  0.9969  0.8013  0.3019
   31MOL     C9 3669   7.109   5.007   6.916 -0.3056  0.0718 -0.5226
   31MOL    F10 3670   7.107   5.092   6.817  0.6695 -1.2476 -0.2138
   31MOL    H11 3671   6.896   4.952   6.927 -1.3047 -3.6665 -1.0218
   31MOL    H12 3672   7.000   4.829   6.961 -0.9181  0.8066  0.5409
   31MOL    H13 3673   7.202   4.949   6.919  0.1002  0.7522  0.2031
   31MOL    C14 3674   7.077   5.085   7.042  0.2201 -0.2391  0.5504
   31MOL    C15 3675   7.198   5.174   7.083 -0.0394  0.6755 -0.1337
   31MOL    F16 3676   7.195   5.282   7.003 -0.4446  0.6637  0.2421
   31MOL    H17 3677   6.992   5.151   7.027  0.5127 -0.2534 -1.3067
   31MOL    H18 3678   7.051   5.032   7.133 -0.2778  0.4766  0.8209
   31MOL    H19 3679   7.289   5.117   7.066  0.5258  1.7402 -0.7293
   31MOL    C20 3680   7.196   5.221   7.228 -0.7077 -0.5713  0.2292
   31MOL    C21 3681   7.244   5.120   7.328 -0.3058  0.2690  0.8931
   31MOL    F22 3682   7.375   5.099   7.308  1.0509  0.1165 -0.6589
   31MOL    H23 3683   7.253   5.313   7.241 -1.3545 -0.2885  1.1353
   31MOL    H24 3684   7.094   5.255   7.246 -1.2354 -0.8075 -2.1296
   31MOL    H25 3685   7.198   5.025   7.302 -0.3449  0.3396  0.7023
   31MOL    C26 3686   7.225   5.148   7.482 -0.7091 -0.1941 -0.2844
   31MOL    C27 3687   7.278   5.032   7.575  0.6217 -0.2084  0.9743
   31MOL    F28 3688   7.258   5.064   7.697 -0.1063 -0.7582 -0.5408
   31MOL    H29 3689   7.285   5.238   7.497 -0.6990  0.1600 -2.3818
   31MOL    H30 3690   7.123   5.174   7.510 -0.5845  2.1031 -1.9151
   31MOL    H31 3691   7.387   5.026   7.575  0.6008 -0.7321  1.3494
   31MOL    C32 3692   7.215   4.891   7.561 -0.0786  0.0162 -0.3056
   31MOL    C33 3693   7.069   4.890   7.612  0.4203 -0.6782 -0.0016
   31MOL    F34 3694   7.003   4.956   7.524  0.2606  0.2106  0.4437
   31MOL    H35 3695   7.212   4.868   7.454  0.3085  0.4936 -0.4220
   31MOL    H36 3696   7.274   4.814   7.611 -0.1339 -0.3326 -0.7734
   31MOL    H37 3697   7.061   4.933   7.712 -1.4519  0.8633 -0.7816
   31MOL    C38 3698   7.013   4.747   7.618  0.1276  0.5506  0.0254
   31MOL    C39 3699   6.877   4.721   7.693 -0.3759 -0.4373 -0.1174
   31MOL    F40 3700   6.884   4.760   7.820 -0.6534  0.0432  0.4670
   31MOL    H41 3701   7.001   4.711   7.516  2.5398 -2.2865  0.6775
   31MOL    H42 3702   7.089   4.686   7.667  0.1927  0.0939 -0.6421
   31MOL    H43 3703   6.864   4.613   7.698  1.8613 -0.6479  1.8556
   31MOL    C44 3704   6.755   4.800   7.625 -0.1084  0.1088 -0.1902
   31MOL    C45 3705   6.619   4.759   7.680 -0.5915 -0.0710  0.2700
   31MOL    F46 3706   6.528   4.852   7.636 -0.0946  0.4170  0.3077
   31MOL    H47 3707   6.777   4.901   7.658  0.8875 -0.0523 -0.3269
   31MOL    H48 3708   6.764   4.796   7.516  0.3318 -1.3687 -0.1248
   31MOL    H49 3709   6.616   4.771   7.789  0.2579 -1.9149  0.5204
   31MOL    C50 3710   6.586   4.622   7.625 -0.2344  0.1998  0.3593
   31MOL    C51 3711   6.445   4.560   7.654 -0.3913 -0.2882 -0.4685
   31MOL    F52 3712   6.364   4.591   7.550 -0.1510  0.1614  0.5635
   31MOL    H53 3713   6.587   4.634   7.516  0.4165  0.9405  0.4503
   31MOL    H54 3714   6.656   4.542   7.647 -1.5451 -1.1501 -0.2148
   31MOL    H55 3715   6.412   4.625   7.735  0.8421  0.3679 -0.4798
   31MOL    C56 3716   6.433   4.407   7.683 -0.1259 -0.3283 -0.1327
   31MOL    C57 3717   6.309   4.374   7.761  0.0161 -0.1368  0.3719
   31MOL    F58 3718   6.208   4.416   7.686  0.0479 -0.5484  0.0727
   31MOL    H59 3719   6.424   4.351   7.590  1.4639 -0.8239  0.0072
   31MOL    H60 3720   6.525   4.373   7.730  1.0471  1.0400 -1.3822
   31MOL    H61 3721   6.308   4.439   7.848  1.4781  1.1620 -0.5703
   31MOL    C62 3722   6.290   4.231   7.807  0.2288  0.6956  0.1622
   31MOL    C63 3723   6.157   4.208   7.879  0.2565 -1.0508  1.1143
   31MOL    F64 3724   6.060   4.220   7.788 -0.1650 -0.8451  0.1594
   31MOL    H65 3725   6.302   4.150   7.735 -0.9283 -1.1175  1.9404
   31MOL    H66 3726   6.365   4.204   7.881  0.9974 -2.9589 -1.7874
   31MOL    H67 3727   6.138   4.303   7.929 -0.6286 -0.3801 -0.4768
   31MOL    C68 3728   6.136   4.084   7.960 -0.3101 -0.3184  0.1044
   31MOL    C69 3729   5.999   4.057   0.023  0.0578  0.3568 -0.7663
   31MOL    F70 3730   6.014   3.949   0.103  0.0428  0.3380 -0.1977
   31MOL    H71 3731   6.156   3.996   7.900 -2.3672 -1.9208  1.7171
   31MOL    H72 3732   6.210   4.082   0.038 -1.3760  0.9061  1.1194
   31MOL    H73 3733   5.924   4.028   7.953 -0.2359 -1.3317  0.2105
   31MOL    C74 3734   5.945   4.168   0.108 -0.0793  0.0648 -0.1036
   31MOL    C75 3735   5.808   4.135   0.173  0.1875 -0.0402 -0.1859
   31MOL    F76 3736   5.804   4.015   0.231  0.0507 -0.1785 -0.1954
   31MOL    H77 3737   6.020   4.177   0.187 -2.3505 -0.3480  2.1765
   31MOL    H78 3738   5.927   4.257   0.048  0.0385 -0.9498 -1.6672
   31MOL    H79 3739   5.742   4.135   0.086  0.0642  2.9421 -0.1351
   31MOL    C80 3740   5.756   4.236   0.277  0.8715 -0.1025  0.1459
   31MOL    C81 3741   5.604   4.258   0.294 -0.5924  0.1542  0.1624
   31MOL    F82 3742   5.548   4.142   0.317 -0.4384 -0.5054  0.2127
   31MOL    H83 3743   5.805   4.223   0.374  0.1849  0.3343  0.5543
   31MOL    H84 3744   5.798   4.331   0.245  1.4317 -0.4157 -0.0617
   31MOL    H85 3745   5.566   4.281   0.194  0.4009 -0.4802 -0.3684
   31MOL    C86 3746   5.564   4.372   0.394 -0.0174  0.6291 -0.0995
   31MOL    C87 3747   5.615   4.501   0.358 -0.6448 -0.4836 -0.5035
   31MOL    F88 3748   5.595   4.524   0.225  0.6312  0.1993  0.4126
   31MOL    H89 3749   5.455   4.370   0.386 -0.1472  2.8327  0.5735
   31MOL    H90 3750   5.595   4.350   0.496  0.6024  0.1439 -0.3887
   31MOL    H91 3751   5.723   4.511   0.371 -0.8836 -0.1037  1.4214
   31MOL    C92 3752   5.553   4.616   0.436  0.2203  0.0061 -0.0393
   31MOL    C93 3753   5.586   4.624   0.582 -0.0586 -0.3309  0.2873
   31MOL    F94 3754   5.714   4.641   0.576 -0.5652  0.4411  0.1300
   31MOL    H95 3755   5.588   4.707   0.387  1.8480 -0.0551  0.9653
   31MOL    H96 3756   5.447   4.613   0.411 -0.1876  1.3457  1.4911
   31MOL    H97 3757   5.559   4.531   0.633  1.2437 -0.6354  0.4288
   31MOL    C98 3758   5.521   4.734   0.661 -0.6409 -0.0765 -0.1049
   31MOL    C99 3759   5.374   4.715   0.699  0.1863  0.1336 -0.4269
   31MOL   F100 3760   5.364   4.587   0.739 -0.0562 -0.3480  0.0447
   31MOL   H101 3761   5.576   4.747   0.755 -2.5647  0.4603  0.9803
   31MOL   H102 3762   5.533   4.828   0.607 -0.8920 -0.5825 -1.0368
   31MOL   H103 3763   5.303   4.707   0.616 -0.6423  0.1659  0.2719
   31MOL   C104 3764   5.335   4.809   0.818  0.9980  0.0794  0.4407
   31MOL   C105 3765   5.303   4.956   0.779 -0.6389  0.1454  0.3836
   31MOL   F106 3766   5.213   4.953   0.680  0.1274 -0.4195  0.1739
   31MOL   H107 3767   5.245   4.766   0.863  1.5127 -1.8081 -0.3160
   31MOL   H108 3768   5.415   4.812   0.893  0.3712 -1.4479  1.2015
   31MOL   H109 3769   5.391   5.007   0.739 -0.9145 -0.4342 -1.0115
   31MOL   C110 3770   5.256   5.054   0.894 -0.4277 -0.2228 -0.0851
   31MOL   C111 3771   5.254   5.205   0.849 -0.6035  0.7777  0.5358
   31MOL   F112 3772   5.193   5.221   0.737  0.0459  0.1546  0.2597
   31MOL   H113 3773   5.163   5.016   0.937  0.1394  0.6525  1.9480
   31MOL   H114 3774   5.326   5.054   0.977  0.4896  1.2253 -0.8313
   31MOL   H115 3775   5.349   5.257   0.833  0.1594 -0.7832 -0.1341
   31MOL   C116 3776   5.188   5.282   0.968  0.4102  0.1860  0.1202
   31MOL   C117 3777   5.170   5.431   0.938  0.3225 -0.2247 -0.3058
   31MOL   F118 3778   5.289   5.491   0.938 -0.7573  0.7837  0.3698
   31MOL   H119 3779   5.093   5.243   1.003  1.4787 -1.3438  1.3938
   31MOL   H120 3780   5.262   5.261   1.045 -0.2842 -0.5474  0.5918
   31MOL   H121 3781   5.110   5.483   1.013 -0.1497  0.2641 -1.0175
   31MOL   H122 3782   5.127   5.449   0.839 -0.1219  0.7232  0.0520
   32MOL     C1 3783   5.698   3.259   1.324  0.5310 -0.1671 -0.2961
   32MOL     C2 3784   5.559   3.197   1.341 -0.4308 -0.2331 -0.3884
   32MOL     F3 3785   5.502   3.279   1.432 -0.1682  0.3857 -0.9317
   32MOL     H4 3786   5.751   3.223   1.236 -0.8733 -0.6366 -0.9538
   32MOL     H5 3787   5.758   3.245   1.414  0.2523  1.7269  0.2148
   32MOL     H6 3788   5.573   3.098   1.384  1.0463 -0.1135 -0.5581
   32MOL     H7 3789   5.682   3.364   1.297 -1.4126 -0.8352 -1.8641
   32MOL     C8 3790   5.476   3.201   1.218  0.0372  0.3097 -0.1184
   32MOL     C9 3791   5.332   3.137   1.238 -0.1743 -0.3045 -0.8280
   32MOL    F10 3792   5.343   3.021   1.301  0.3118  0.1575  0.5682
   32MOL    H11 3793   5.464   3.303   1.181 -2.7321  0.0409 -0.0752
   32MOL    H12 3794   5.521   3.134   1.145 -0.2681  0.3493 -0.3474
   32MOL    H13 3795   5.277   3.117   1.146  0.8693 -0.9001 -1.3345
   32MOL    C14 3796   5.233   3.214   1.324  0.5700  0.3454 -0.1359
   32MOL    C15 3797   5.203   3.360   1.288  0.3238 -0.3198  1.0154
   32MOL    F16 3798   5.161   3.359   1.160  0.5143  0.0017  0.3247
   32MOL    H17 3799   5.142   3.156   1.339  0.0187  1.4188  0.7618
   32MOL    H18 3800   5.270   3.220   1.427  1.1820  0.9837 -0.3914
   32MOL    H19 3801   5.292   3.419   1.310  0.3933 -0.2827  0.6403
   32MOL    C20 3802   5.086   3.411   1.370  0.2082 -0.6920 -0.2376
   32MOL    C21 3803   5.100   3.422   1.523 -0.0858 -0.4358 -0.6512
   32MOL    F22 3804   5.194   3.514   1.552  0.7533 -0.0427  0.1001
   32MOL    H23 3805   5.069   3.512   1.334 -0.8079 -0.5932  0.4975
   32MOL    H24 3806   4.998   3.351   1.350  0.7599 -1.0303 -1.7318
   32MOL    H25 3807   5.134   3.327   1.566 -0.8159  0.5961  2.3104
   32MOL    C26 3808   4.976   3.470   1.592  0.2642 -0.1316 -0.7629
   32MOL    C27 3809   4.976   3.466   1.744 -0.8408 -0.4792  0.3471
   32MOL    F28 3810   5.066   3.559   1.792 -0.8744 -0.4223 -0.5413
   32MOL    H29 3811   4.951   3.569   1.555 -0.3200 -0.3743 -1.0152
   32MOL    H30 3812   4.888   3.409   1.571 -0.2457 -0.3316  1.7473
   32MOL    H31 3813   5.013   3.367   1.772 -1.9175 -0.8476  0.4825
   32MOL    C32 3814   4.835   3.484   1.815  0.1637 -0.2209 -0.4769
   32MOL    C33 3815   4.827   3.491   1.970  0.3672 -0.3465 -0.0093
   32MOL    F34 3816   4.891   3.381   2.014  0.4315  0.1410 -0.1699
   32MOL    H35 3817   4.776   3.565   1.773  0.0298 -1.3710 -2.5920
   32MOL    H36 3818   4.767   3.406   1.779 -0.6618 -0.1504  0.8518
   32MOL    H37 3819   4.720   3.484   1.993  0.4444  0.3066  0.5684
   32MOL    C38 3820   4.888   3.619   2.040  0.2093 -0.0435 -0.4199
   32MOL    C39 3821   4.801   3.745   2.030 -0.7157 -0.1581 -0.1743
   32MOL    F40 3822   4.708   3.748   2.126  0.0563  0.7150 -0.1311
   32MOL    H41 3823   4.907   3.610   2.147  1.3401 -0.3979 -0.6522
   32MOL    H42 3824   4.987   3.640   1.999  0.3296  1.9274  0.8309
   32MOL    H43 3825   4.748   3.748   1.935  0.7863 -1.2180 -1.0561
   32MOL    C44 3826   4.888   3.871   2.033  0.1446 -1.0772  0.2428
   32MOL    C45 3827   4.812   4.004   2.033 -0.8933  0.0610  0.1723
   32MOL    F46 3828   4.911   4.099   2.041 -0.4923 -0.1932  0.2050
   32MOL    H47 3829   4.943   3.866   2.126  0.6245  1.5702  0.1479
   32MOL    H48 3830   4.962   3.882   1.953  1.9276 -0.1029  1.9690
   32MOL    H49 3831   4.755   4.012   2.126 -2.1121  1.9925 -0.7071
   32MOL    C50 3832   4.734   4.047   1.898 -0.1597 -0.6107  0.0863
   32MOL    C51 3833   4.645   4.164   1.932  0.0569  0.0040 -0.3569
   32MOL    F52 3834   4.721   4.270   1.946 -0.2317 -0.0734 -0.0155
   32MOL    H53 3835   4.808   4.075   1.824 -1.5265 -0.5272 -1.2802
   32MOL    H54 3836   4.674   3.959   1.874 -1.3016 -1.1611  4.4949
   32MOL    H55 3837   4.588   4.159   2.025  0.0379 -0.7634 -0.4033
   32MOL    C56 3838   4.540   4.188   1.821  0.0316 -0.2336  0.8919
   32MOL    C57 3839   4.432   4.076   1.805 -0.5156  0.0162 -0.3234
   32MOL    F58 3840   4.379   4.047   1.925 -0.2017  0.1057 -0.0512
   32MOL    H59 3841   4.475   4.276   1.830 -0.6623 -0.6230 -0.3604
   32MOL    H60 3842   4.596   4.192   1.728 -1.1962  0.0297  0.1514
   32MOL    H61 3843   4.470   3.975   1.790  0.7035 -0.0638  2.9751
   32MOL    C62 3844   4.316   4.120   1.711 -0.3653  0.7370 -1.7061
   32MOL    C63 3845   4.353   4.135   1.566  1.1948  0.3481 -0.5379
   32MOL    F64 3846   4.391   4.013   1.529  0.1404  0.2594 -0.0743
   32MOL    H65 3847   4.247   4.037   1.718  0.9948 -0.3514 -0.9091
   32MOL    H66 3848   4.270   4.206   1.760  0.1851 -0.2546  0.6555
   32MOL    H67 3849   4.447   4.189   1.555  1.9768 -0.8762  0.0895
   32MOL    C68 3850   4.247   4.180   1.471 -0.5795  0.2984 -0.3092
   32MOL    C69 3851   4.180   4.318   1.505  0.3599 -0.6992 -0.2845
   32MOL    F70 3852   4.277   4.412   1.511  0.5306  0.3885 -0.0538
   32MOL    H71 3853   4.293   4.180   1.372 -1.6829 -2.5769 -0.8688
   32MOL    H72 3854   4.168   4.106   1.469  0.1202 -0.4496 -0.4971
   32MOL    H73 3855   4.127   4.313   1.600  0.8101 -0.0398  0.0009
   32MOL    C74 3856   4.080   4.368   1.394 -1.0311  0.1548 -0.4337
   32MOL    C75 3857   3.948   4.293   1.389 -0.0500 -0.1966 -0.1209
   32MOL    F76 3858   3.889   4.327   1.505  0.1011 -0.4750 -0.3296
   32MOL    H77 3859   4.062   4.472   1.421 -0.8747  0.2577 -0.7219
   32MOL    H78 3860   4.119   4.380   1.293 -1.9331  1.9313 -0.5935
   32MOL    H79 3861   3.961   4.185   1.384 -0.2054 -0.2349  0.2746
   32MOL    C80 3862   3.861   4.340   1.275  0.1754  0.0870 -0.2926
   32MOL    C81 3863   3.720   4.262   1.271  0.4583 -0.3107  0.4155
   32MOL    F82 3864   3.662   4.334   1.176  0.0012 -0.5187 -0.2958
   32MOL    H83 3865   3.857   4.449   1.287  1.1589  0.2866 -1.6797
   32MOL    H84 3866   3.910   4.324   1.179 -0.1149 -0.0984 -0.4082
   32MOL    H85 3867   3.680   4.277   1.372  2.2150  0.6208  1.0021
   32MOL    C86 3868   3.711   4.118   1.222 -0.6576  0.0047  0.5379
   32MOL    C87 3869   3.572   4.053   1.247 -0.1708  0.8062  0.1344
   32MOL    F88 3870   3.497   4.121   1.163  0.1490  0.2068  0.3968
   32MOL    H89 3871   3.734   4.107   1.116 -1.1098  5.0890 -0.2193
   32MOL    H90 3872   3.778   4.065   1.290 -0.7837 -0.0802  0.5970
   32MOL    H91 3873   3.533   4.090   1.342 -1.0550 -0.2799  0.2116
   32MOL    C92 3874   3.564   3.901   1.217  0.8377 -0.6820 -0.3958
   32MOL    C93 3875   3.647   3.815   1.317 -0.3025 -0.5745  0.5554
   32MOL    F94 3876   3.614   3.851   1.438  0.7063 -0.1654 -0.8693
   32MOL    H95 3877   3.461   3.869   1.229  0.9282 -1.4439 -1.4572
   32MOL    H96 3878   3.585   3.889   1.110 -0.7528  1.9571 -1.0400
   32MOL    H97 3879   3.755   3.831   1.314 -0.3004 -0.8934 -1.3962
   32MOL    C98 3880   3.620   3.661   1.299 -0.4154  0.1832 -0.2254
   32MOL    C99 3881   3.671   3.604   1.167  0.3915 -0.2377  0.7228
   32MOL   F100 3882   3.806   3.611   1.168  0.4491 -0.2746 -0.4514
   32MOL   H101 3883   3.661   3.603   1.382 -0.6009  1.1216  0.5383
   32MOL   H102 3884   3.512   3.651   1.313 -0.0809 -1.5442  1.2515
   32MOL   H103 3885   3.627   3.662   1.086  2.2731  0.9212  0.5003
   32MOL   C104 3886   3.631   3.456   1.156  0.3565 -0.2082  0.5461
   32MOL   C105 3887   3.641   3.391   1.015 -0.0497 -0.1835 -0.3966
   32MOL   F106 3888   3.564   3.466   0.936  0.7662  0.0232  0.2064
   32MOL   H107 3889   3.705   3.417   1.227 -0.5266 -0.3282  1.4025
   32MOL   H108 3890   3.538   3.446   1.212 -0.6144  1.2726 -0.7634
   32MOL   H109 3891   3.585   3.298   1.023  2.0610 -1.6475 -2.2007
   32MOL   C110 3892   3.777   3.356   0.950 -0.9842  0.4598 -0.6797
   32MOL   C111 3893   3.759   3.256   0.837  0.3939  0.1601  0.5949
   32MOL   F112 3894   3.696   3.315   0.736  0.0418  0.1709  0.1126
   32MOL   H113 3895   3.832   3.447   0.926  2.5726 -1.7321 -1.2208
   32MOL   H114 3896   3.832   3.308   1.031 -1.3177  0.0602 -0.6873
   32MOL   H115 3897   3.705   3.166   0.867  1.9804 -0.7503  0.7558
   32MOL   C116 3898   3.895   3.212   0.787  0.3004  0.1968  0.2353
   32MOL   C117 3899   3.894   3.128   0.658  0.3038 -0.3768 -0.0091
   32MOL   F118 3900   3.802   3.035   0.676 -0.1322  0.9931 -0.0098
   32MOL   H119 3901   3.956   3.298   0.761  1.5590 -0.5416  0.6830
   32MOL   H120 3902   3.961   3.156   0.854  0.2494  1.4082  1.3148
   32MOL   H121 3903   3.995   3.095   0.636  0.7531 -0.3918  1.9798
   32MOL   H122 3904   3.868   3.193   0.574 -3.1944 -1.7955 -0.1167
   33MOL     C1 3905   6.247   3.822   1.703 -0.1893 -0.1361 -0.0327
   33MOL     C2 3906   6.370   3.917   1.718  0.1728 -0.3649 -0.2543
   33MOL     F3 3907   6.445   3.885   1.824 -0.0119  0.4460  0.1187
   33MOL     H4 3908   6.299   3.726   1.702  0.6365  0.3005  0.4680
   33MOL     H5 3909   6.197   3.826   1.606 -0.2399 -0.1259 -0.0062
   33MOL     H6 3910   6.349   4.023   1.725 -1.3404 -0.6550 -0.3229
   33MOL     H7 3911   6.188   3.832   1.794  2.2868  1.4471  1.4411
   33MOL     C8 3912   6.463   3.916   1.588 -0.3147 -0.0257  0.1872
   33MOL     C9 3913   6.610   3.979   1.602  1.3097  0.4871  0.1233
   33MOL    F10 3914   6.686   3.909   1.691 -0.9618  0.5405  0.2474
   33MOL    H11 3915   6.466   3.816   1.546  0.9441  0.8394 -1.8455
   33MOL    H12 3916   6.411   3.971   1.510 -0.0690  1.9963  1.3962
   33MOL    H13 3917   6.590   4.074   1.650 -1.1274  0.3448 -0.5313
   33MOL    C14 3918   6.692   3.979   1.468 -0.0282  0.4371  0.3688
   33MOL    C15 3919   6.614   4.069   1.361 -0.3792  0.3158 -0.2753
   33MOL    F16 3920   6.572   4.182   1.424 -0.0947  0.4312  0.0834
   33MOL    H17 3921   6.787   4.031   1.483 -0.8276  1.9613  0.3274
   33MOL    H18 3922   6.707   3.878   1.431  0.4157  0.6512 -0.0347
   33MOL    H19 3923   6.527   4.013   1.328  0.3452 -1.0047  0.0160
   33MOL    C20 3924   6.707   4.098   1.237 -0.4897 -0.4202 -0.4950
   33MOL    C21 3925   6.641   4.189   1.132 -0.1257  0.2481 -0.2673
   33MOL    F22 3926   6.516   4.154   1.120 -0.4053  0.6193 -0.3679
   33MOL    H23 3927   6.803   4.138   1.270 -0.3686 -1.8010  0.9134
   33MOL    H24 3928   6.727   4.000   1.193  0.3574 -0.4395 -0.0859
   33MOL    H25 3929   6.691   4.160   1.039 -2.4797 -2.0422 -0.8864
   33MOL    C26 3930   6.666   4.339   1.156 -0.4520  0.3664 -0.0828
   33MOL    C27 3931   6.572   4.413   1.067  0.8029 -0.0296  0.1766
   33MOL    F28 3932   6.588   4.534   1.115 -0.1794  0.2560 -0.0517
   33MOL    H29 3933   6.644   4.361   1.261  1.1789 -0.9210  0.5498
   33MOL    H30 3934   6.772   4.361   1.149 -0.3399  0.0295  0.5624
   33MOL    H31 3935   6.472   4.384   1.103  0.7994 -0.9838 -0.5790
   33MOL    C32 3936   6.594   4.402   0.917  0.1884  0.7379  0.1096
   33MOL    C33 3937   6.483   4.466   0.831 -0.8428  0.0595  0.0508
   33MOL    F34 3938   6.366   4.418   0.867  0.0970  0.5723  0.2696
   33MOL    H35 3939   6.689   4.452   0.901  0.0613  0.5973 -1.1000
   33MOL    H36 3940   6.610   4.295   0.901  0.1218  0.2837  2.8501
   33MOL    H37 3941   6.499   4.431   0.729 -0.2259 -1.5630  0.6932
   33MOL    C38 3942   6.488   4.620   0.826 -0.3974 -0.0024 -0.0471
   33MOL    C39 3943   6.402   4.681   0.713  0.1028 -0.6787  0.3926
   33MOL    F40 3944   6.456   4.633   0.598  0.1558  0.0221 -0.2451
   33MOL    H41 3945   6.447   4.660   0.919 -2.8291  3.6641 -2.5068
   33MOL    H42 3946   6.590   4.656   0.815 -0.9924  1.7179 -0.1406
   33MOL    H43 3947   6.410   4.789   0.703  0.5707 -0.5844  1.7401
   33MOL    C44 3948   6.250   4.636   0.709 -0.0524 -0.4595 -0.6396
   33MOL    C45 3949   6.160   4.672   0.831 -0.0668 -0.0903  0.7829
   33MOL    F46 3950   6.141   4.802   0.819  0.0851  0.1963 -0.1063
   33MOL    H47 3951   6.194   4.681   0.628 -1.9149 -1.6433 -0.0451
   33MOL    H48 3952   6.246   4.528   0.692  0.7517 -0.7553  0.9268
   33MOL    H49 3953   6.215   4.658   0.924  0.1733 -0.2104  0.6240
   33MOL    C50 3954   6.032   4.598   0.834  0.4623  0.1678 -0.0925
   33MOL    C51 3955   6.036   4.439   0.833  0.0272  0.1945 -0.0990
   33MOL    F52 3956   6.114   4.394   0.928  0.2588 -0.8277 -0.2588
   33MOL    H53 3957   5.981   4.616   0.929  0.7664 -0.0016  0.1049
   33MOL    H54 3958   5.970   4.651   0.762 -0.6526  0.4658  1.0651
   33MOL    H55 3959   6.081   4.385   0.750  0.8081 -1.5853  1.4393
   33MOL    C56 3960   5.885   4.393   0.851 -0.4200 -0.7111  0.7962
   33MOL    C57 3961   5.843   4.250   0.806 -0.3226  0.3128  0.1920
   33MOL    F58 3962   5.927   4.171   0.866  0.6182  0.3589  0.0984
   33MOL    H59 3963   5.837   4.415   0.946 -1.1606  0.5103  0.1489
   33MOL    H60 3964   5.828   4.459   0.786 -1.9692  1.6377  4.3265
   33MOL    H61 3965   5.868   4.251   0.700 -0.8712  1.7044  0.0584
   33MOL    C62 3966   5.699   4.216   0.837 -0.0165  0.6716  0.1409
   33MOL    C63 3967   5.638   4.111   0.738 -0.4098 -0.3853 -0.0893
   33MOL    F64 3968   5.713   4.001   0.738  0.0439 -0.0037 -0.5637
   33MOL    H65 3969   5.681   4.191   0.941  0.3217  0.3827  0.1305
   33MOL    H66 3970   5.637   4.302   0.810 -0.1335  0.2941 -0.8353
   33MOL    H67 3971   5.644   4.147   0.635  2.6914  0.5595  0.3522
   33MOL    C68 3972   5.498   4.063   0.780 -0.6904 -0.9544 -0.0275
   33MOL    C69 3973   5.385   4.163   0.756  0.3261  1.3217  0.0213
   33MOL    F70 3974   5.381   4.182   0.619  0.7497  0.1063 -0.1826
   33MOL    H71 3975   5.473   3.976   0.719 -3.0220 -1.6810  1.9171
   33MOL    H72 3976   5.496   4.039   0.886  1.5760  0.6347  0.4086
   33MOL    H73 3977   5.409   4.259   0.802  1.1186  0.8400  0.6492
   33MOL    C74 3978   5.245   4.115   0.801  0.4549 -0.6567 -1.1727
   33MOL    C75 3979   5.231   4.101   0.956 -0.0251  0.1992 -0.3036
   33MOL    F76 3980   5.273   4.215   1.021  0.4790  0.0884  0.3353
   33MOL    H77 3981   5.167   4.184   0.769 -0.4196 -0.7617  0.7014
   33MOL    H78 3982   5.229   4.021   0.748 -1.0628 -1.3920  0.5644
   33MOL    H79 3983   5.290   4.015   0.989 -0.8467 -0.4344 -0.4490
   33MOL    C80 3984   5.081   4.077   0.998 -0.9130 -0.3416 -0.0118
   33MOL    C81 3985   5.062   4.033   1.143  0.5867  0.4138 -0.0976
   33MOL    F82 3986   5.099   4.130   1.234  0.0621 -0.5058  0.1174
   33MOL    H83 3987   5.012   4.160   0.985 -1.7506 -1.0725 -0.2978
   33MOL    H84 3988   5.037   4.001   0.933  0.5956 -1.6915  0.5074
   33MOL    H85 3989   5.135   3.955   1.163 -1.8667 -1.6895  0.9142
   33MOL    C86 3990   4.916   3.992   1.182 -0.4504  0.4548 -0.2935
   33MOL    C87 3991   4.897   3.979   1.336  0.1293  0.4794 -0.0879
   33MOL    F88 3992   4.768   3.929   1.353  0.0744 -0.4907 -0.6852
   33MOL    H89 3993   4.840   4.060   1.143 -0.7241  0.1191 -0.3471
   33MOL    H90 3994   4.889   3.890   1.152 -1.7113  0.6905  0.0062
   33MOL    H91 3995   4.888   4.082   1.372 -1.2543 -0.1480  1.4643
   33MOL    C92 3996   5.008   3.913   1.417  0.3314 -0.6186 -0.7887
   33MOL    C93 3997   4.974   3.893   1.565  0.7381 -0.3327  0.2905
   33MOL    F94 3998   4.873   3.807   1.576 -0.1477  0.0221  0.3066
   33MOL    H95 3999   5.033   3.816   1.372  0.0967 -0.4800 -1.2176
   33MOL    H96 4000   5.099   3.972   1.408  0.2200 -0.0620  1.3881
   33MOL    H97 4001   4.940   3.986   1.610  0.6467 -1.0062  1.6430
   33MOL    C98 4002   5.077   3.848   1.662 -0.3662 -0.0764 -0.0330
   33MOL    C99 4003   5.167   3.945   1.729 -0.0358  0.4008 -0.1815
   33MOL   F100 4004   5.091   4.035   1.791  0.0415  0.1322  0.5097
   33MOL   H101 4005   5.012   3.804   1.737  0.4378  0.0729  0.7508
   33MOL   H102 4006   5.128   3.768   1.608 -0.2155  0.5469 -0.8277
   33MOL   H103 4007   5.227   4.003   1.660 -2.5281  1.4249 -1.5308
   33MOL   C104 4008   5.264   3.867   1.834 -0.3057  0.6103 -0.0886
   33MOL   C105 4009   5.360   3.762   1.783  0.1979  0.2437 -0.0285
   33MOL   F106 4010   5.461   3.824   1.727  0.1308 -0.2132  0.3012
   33MOL   H107 4011   5.324   3.951   1.870  0.1490 -0.1462  0.9556
   33MOL   H108 4012   5.207   3.821   1.915 -1.1751  0.6040 -0.6903
   33MOL   H109 4013   5.317   3.698   1.706  0.5102 -2.1330  1.7255
   33MOL   C110 4014   5.410   3.677   1.895  0.4036 -0.4161  0.4591
   33MOL   C111 4015   5.484   3.548   1.856  0.0982  0.5671 -0.4888
   33MOL   F112 4016   5.547   3.509   1.966  0.0232 -0.0867  0.0374
   33MOL   H113 4017   5.476   3.734   1.960  2.3406 -0.3431 -1.5147
   33MOL   H114 4018   5.327   3.651   1.961 -0.6038  0.6774 -0.3553
   33MOL   H115 4019   5.564   3.573   1.786  1.6492 -2.0633  0.2580
   33MOL   C116 4020   5.394   3.441   1.792 -0.3924  0.3690 -0.9745
   33MOL   C117 4021   5.456   3.295   1.782 -0.2431  0.1674  0.8217
   33MOL   F118 4022   5.365   3.202   1.740 -0.4211  0.6150  0.1177
   33MOL   H119 4023   5.311   3.428   1.861  2.4074 -0.4099  2.3745
   33MOL   H120 4024   5.353   3.486   1.701 -2.2665  0.6240 -0.0449
   33MOL   H121 4025   5.500   3.255   1.873 -0.7750  0.5916  1.2723
   33MOL   H122 4026   5.533   3.284   1.706  0.8777  0.1761  1.9339
   34MOL     C1 4027   1.363   2.587   5.109 -0.7749 -0.6588  0.4203
   34MOL     C2 4028   1.297   2.464   5.045  0.8539 -0.2633 -0.2217
   34MOL     F3 4029   1.374   2.358   5.014 -0.3552  0.5813  0.0668
   34MOL     H4 4030   1.411   2.583   5.207 -0.6469  1.4627  0.4744
   34MOL     H5 4031   1.292   2.669   5.126  0.0160  0.6024 -2.0498
   34MOL     H6 4032   1.267   2.484   4.942  1.6593  0.3519 -0.3400
   34MOL     H7 4033   1.425   2.632   5.031  3.2222 -1.7435  2.8440
   34MOL     C8 4034   1.181   2.414   5.125  0.5330  0.1560  0.2027
   34MOL     C9 4035   1.062   2.341   5.055  0.0975 -0.0085  0.1122
   34MOL    F10 4036   1.098   2.211   5.026 -1.1259  0.1692  0.0425
   34MOL    H11 4037   1.203   2.354   5.214 -2.9446 -4.0230 -1.5181
   34MOL    H12 4038   1.125   2.495   5.172 -0.4126  0.5976 -1.6455
   34MOL    H13 4039   1.051   2.391   4.959 -1.5669 -0.6094 -0.0233
   34MOL    C14 4040   0.929   2.351   5.133  0.0599  0.4123  0.0850
   34MOL    C15 4041   0.816   2.263   5.084 -0.3270 -0.8754 -0.4082
   34MOL    F16 4042   0.831   2.149   5.153  0.1393  0.4269  0.0775
   34MOL    H17 4043   0.959   2.316   5.232  2.9153  2.3206 -0.0429
   34MOL    H18 4044   0.890   2.452   5.133 -2.2639 -0.4220 -2.9646
   34MOL    H19 4045   0.821   2.247   4.976  0.1775  0.9917 -0.6828
   34MOL    C20 4046   0.678   2.316   5.124 -0.5003  0.0783  0.5057
   34MOL    C21 4047   0.622   2.423   5.039 -0.2518  0.5381 -0.4684
   34MOL    F22 4048   0.646   2.403   4.906  0.1654 -0.2478 -0.2456
   34MOL    H23 4049   0.611   2.230   5.117 -0.4981  0.0989  0.2470
   34MOL    H24 4050   0.660   2.340   5.229 -1.4323 -0.4620  0.4778
   34MOL    H25 4051   0.661   2.520   5.069 -1.5973  0.9511 -0.0630
   34MOL    C26 4052   0.470   2.448   5.043 -0.6893  0.2851 -0.0490
   34MOL    C27 4053   0.427   2.514   5.179  0.0641 -0.7498  0.1722
   34MOL    F28 4054   0.460   2.641   5.158 -0.0667  0.1946 -0.3158
   34MOL    H29 4055   0.441   2.517   4.963 -0.2526 -0.9005 -1.2560
   34MOL    H30 4056   0.422   2.350   5.038 -1.8059  0.8256 -0.1187
   34MOL    H31 4057   0.477   2.480   5.270  1.1547 -0.7970 -0.4340
   34MOL    C32 4058   0.273   2.505   5.193  0.2652  0.4895 -0.1889
   34MOL    C33 4059   0.237   2.368   5.263  0.2346  0.4239  0.0739
   34MOL    F34 4060   0.235   2.392   5.394  0.1387  0.2721  0.6471
   34MOL    H35 4061   0.233   2.585   5.256 -1.7722 -1.6238  1.2933
   34MOL    H36 4062   0.229   2.513   5.094 -0.1528  0.7142  0.0141
   34MOL    H37 4063   0.315   2.295   5.241 -0.1901 -0.1618  0.5060
   34MOL    C38 4064   0.099   2.317   5.217  0.4286  0.7245 -0.6168
   34MOL    C39 4065   0.047   2.182   5.275  0.2573 -0.5046 -0.4892
   34MOL    F40 4066   7.930   2.164   5.221  0.2449 -0.1275  0.2988
   34MOL    H41 4067   0.022   2.391   5.243  0.9757  1.4926 -1.1666
   34MOL    H42 4068   0.104   2.298   5.110 -1.3022 -0.0037 -0.5857
   34MOL    H43 4069   0.029   2.183   5.382  1.8175 -2.7672 -0.1629
   34MOL    C44 4070   0.133   2.056   5.245  0.1387 -0.0631 -0.3450
   34MOL    C45 4071   0.231   1.999   5.355  0.2042  0.1632  0.5253
   34MOL    F46 4072   0.164   2.021   5.473  0.2618 -0.0479  1.0245
   34MOL    H47 4073   0.062   1.977   5.217 -1.9021  1.2073  1.1367
   34MOL    H48 4074   0.200   2.078   5.162  1.2743  0.8127  0.7894
   34MOL    H49 4075   0.327   2.047   5.372  1.0800 -0.8824 -1.3558
   34MOL    C50 4076   0.271   1.857   5.329  0.1015 -0.4624 -0.0561
   34MOL    C51 4077   0.353   1.839   5.197 -0.4163 -0.8027 -0.2059
   34MOL    F52 4078   0.427   1.943   5.171 -0.0750 -0.6980 -0.1443
   34MOL    H53 4079   0.339   1.829   5.409  1.1938  0.6186 -0.5942
   34MOL    H54 4080   0.183   1.792   5.333 -1.4355  1.4710 -1.3618
   34MOL    H55 4081   0.291   1.822   5.108 -2.1248 -1.0383  1.0053
   34MOL    C56 4082   0.454   1.721   5.208  0.1398  0.2631  0.0945
   34MOL    C57 4083   0.537   1.698   5.076  0.2739 -0.4304  0.4072
   34MOL    F58 4084   0.467   1.688   4.964  0.3171 -0.0550  0.5978
   34MOL    H59 4085   0.515   1.725   5.299 -0.0630 -0.0549  0.2443
   34MOL    H60 4086   0.398   1.629   5.227 -0.0796  0.6727  1.4777
   34MOL    H61 4087   0.578   1.600   5.099  1.3205 -0.1950 -0.3739
   34MOL    C62 4088   0.649   1.789   5.060 -0.1245 -0.3080 -0.5421
   34MOL    C63 4089   0.733   1.766   4.935 -0.0310  0.4642 -0.4526
   34MOL    F64 4090   0.672   1.819   4.832  0.2164 -0.2279 -0.2084
   34MOL    H65 4091   0.618   1.893   5.070 -2.3480 -1.0945  1.4095
   34MOL    H66 4092   0.712   1.769   5.147  0.4598  0.6486 -0.7465
   34MOL    H67 4093   0.736   1.660   4.909 -2.8771  0.0777  0.6546
   34MOL    C68 4094   0.868   1.824   4.935  0.5067  0.0061  0.1460
   34MOL    C69 4095   0.966   1.768   4.831  0.6623  0.5513 -0.4439
   34MOL    F70 4096   0.915   1.799   4.715 -0.4884 -0.7127 -0.0816
   34MOL    H71 4097   0.861   1.931   4.918  0.0629  0.0546  0.6181
   34MOL    H72 4098   0.916   1.808   5.031 -0.6235 -0.9169  0.5666
   34MOL    H73 4099   0.972   1.660   4.840 -1.3256  0.5182  0.5651
   34MOL    C74 4100   1.103   1.845   4.843  0.2141 -0.3152 -0.7673
   34MOL    C75 4101   1.208   1.801   4.738 -0.2182 -0.4773 -0.5283
   34MOL    F76 4102   1.329   1.869   4.736  0.5595  0.0511  0.5363
   34MOL    H77 4103   1.070   1.947   4.829 -1.3729 -0.7333 -0.1879
   34MOL    H78 4104   1.146   1.841   4.943 -1.6690  1.4851  0.1390
   34MOL    H79 4105   1.169   1.834   4.642  0.2597  2.2667  0.1746
   34MOL    C80 4106   1.236   1.649   4.738  0.2775  0.0086 -0.3168
   34MOL    C81 4107   1.288   1.581   4.864  0.5529  0.9795  0.4142
   34MOL    F82 4108   1.243   1.454   4.856  0.0139  0.3984  0.5160
   34MOL    H83 4109   1.152   1.592   4.699  0.9616 -1.3264  0.1422
   34MOL    H84 4110   1.303   1.630   4.654 -2.0814  0.2795 -2.3211
   34MOL    H85 4111   1.254   1.630   4.955 -2.0696  1.0936 -0.6012
   34MOL    C86 4112   1.444   1.568   4.879 -0.0986  0.2642 -0.3707
   34MOL    C87 4113   1.486   1.481   5.001 -0.7893  0.4011  0.2576
   34MOL    F88 4114   1.618   1.461   4.999  0.1761 -0.1482  0.0923
   34MOL    H89 4115   1.485   1.523   4.789 -1.2467 -0.4796 -0.5260
   34MOL    H90 4116   1.489   1.668   4.879 -1.3063  0.8226 -1.1513
   34MOL    H91 4117   1.436   1.385   4.992  2.0190 -1.2516  1.5491
   34MOL    C92 4118   1.441   1.543   5.134 -0.5916 -0.1885 -0.2773
   34MOL    C93 4119   1.497   1.475   5.255  0.6401  0.6520 -0.7754
   34MOL    F94 4120   1.627   1.501   5.262 -0.1805  0.5633  0.3339
   34MOL    H95 4121   1.484   1.644   5.139  0.5677 -0.6479 -0.7797
   34MOL    H96 4122   1.333   1.543   5.149 -0.4314  1.9211  1.1246
   34MOL    H97 4123   1.492   1.366   5.242  0.0640  0.5340  0.4005
   34MOL    C98 4124   1.427   1.514   5.388 -0.0419 -0.3862  0.2815
   34MOL    C99 4125   1.276   1.468   5.416 -0.3692 -0.6439 -0.8869
   34MOL   F100 4126   1.266   1.336   5.413  0.4927  0.1310 -0.1657
   34MOL   H101 4127   1.486   1.480   5.472  0.2051  0.0847  0.3016
   34MOL   H102 4128   1.436   1.622   5.399 -0.1214 -0.6412  3.1479
   34MOL   H103 4129   1.201   1.510   5.349 -0.5068 -0.2233 -0.4758
   34MOL   C104 4130   1.248   1.525   5.556 -0.0447  0.1083  0.4202
   34MOL   C105 4131   1.103   1.558   5.590 -0.4849  0.1542  0.4416
   34MOL   F106 4132   1.035   1.449   5.542  0.5671 -0.3274 -0.1529
   34MOL   H107 4133   1.297   1.472   5.638 -0.3166  0.1409  0.6063
   34MOL   H108 4134   1.303   1.619   5.567  0.3654  0.3708 -3.3066
   34MOL   H109 4135   1.073   1.644   5.530  0.8795 -0.7573 -1.5924
   34MOL   C110 4136   1.071   1.572   5.744 -0.3243 -0.1584  0.2501
   34MOL   C111 4137   1.165   1.678   5.807  0.3368  0.2497 -0.2781
   34MOL   F112 4138   1.115   1.800   5.771  0.6922  0.0952 -0.0145
   34MOL   H113 4139   0.966   1.593   5.767  0.1523  1.6907  0.8458
   34MOL   H114 4140   1.079   1.472   5.787  1.2155 -0.7466 -1.3364
   34MOL   H115 4141   1.272   1.679   5.786  0.2955  2.0761 -0.4818
   34MOL   C116 4142   1.153   1.655   5.959  0.1198 -0.2115  0.0999
   34MOL   C117 4143   1.240   1.762   6.031 -0.3448  0.2894  0.4428
   34MOL   F118 4144   1.213   1.749   6.161 -0.4179  0.3034 -0.0377
   34MOL   H119 4145   1.053   1.673   5.997  0.1234  2.2444 -0.9349
   34MOL   H120 4146   1.187   1.558   5.995  1.0703  1.2040  3.1478
   34MOL   H121 4147   1.214   1.865   6.007 -1.0543 -0.2781 -1.2760
   34MOL   H122 4148   1.348   1.745   6.026 -0.3901 -0.3206  1.3305
   35MOL     C1 4149   7.570   3.698   5.820  0.2548  0.2582 -0.0898
   35MOL     C2 4150   7.637   3.564   5.788 -0.1479 -0.1674 -0.0643
   35MOL     F3 4151   7.585   3.465   5.862  0.2449 -0.0730  0.0807
   35MOL     H4 4152   7.621   3.729   5.912  0.7763 -0.6677 -0.0648
   35MOL     H5 4153   7.467   3.687   5.855 -0.1215  0.7780 -1.0152
   35MOL     H6 4154   7.739   3.569   5.827 -0.0394  1.3774 -0.5225
   35MOL     H7 4155   7.566   3.775   5.743 -0.8154  1.2289  0.9089
   35MOL     C8 4156   7.648   3.532   5.644 -0.4808  0.1022 -0.3029
   35MOL     C9 4157   7.764   3.601   5.572 -0.3818 -0.2761  0.3006
   35MOL    F10 4158   7.893   3.564   5.602  0.2520 -0.4219  0.4107
   35MOL    H11 4159   7.663   3.424   5.633  0.9697  0.4845 -2.4666
   35MOL    H12 4160   7.561   3.548   5.581 -0.4191 -0.4267 -0.5263
   35MOL    H13 4161   7.766   3.708   5.593 -0.6076 -0.0278 -0.9598
   35MOL    C14 4162   7.750   3.585   5.415 -0.0137 -0.4622  0.0751
   35MOL    C15 4163   7.744   3.447   5.361  0.1533 -0.4756 -0.0327
   35MOL    F16 4164   7.626   3.396   5.380 -0.2485 -0.2613  0.0560
   35MOL    H17 4165   7.662   3.633   5.374  1.5344  1.6215 -0.9144
   35MOL    H18 4166   7.842   3.627   5.373  0.5168 -1.8226 -0.1478
   35MOL    H19 4167   7.808   3.381   5.419  0.2013  0.7294  1.3087
   35MOL    C20 4168   7.785   3.423   5.217 -0.0920 -0.5878  0.4515
   35MOL    C21 4169   7.688   3.465   5.107  0.4147  0.2909  0.0669
   35MOL    F22 4170   7.699   3.593   5.094 -0.1440 -0.2382 -0.1374
   35MOL    H23 4171   7.885   3.463   5.200  0.2689 -0.9827  1.5816
   35MOL    H24 4172   7.801   3.315   5.212  1.9969 -0.2130 -3.7438
   35MOL    H25 4173   7.583   3.473   5.135  0.3703 -0.5622  0.1540
   35MOL    C26 4174   7.714   3.392   4.973 -0.5487 -0.2496  0.3146
   35MOL    C27 4175   7.677   3.243   4.971  0.5929 -0.3272  0.1291
   35MOL    F28 4176   7.551   3.244   5.007  0.0790 -0.1937  0.1568
   35MOL    H29 4177   7.668   3.444   4.889  0.0479 -2.4832 -1.4248
   35MOL    H30 4178   7.820   3.391   4.950 -0.1927  1.4096  1.8093
   35MOL    H31 4179   7.734   3.187   5.044  0.3442  0.2226  0.7499
   35MOL    C32 4180   7.680   3.180   4.836 -0.1477 -0.0145  0.8882
   35MOL    C33 4181   7.819   3.141   4.783 -0.1601  0.1432 -0.1409
   35MOL    F34 4182   7.893   3.076   4.877  0.3019  0.1179 -0.1879
   35MOL    H35 4183   7.622   3.088   4.838 -1.2541  0.6481  0.0495
   35MOL    H36 4184   7.634   3.239   4.756 -1.0297  1.0650  2.1572
   35MOL    H37 4185   7.873   3.226   4.739 -1.5632  1.7667  1.2297
   35MOL    C38 4186   7.790   3.039   4.669  0.6745  0.6048 -0.5067
   35MOL    C39 4187   7.912   3.034   4.572 -0.3954  0.4307 -0.1084
   35MOL    F40 4188   8.003   2.956   4.628 -0.3473 -0.0014  0.2490
   35MOL    H41 4189   7.762   2.940   4.705  1.8613 -0.0145 -1.2515
   35MOL    H42 4190   7.703   3.068   4.610  2.0615  0.4757 -2.6933
   35MOL    H43 4191   7.957   3.133   4.562  0.7807  0.0412  1.1325
   35MOL    C44 4192   7.874   2.976   4.434  0.2838 -0.0983  0.5615
   35MOL    C45 4193   7.985   2.982   4.317 -0.3250 -0.9882  0.2867
   35MOL    F46 4194   7.955   2.893   4.224  0.9399  0.4498  0.1420
   35MOL    H47 4195   7.848   2.870   4.443  3.5563 -0.8883  1.1420
   35MOL    H48 4196   7.785   3.033   4.407  0.2189 -0.1980  0.5613
   35MOL    H49 4197   0.086   2.970   4.345  0.5430  2.3190 -1.3198
   35MOL    C50 4198   7.974   3.127   4.260  0.3011  0.0056 -0.0687
   35MOL    C51 4199   0.081   3.164   4.151 -0.0118  0.0691 -1.0077
   35MOL    F52 4200   0.087   3.069   4.057  0.1553  0.1016  0.7823
   35MOL    H53 4201   7.870   3.141   4.231  1.0276  1.1832 -2.1988
   35MOL    H54 4202   8.002   3.196   4.340 -2.6588  1.8075 -0.5288
   35MOL    H55 4203   0.177   3.158   4.202  0.1387  0.1888 -1.2701
   35MOL    C56 4204   0.065   3.300   4.077 -0.3919 -0.2180 -0.3298
   35MOL    C57 4205   7.931   3.316   4.007 -0.2857  0.8920  0.0586
   35MOL    F58 4206   7.842   3.329   4.106  0.2752 -0.1558 -0.0773
   35MOL    H59 4207   0.091   3.386   4.138 -0.6740 -1.0593  0.9828
   35MOL    H60 4208   0.144   3.296   4.001 -1.8335 -3.5591 -1.7651
   35MOL    H61 4209   7.914   3.220   3.959  2.0583 -0.3248  1.5447
   35MOL    C62 4210   7.917   3.440   3.914 -0.0779  1.0224 -0.2446
   35MOL    C63 4211   7.793   3.435   3.825  1.2747 -0.3755  0.2335
   35MOL    F64 4212   7.776   3.561   3.794  0.1219  0.1778 -0.5372
   35MOL    H65 4213   7.912   3.522   3.985 -0.2854 -0.8322  1.9229
   35MOL    H66 4214   0.006   3.446   3.856  0.4169 -0.6686  0.3373
   35MOL    H67 4215   7.699   3.411   3.873  0.9753 -0.7264 -0.5265
   35MOL    C68 4216   7.803   3.353   3.692  0.3480 -0.1669  0.0601
   35MOL    C69 4217   7.910   3.399   3.591  0.5811 -0.5419  0.8599
   35MOL    F70 4218   0.028   3.359   3.627  0.5117  0.0902  0.1103
   35MOL    H71 4219   7.840   3.254   3.716  0.1007  0.1225  1.6835
   35MOL    H72 4220   7.700   3.338   3.661 -0.4825  0.3394  2.5216
   35MOL    H73 4221   7.919   3.507   3.599  2.4041 -0.4802 -1.3432
   35MOL    C74 4222   7.879   3.346   3.452  1.2630 -0.6053 -0.1443
   35MOL    C75 4223   7.770   3.427   3.378  1.2701 -0.2644 -0.4708
   35MOL    F76 4224   7.787   3.559   3.380 -0.4472 -0.3100  0.0235
   35MOL    H77 4225   7.974   3.367   3.403  0.8565  0.4224 -0.5013
   35MOL    H78 4226   7.870   3.238   3.458 -0.4601 -0.4191  1.3514
   35MOL    H79 4227   7.678   3.402   3.429 -0.5225 -1.2595 -4.0127
   35MOL    C80 4228   7.776   3.384   3.229 -0.2370  0.2567 -0.7962
   35MOL    C81 4229   7.723   3.243   3.204  0.2118  0.0163  0.0414
   35MOL    F82 4230   7.601   3.254   3.247 -0.5197  0.3968  0.3358
   35MOL    H83 4231   7.724   3.456   3.166 -2.1196  0.4607  0.9147
   35MOL    H84 4232   7.882   3.386   3.207 -0.1020  2.5187 -0.0155
   35MOL    H85 4233   7.775   3.171   3.267 -1.4718  1.0161  2.6299
   35MOL    C86 4234   7.733   3.208   3.058 -0.2661 -0.0239 -0.1313
   35MOL    C87 4235   7.678   3.074   3.012 -0.9216 -0.1798 -0.2665
   35MOL    F88 4236   7.548   3.061   3.048  0.4456 -0.3177  0.8542
   35MOL    H89 4237   7.686   3.289   3.002 -0.2742 -1.1945 -1.8641
   35MOL    H90 4238   7.836   3.212   3.025 -1.1816  1.5687 -2.9787
   35MOL    H91 4239   7.733   2.994   3.061  0.2396 -1.2878 -3.2611
   35MOL    C92 4240   7.678   3.065   2.858 -0.4910 -0.0814  0.0091
   35MOL    C93 4241   7.820   3.024   2.813  0.4038  0.8783 -0.1723
   35MOL    F94 4242   7.833   2.893   2.858  0.1985  0.0657 -0.0309
   35MOL    H95 4243   7.612   2.989   2.816  0.5546 -1.0268  0.0248
   35MOL    H96 4244   7.652   3.161   2.814 -1.3817  1.2837  3.3002
   35MOL    H97 4245   7.895   3.078   2.872  0.6188  1.0008 -0.5514
   35MOL    C98 4246   7.847   3.035   2.665 -0.2342  0.7190  0.4568
   35MOL    C99 4247   7.996   3.008   2.618  0.3666  0.1001 -0.2788
   35MOL   F100 4248   0.034   2.887   2.661  0.6275 -0.3277  0.5030
   35MOL   H101 4249   7.781   2.967   2.610  0.4402  0.4301 -0.0010
   35MOL   H102 4250   7.827   3.137   2.634 -3.7326  0.7296  2.5095
   35MOL   H103 4251   0.051   3.088   2.664 -0.3425 -0.3289  1.3863
   35MOL   C104 4252   0.011   3.016   2.461 -0.3318 -0.3609 -0.3992
   35MOL   C105 4253   0.156   3.042   2.421  0.3983  0.1818  0.0890
   35MOL   F106 4254   0.183   3.158   2.485  0.0330 -0.2876 -0.1651
   35MOL   H107 4255   7.972   2.928   2.410  0.8263 -1.1865  0.0548
   35MOL   H108 4256   7.966   3.103   2.417  0.7054  0.1962 -0.4405
   35MOL   H109 4257   0.149   3.059   2.314  1.1249 -1.0202 -0.1612
   35MOL   C110 4258   0.263   2.937   2.455 -0.1773  0.8637 -0.4975
   35MOL   C111 4259   0.393   2.952   2.374 -0.3824 -0.1957  0.1485
   35MOL   F112 4260   0.379   2.926   2.240  0.7201  0.3974 -0.1857
   35MOL   H113 4261   0.279   2.951   2.562  2.4459  3.8336 -1.2238
   35MOL   H114 4262   0.226   2.835   2.440 -1.0337  1.3006 -1.3868
   35MOL   H115 4263   0.470   2.880   2.403 -0.2344 -1.6925 -3.6548
   35MOL   C116 4264   0.458   3.095   2.395 -0.4806 -0.1020 -0.0239
   35MOL   C117 4265   0.499   3.121   2.538 -0.8270 -0.2455  0.7749
   35MOL   F118 4266   0.539   3.247   2.556  0.1077 -0.5180  0.1121
   35MOL   H119 4267   0.542   3.090   2.326 -0.4136 -1.4394  0.1345
   35MOL   H120 4268   0.389   3.171   2.358  0.8785  1.4868  0.6825
   35MOL   H121 4269   0.588   3.063   2.564 -0.1857  1.0810  1.6403
   35MOL   H122 4270   0.422   3.107   2.614 -3.4868  2.7953 -1.2700
   36MOL     C1 4271   5.498   2.972   4.253 -0.1632  0.1838  0.4640
   36MOL     C2 4272   5.432   2.857   4.191 -0.2276  0.7250 -0.0683
   36MOL     F3 4273   5.454   2.746   4.268 -0.2414 -0.3297  0.0768
   36MOL     H4 4274   5.605   2.963   4.272  0.2182 -0.7434 -1.9612
   36MOL     H5 4275   5.447   2.991   4.348  1.8311 -0.9096  1.8125
   36MOL     H6 4276   5.479   2.840   4.094  0.9255 -0.4968  0.6865
   36MOL     H7 4277   5.478   3.063   4.197 -0.4381 -0.0857  0.1269
   36MOL     C8 4278   5.284   2.871   4.167 -0.3320 -0.6625 -0.3052
   36MOL     C9 4279   5.213   2.757   4.103 -0.3246  0.0890 -0.2742
   36MOL    F10 4280   5.218   2.663   4.192  0.0506 -0.1826  0.2739
   36MOL    H11 4281   5.227   2.891   4.257 -0.2967  1.0345 -0.6473
   36MOL    H12 4282   5.281   2.961   4.105 -1.7959 -0.3438  0.2122
   36MOL    H13 4283   5.266   2.733   4.011  1.4692  3.6091 -0.2249
   36MOL    C14 4284   5.064   2.762   4.054 -0.1443 -0.4496 -1.4565
   36MOL    C15 4285   4.959   2.766   4.164  0.5417 -0.2593 -0.0236
   36MOL    F16 4286   4.951   2.883   4.232 -0.5288  0.4134 -0.4827
   36MOL    H17 4287   5.059   2.844   3.983  0.0384  0.7911 -0.0574
   36MOL    H18 4288   5.055   2.668   3.999  0.4819 -1.6416  0.3908
   36MOL    H19 4289   4.986   2.681   4.227  2.8061  1.0192  0.7985
   36MOL    C20 4290   4.817   2.742   4.093 -0.7287 -0.7861  0.0766
   36MOL    C21 4291   4.745   2.864   4.027 -0.3551 -0.9768 -0.1297
   36MOL    F22 4292   4.831   2.923   3.940 -0.1126 -0.3398  0.1742
   36MOL    H23 4293   4.827   2.654   4.029 -0.4294  0.0697 -1.0702
   36MOL    H24 4294   4.744   2.707   4.166  0.6946  0.3812  2.1043
   36MOL    H25 4295   4.716   2.939   4.100  1.9906  1.7602 -1.9070
   36MOL    C26 4296   4.626   2.818   3.938 -0.3855 -0.1488 -0.2151
   36MOL    C27 4297   4.517   2.752   4.012 -0.2573 -0.0775  0.3814
   36MOL    F28 4298   4.480   2.830   4.116  0.0641  0.3497 -0.3112
   36MOL    H29 4299   4.569   2.901   3.897 -1.6035 -1.0204 -0.3465
   36MOL    H30 4300   4.661   2.759   3.853  0.8162  1.4305 -0.8229
   36MOL    H31 4301   4.552   2.661   4.061  0.1568 -0.4600 -0.6060
   36MOL    C32 4302   4.390   2.709   3.934 -0.1531  0.6400 -0.1367
   36MOL    C33 4303   4.412   2.630   3.814  0.1653 -0.0455 -0.2677
   36MOL    F34 4304   4.497   2.525   3.835  0.4635  0.1546 -1.0021
   36MOL    H35 4305   4.330   2.648   4.002  2.3339  1.7082  3.1438
   36MOL    H36 4306   4.337   2.802   3.913 -1.0540 -0.2957 -2.0899
   36MOL    H37 4307   4.459   2.699   3.744 -0.3030  0.2115 -0.3260
   36MOL    C38 4308   4.280   2.572   3.753  0.3682  0.1103 -0.9125
   36MOL    C39 4309   4.196   2.680   3.683 -0.6463  0.3896  0.1016
   36MOL    F40 4310   4.269   2.730   3.585 -0.2416  0.0961 -0.0159
   36MOL    H41 4311   4.310   2.496   3.681  0.9508 -0.1924 -0.3550
   36MOL    H42 4312   4.226   2.517   3.830 -0.5525  1.4575 -0.5801
   36MOL    H43 4313   4.174   2.762   3.751 -1.0847  1.4507 -1.2966
   36MOL    C44 4314   4.067   2.631   3.611 -0.2981 -0.3155 -0.6046
   36MOL    C45 4315   4.101   2.529   3.506  0.4983  0.0964 -0.3206
   36MOL    F46 4316   4.114   2.414   3.567  0.2089 -0.8152 -0.8445
   36MOL    H47 4317   4.005   2.582   3.687  0.5563 -0.7174 -0.1506
   36MOL    H48 4318   4.003   2.709   3.572 -1.8323 -1.4524 -0.4181
   36MOL    H49 4319   4.199   2.541   3.461  0.7707 -0.3596  0.1521
   36MOL    C50 4320   4.005   2.525   3.391  0.6155 -0.1983  0.5022
   36MOL    C51 4321   4.018   2.637   3.289  0.3868  0.2607 -0.1836
   36MOL    F52 4322   3.975   2.753   3.341  0.0070 -0.3092 -0.1555
   36MOL    H53 4323   4.025   2.431   3.338  1.6963  0.0037  0.5474
   36MOL    H54 4324   3.899   2.525   3.419  1.7581 -1.9827  5.3284
   36MOL    H55 4325   3.964   2.610   3.199 -0.6469 -0.2166  0.5645
   36MOL    C56 4326   4.151   2.661   3.223 -0.7602  0.2353  0.3517
   36MOL    C57 4327   4.148   2.733   3.082 -0.3751  0.3837 -0.5608
   36MOL    F58 4328   4.094   2.858   3.094  0.5536 -0.4430  0.3343
   36MOL    H59 4329   4.220   2.709   3.294  0.7518 -1.3195 -0.0254
   36MOL    H60 4330   4.181   2.558   3.209 -0.4967  0.3086  0.3653
   36MOL    H61 4331   4.080   2.686   3.011 -1.9927 -1.1555  1.9487
   36MOL    C62 4332   4.292   2.754   3.037 -0.5466 -0.4237 -0.9715
   36MOL    C63 4333   4.354   2.628   2.972 -0.1564 -0.0944  0.0724
   36MOL    F64 4334   4.293   2.608   2.854 -0.3198  0.1092  0.4355
   36MOL    H65 4335   4.285   2.828   2.958 -2.6393 -0.5914 -0.9712
   36MOL    H66 4336   4.346   2.797   3.122  1.4222  0.6859 -2.7330
   36MOL    H67 4337   4.322   2.547   3.037  0.6504  1.2122  2.1250
   36MOL    C68 4338   4.509   2.639   2.960  0.0859 -0.2786 -0.4255
   36MOL    C69 4339   4.589   2.506   2.960 -0.5785 -0.2886  0.4159
   36MOL    F70 4340   4.553   2.452   3.073  0.0621 -0.1964 -0.1398
   36MOL    H71 4341   4.537   2.697   2.872  0.2320 -1.0438 -0.8913
   36MOL    H72 4342   4.545   2.697   3.045 -0.5884 -1.3336  0.5960
   36MOL    H73 4343   4.698   2.507   2.956 -0.5383  0.6018  1.5598
   36MOL    C74 4344   4.551   2.411   2.848  0.2714 -0.1819 -0.0849
   36MOL    C75 4345   4.578   2.268   2.877 -0.0440  0.2819 -0.0714
   36MOL    F76 4346   4.493   2.205   2.788  0.3855 -0.6813  0.2325
   36MOL    H77 4347   4.445   2.410   2.824  0.5914 -2.5400 -1.6690
   36MOL    H78 4348   4.590   2.437   2.749 -0.8090  0.1082 -0.4427
   36MOL    H79 4349   4.555   2.233   2.977  1.0388  2.9619  1.1827
   36MOL    C80 4350   4.720   2.226   2.825 -0.4302  0.1981  0.1529
   36MOL    C81 4351   4.754   2.086   2.881 -0.0165  0.5514 -0.0704
   36MOL    F82 4352   4.668   1.992   2.845  0.1489  0.2210 -0.1191
   36MOL    H83 4353   4.733   2.225   2.717 -1.9029 -2.2631 -0.0320
   36MOL    H84 4354   4.792   2.292   2.875  1.3935  0.2489 -2.4186
   36MOL    H85 4355   4.767   2.093   2.989 -0.3572  0.2813 -0.0104
   36MOL    C86 4356   4.890   2.030   2.838  0.7628  0.8069  0.5220
   36MOL    C87 4357   5.015   2.101   2.899 -0.3470  0.3241  0.0806
   36MOL    F88 4358   5.004   2.094   3.032 -0.0045 -0.4780  0.0398
   36MOL    H89 4359   4.890   1.921   2.838  0.6525  0.7978 -1.3060
   36MOL    H90 4360   4.898   2.057   2.733 -1.4048  0.9402  0.3492
   36MOL    H91 4361   5.024   2.207   2.876 -0.0818  1.0675  3.3770
   36MOL    C92 4362   5.134   2.013   2.871  0.3074  0.6169 -0.1321
   36MOL    C93 4363   5.260   2.059   2.946 -0.6523 -0.3619  0.7784
   36MOL    F94 4364   5.356   1.968   2.905 -0.2429  0.1680 -0.2527
   36MOL    H95 4365   5.112   1.911   2.901 -0.1447  0.9369  0.6441
   36MOL    H96 4366   5.151   2.012   2.763 -0.9024  0.8705 -0.3255
   36MOL    H97 4367   5.235   2.019   3.045 -3.8534 -0.0359  0.1468
   36MOL    C98 4368   5.304   2.207   2.920 -0.1387 -0.1270  0.1133
   36MOL    C99 4369   5.417   2.254   3.015 -0.2680  0.4677 -0.6360
   36MOL   F100 4370   5.529   2.180   2.999 -0.2697  0.2143  0.2633
   36MOL   H101 4371   5.330   2.224   2.816  0.7847  0.6361  0.4635
   36MOL   H102 4372   5.216   2.264   2.947 -0.3981 -0.5578  0.1833
   36MOL   H103 4373   5.389   2.230   3.118  1.6563 -0.0730 -0.2163
   36MOL   C104 4374   5.438   2.407   3.015 -0.4522  0.2345  0.6647
   36MOL   C105 4375   5.330   2.501   3.079 -0.3362 -0.4002 -0.1476
   36MOL   F106 4376   5.348   2.488   3.213 -0.0586 -0.1692  0.7149
   36MOL   H107 4377   5.535   2.418   3.063  0.7195  0.1268 -1.5701
   36MOL   H108 4378   5.454   2.438   2.911 -0.3308 -0.3079  0.5158
   36MOL   H109 4379   5.230   2.465   3.057 -0.3067 -1.8866  2.0459
   36MOL   C110 4380   5.348   2.649   3.030 -0.2084  0.4882  0.9204
   36MOL   C111 4381   5.230   2.741   3.085  0.1863  0.2332  0.0374
   36MOL   F112 4382   5.281   2.867   3.090  0.3481  0.1402 -0.2901
   36MOL   H113 4383   5.446   2.685   3.060  0.4775 -0.4721 -0.1342
   36MOL   H114 4384   5.345   2.645   2.921 -0.3833 -1.0848  0.9752
   36MOL   H115 4385   5.226   2.721   3.192 -0.0231 -0.3695 -0.0782
   36MOL   C116 4386   5.095   2.741   3.013 -0.2724 -0.1742 -0.0030
   36MOL   C117 4387   4.989   2.816   3.089  0.1239  0.0431 -0.2553
   36MOL   F118 4388   4.872   2.787   3.030 -0.3875 -0.1764  0.1912
   36MOL   H119 4389   5.114   2.790   2.917  1.7228  0.2645  0.6162
   36MOL   H120 4390   5.055   2.641   2.992  2.2747 -1.1115 -0.5044
   36MOL   H121 4391   5.002   2.924   3.094 -1.2472  0.2172  0.0085
   36MOL   H122 4392   4.983   2.783   3.193 -0.5926 -0.3860 -0.4273
   37MOL     C1 4393   7.129   3.847   3.960 -0.4969 -0.0782  0.7190
   37MOL     C2 4394   7.111   3.900   4.098  0.0624 -0.1048 -0.8284
   37MOL     F3 4395   7.141   3.802   4.181  0.1639 -0.1866 -0.4780
   37MOL     H4 4396   7.106   3.917   3.879  0.0127 -0.2253  0.4462
   37MOL     H5 4397   7.053   3.775   3.931 -1.0771  0.6566  0.3778
   37MOL     H6 4398   7.004   3.916   4.106 -0.0275  1.1161 -3.8250
   37MOL     H7 4399   7.230   3.818   3.930 -0.4861  1.8812 -1.3280
   37MOL     C8 4400   7.180   4.030   4.123  0.3056 -0.1006  0.1674
   37MOL     C9 4401   7.114   4.124   4.215  0.9246  0.1795 -0.2520
   37MOL    F10 4402   7.097   4.062   4.327 -0.0389 -0.2107  0.6045
   37MOL    H11 4403   7.284   4.004   4.143 -0.2643 -3.1699 -0.6276
   37MOL    H12 4404   7.179   4.088   4.030  1.5523  2.3731  1.6463
   37MOL    H13 4405   7.011   4.137   4.181  0.2683 -0.8594  1.2700
   37MOL    C14 4406   7.180   4.263   4.231  0.1763  0.3176 -0.1502
   37MOL    C15 4407   7.114   4.366   4.135  0.3566 -0.7860 -0.4786
   37MOL    F16 4408   7.112   4.325   4.008  0.0416 -0.2554  0.1340
   37MOL    H17 4409   7.149   4.295   4.331  0.1917  0.5603 -0.2218
   37MOL    H18 4410   7.289   4.258   4.225  0.0773  0.1352 -1.9380
   37MOL    H19 4411   7.171   4.459   4.127 -1.7119  0.5483 -0.0644
   37MOL    C20 4412   6.968   4.401   4.177  1.0685 -0.7305  0.2524
   37MOL    C21 4413   6.895   4.485   4.069 -0.0062  0.8015 -0.1166
   37MOL    F22 4414   6.768   4.475   4.109  0.6399  0.5264 -0.0047
   37MOL    H23 4415   6.904   4.316   4.198  2.1348 -2.0354 -1.5987
   37MOL    H24 4416   6.970   4.457   4.270  1.0940  2.5928 -1.6504
   37MOL    H25 4417   6.906   4.441   3.970 -0.5230 -1.8555  0.9598
   37MOL    C26 4418   6.921   4.636   4.077 -0.4273 -0.2466  0.1315
   37MOL    C27 4419   6.857   4.724   3.964 -0.0855  0.8648 -0.3729
   37MOL    F28 4420   6.726   4.701   3.981 -0.2755 -0.4952  0.5684
   37MOL    H29 4421   6.890   4.672   4.175 -0.8829  0.9234 -0.4293
   37MOL    H30 4422   7.028   4.654   4.079 -0.2829 -0.7891 -1.9555
   37MOL    H31 4423   6.884   4.677   3.869  2.3566 -2.3229  1.7948
   37MOL    C32 4424   6.885   4.880   3.970  0.4555  1.1149 -0.0109
   37MOL    C33 4425   6.813   4.959   3.862  0.4399 -0.0096 -0.1823
   37MOL    F34 4426   6.820   5.087   3.896  0.3273  0.0193 -0.8863
   37MOL    H35 4427   6.830   4.917   4.056  1.5912  2.2639  0.2395
   37MOL    H36 4428   6.987   4.917   3.982  1.3561 -0.9248 -1.1618
   37MOL    H37 4429   6.710   4.923   3.869  1.1716 -2.1597  0.0431
   37MOL    C38 4430   6.877   4.965   3.727  0.5679 -0.5031 -0.3541
   37MOL    C39 4431   6.790   5.034   3.623 -0.2091 -0.8234  0.5211
   37MOL    F40 4432   6.852   5.011   3.506  0.5509 -0.0839 -0.2369
   37MOL    H41 4433   6.977   5.008   3.731 -0.4080  1.8793 -0.7713
   37MOL    H42 4434   6.886   4.860   3.697  2.3362 -0.5108  0.1540
   37MOL    H43 4435   6.793   5.142   3.634 -0.2560 -1.1936  4.9473
   37MOL    C44 4436   6.642   4.993   3.620  0.2948 -0.0543  0.2922
   37MOL    C45 4437   6.582   5.035   3.483  0.7935 -0.0857  1.2082
   37MOL    F46 4438   6.454   4.991   3.473 -0.2765 -0.1405 -0.4177
   37MOL    H47 4439   6.636   4.884   3.621  0.1388 -0.0613 -0.7537
   37MOL    H48 4440   6.572   5.027   3.696 -0.7691  0.7572 -1.0173
   37MOL    H49 4441   6.642   4.984   3.407  0.3881  2.3902 -0.8409
   37MOL    C50 4442   6.566   5.187   3.456 -0.0906  0.5828  0.1938
   37MOL    C51 4443   6.495   5.219   3.320 -0.6382 -0.1366  0.2823
   37MOL    F52 4444   6.453   5.343   3.322  0.0624 -0.4546  0.2068
   37MOL    H53 4445   6.509   5.231   3.537 -1.3154 -0.1583 -0.2562
   37MOL    H54 4446   6.660   5.242   3.463  1.3043 -1.6828 -0.1844
   37MOL    H55 4447   6.405   5.157   3.310 -2.0356  1.8015  0.5223
   37MOL    C56 4448   6.576   5.193   3.191  0.3127  0.3264 -0.4787
   37MOL    C57 4449   6.505   5.230   3.059  0.4725  0.4763  1.0943
   37MOL    F58 4450   6.530   5.362   3.045  0.2621  0.8824  0.2209
   37MOL    H59 4451   6.661   5.263   3.196  0.3799  0.2797 -0.9608
   37MOL    H60 4452   6.603   5.089   3.204 -2.0890 -0.2936 -0.2567
   37MOL    H61 4453   6.397   5.223   3.069  0.1121  3.3067 -0.2158
   37MOL    C62 4454   6.579   5.171   2.935  0.4622  0.8397  0.0134
   37MOL    C63 4455   6.510   5.224   2.802  0.2924  0.1117 -0.2243
   37MOL    F64 4456   6.566   5.339   2.766 -0.3021 -0.4730  0.0422
   37MOL    H65 4457   6.686   5.192   2.935  0.1171  2.6663 -0.2442
   37MOL    H66 4458   6.571   5.062   2.937  3.7067  0.5083 -1.4641
   37MOL    H67 4459   6.407   5.246   2.832  0.1878 -1.7613  0.8398
   37MOL    C68 4460   6.511   5.122   2.678 -1.0498 -0.7057 -0.3649
   37MOL    C69 4461   6.424   5.155   2.558 -0.3068  0.0019  0.2945
   37MOL    F70 4462   6.463   5.086   2.449  0.2437 -0.0511 -0.2239
   37MOL    H71 4463   6.619   5.111   2.666 -0.9432 -0.1088  0.0294
   37MOL    H72 4464   6.486   5.022   2.715 -0.2502 -0.6927  0.2344
   37MOL    H73 4465   6.451   5.257   2.532  2.8460 -0.5337  1.2216
   37MOL    C74 4466   6.274   5.143   2.581 -0.4696  0.2140  0.1680
   37MOL    C75 4467   6.180   5.177   2.462 -0.2600 -0.0175 -0.1580
   37MOL    F76 4468   6.173   5.068   2.378  0.2378 -0.6771 -0.4018
   37MOL    H77 4469   6.253   5.039   2.604 -3.0824  0.3739 -1.2396
   37MOL    H78 4470   6.248   5.216   2.658  0.4350 -0.7236  1.3802
   37MOL    H79 4471   6.223   5.250   2.394 -0.6538  0.4214  0.0654
   37MOL    C80 4472   6.035   5.207   2.509  0.0911  1.0875 -0.2067
   37MOL    C81 4473   5.955   5.092   2.563 -0.0730  0.1474 -0.0000
   37MOL    F82 4474   5.984   5.056   2.689 -0.0461 -0.5174  0.1642
   37MOL    H83 4475   6.040   5.288   2.582  0.6595  0.3118  0.6226
   37MOL    H84 4476   5.990   5.268   2.431  1.7537  1.0340 -1.2304
   37MOL    H85 4477   5.966   5.000   2.505  0.5491 -0.3896  0.9387
   37MOL    C86 4478   5.804   5.118   2.551 -0.1356 -0.0444  0.2139
   37MOL    C87 4479   5.753   5.216   2.650  0.1577 -0.6840 -0.2465
   37MOL    F88 4480   5.815   5.333   2.641  0.0654  0.4277 -0.0990
   37MOL    H89 4481   5.778   5.145   2.449  2.2690 -0.3474 -0.4999
   37MOL    H90 4482   5.748   5.025   2.563 -2.3716  0.8700 -2.6643
   37MOL    H91 4483   5.770   5.176   2.750 -1.2427 -2.0141 -0.5237
   37MOL    C92 4484   5.599   5.246   2.623  0.1530  0.8251 -0.4061
   37MOL    C93 4485   5.517   5.339   2.714  0.4498  0.4190  0.8968
   37MOL    F94 4486   5.597   5.449   2.713 -0.1967 -0.4662  0.0512
   37MOL    H95 4487   5.589   5.280   2.519 -2.6129  3.3198  0.6237
   37MOL    H96 4488   5.551   5.148   2.627  0.7685  0.5053 -0.6193
   37MOL    H97 4489   5.520   5.297   2.814 -0.1883 -3.3194 -0.5936
   37MOL    C98 4490   5.363   5.369   2.690 -0.1976 -0.0182  0.3916
   37MOL    C99 4491   5.272   5.251   2.745  0.1573 -1.0353 -0.1833
   37MOL   F100 4492   5.294   5.250   2.876  0.1043 -0.1006  0.1659
   37MOL   H101 4493   5.332   5.462   2.737 -0.2168 -0.2390  0.8153
   37MOL   H102 4494   5.334   5.390   2.587 -1.2072  1.1409  0.9050
   37MOL   H103 4495   5.313   5.159   2.704  1.2002 -0.6524 -0.0301
   37MOL   C104 4496   5.122   5.269   2.724 -0.5942  0.0807 -0.4907
   37MOL   C105 4497   5.066   5.255   2.584  0.1199 -0.9289 -0.5050
   37MOL   F106 4498   5.098   5.135   2.539  0.3712  0.1930 -0.0093
   37MOL   H107 4499   5.076   5.194   2.788  1.0814  0.6353  1.4234
   37MOL   H108 4500   5.087   5.366   2.760 -0.6118  0.3944 -1.3364
   37MOL   H109 4501   5.133   5.326   2.536 -1.4898  2.2770  1.7842
   37MOL   C110 4502   4.920   5.286   2.569  0.4488  0.1544  0.2090
   37MOL   C111 4503   4.860   5.296   2.431 -0.8242 -0.4283  0.2522
   37MOL   F112 4504   4.739   5.334   2.449 -0.4162  1.5744 -0.4982
   37MOL   H113 4505   4.861   5.224   2.636  0.0075  3.0012  2.5524
   37MOL   H114 4506   4.916   5.388   2.608  1.0658 -0.2828  1.4306
   37MOL   H115 4507   4.851   5.193   2.398  3.1646 -0.1865 -1.8025
   37MOL   C116 4508   4.942   5.385   2.329 -0.3452  0.2932 -0.0119
   37MOL   C117 4509   4.868   5.397   2.196  0.2032 -0.3442 -0.4073
   37MOL   F118 4510   4.922   5.477   2.109  0.1172  0.1415  0.1490
   37MOL   H119 4511   4.952   5.480   2.381  0.6500  0.0228  0.3097
   37MOL   H120 4512   5.047   5.361   2.311 -0.7449 -2.8375  1.4807
   37MOL   H121 4513   4.773   5.449   2.208  1.0543  1.7091 -2.1475
   37MOL   H122 4514   4.851   5.302   2.144  2.3805 -1.1856  0.3694
   38MOL     C1 4515   7.894   1.464   1.856  0.2996 -0.2845 -0.2419
   38MOL     C2 4516   7.899   1.484   2.015 -0.6365  0.2518  0.0276
   38MOL     F3 4517   7.793   1.417   2.062 -0.0774 -0.4184 -0.0071
   38MOL     H4 4518   7.877   1.360   1.828 -1.0525  0.3857 -2.0138
   38MOL     H5 4519   7.987   1.505   1.818  0.5680 -1.7154 -1.1924
   38MOL     H6 4520   7.888   1.588   2.046  2.0944  0.0247  1.8892
   38MOL     H7 4521   7.815   1.515   1.801  1.0257  0.8558 -0.2420
   38MOL     C8 4522   0.028   1.416   2.071  0.6625 -0.3860  0.6392
   38MOL     C9 4523   0.041   1.397   2.226  0.0214  0.5595 -0.1564
   38MOL    F10 4524   0.144   1.315   2.256  0.6956  0.0610  0.1419
   38MOL    H11 4525   0.052   1.316   2.037 -2.9653 -1.1513  0.0909
   38MOL    H12 4526   0.109   1.477   2.031 -0.1517  0.8483  0.8405
   38MOL    H13 4527   7.951   1.350   2.257  0.0874 -0.1297 -0.9983
   38MOL    C14 4528   0.053   1.531   2.305 -0.3156 -0.0029 -0.5739
   38MOL    C15 4529   0.180   1.603   2.300  0.2281 -0.1678  0.0797
   38MOL    F16 4530   0.200   1.663   2.181  0.0252 -0.4968  0.1354
   38MOL    H17 4531   7.968   1.591   2.280 -1.6012 -1.1016  1.2153
   38MOL    H18 4532   0.035   1.505   2.409 -0.7152  0.9887 -0.3881
   38MOL    H19 4533   0.264   1.535   2.315  0.2100 -0.3429 -0.5853
   38MOL    C20 4534   0.201   1.700   2.405  0.1413  0.0750  0.1915
   38MOL    C21 4535   0.344   1.757   2.404  0.4812  0.5085 -0.1851
   38MOL    F22 4536   0.384   1.790   2.280  0.0264  0.3521  0.2239
   38MOL    H23 4537   0.134   1.784   2.391 -0.9341 -0.8236 -0.1646
   38MOL    H24 4538   0.176   1.651   2.499 -0.7867 -0.0437 -0.1090
   38MOL    H25 4539   0.405   1.678   2.448 -3.3383 -2.1901  0.4941
   38MOL    C26 4540   0.359   1.884   2.490 -0.5340 -0.2967  0.8519
   38MOL    C27 4541   0.327   1.861   2.639 -0.0870 -0.2814 -0.3582
   38MOL    F28 4542   0.411   1.758   2.673  0.4004 -0.1026  0.3987
   38MOL    H29 4543   0.464   1.913   2.479 -0.1103 -1.6091  1.3087
   38MOL    H30 4544   0.296   1.965   2.454 -0.3332 -0.5076  0.0115
   38MOL    H31 4545   0.229   1.820   2.665 -0.0668 -0.6924 -0.9137
   38MOL    C32 4546   0.351   1.994   2.714  0.4915 -0.2487  0.1366
   38MOL    C33 4547   0.341   1.975   2.859 -0.0222  0.1527  0.4377
   38MOL    F34 4548   0.447   1.901   2.890 -0.4886  0.2254 -0.2179
   38MOL    H35 4549   0.436   2.053   2.679  0.9137  0.1458  1.7789
   38MOL    H36 4550   0.260   2.047   2.686 -0.7340 -1.7502  1.2112
   38MOL    H37 4551   0.261   1.909   2.892 -0.6291  0.0649 -1.1467
   38MOL    C38 4552   0.316   2.107   2.938 -0.0653 -0.2283  0.0901
   38MOL    C39 4553   0.317   2.102   3.095  0.1132 -0.4941  0.4214
   38MOL    F40 4554   0.317   2.229   3.129  0.3317  0.2014 -0.4456
   38MOL    H41 4555   0.384   2.188   2.911  0.6641 -0.1280  2.1147
   38MOL    H42 4556   0.214   2.134   2.909 -0.3740 -1.0246  0.4333
   38MOL    H43 4557   0.413   2.070   3.136 -0.2952 -1.1858  0.8537
   38MOL    C44 4558   0.189   2.041   3.160  0.9071  0.5546 -0.5940
   38MOL    C45 4559   0.202   2.054   3.315 -0.1810  0.4227  0.0316
   38MOL    F46 4560   0.167   2.172   3.368  0.1446  0.2428  0.5503
   38MOL    H47 4561   0.099   2.098   3.135 -0.1727 -0.8626 -0.0490
   38MOL    H48 4562   0.179   1.940   3.120  0.1737 -0.3383  1.7401
   38MOL    H49 4563   0.302   2.032   3.351 -0.7920 -0.3179  1.3028
   38MOL    C50 4564   0.104   1.964   3.384  0.0634 -0.6908  0.5883
   38MOL    C51 4565   0.125   1.813   3.370  0.4097  0.3500 -0.4149
   38MOL    F52 4566   0.255   1.779   3.403 -0.0005 -0.2125  0.3510
   38MOL    H53 4567   0.113   1.985   3.491 -0.3039  0.8881  0.3288
   38MOL    H54 4568   8.001   1.988   3.374  0.6364  1.4750 -0.6965
   38MOL    H55 4569   0.112   1.775   3.269  1.0967  1.2332 -0.8430
   38MOL    C56 4570   0.041   1.735   3.473  0.3020 -0.1603 -0.0554
   38MOL    C57 4571   0.056   1.587   3.475 -0.7206  0.7220 -0.5774
   38MOL    F58 4572   7.961   1.547   3.558 -0.1478  0.4055  0.2656
   38MOL    H59 4573   0.054   1.780   3.571  1.0986  2.5301 -1.3446
   38MOL    H60 4574   7.939   1.746   3.446 -0.0303  0.3905  1.4299
   38MOL    H61 4575   0.151   1.573   3.527 -0.4317  0.9364 -1.0391
   38MOL    C62 4576   0.035   1.500   3.350  0.1557 -0.6455  0.6955
   38MOL    C63 4577   7.891   1.489   3.302 -0.9393  0.0855 -0.2294
   38MOL    F64 4578   7.841   1.612   3.275 -0.0686  0.5417 -0.7258
   38MOL    H65 4579   0.097   1.526   3.265  1.2297 -1.2483  1.2866
   38MOL    H66 4580   0.071   1.402   3.383  0.1269 -0.7698  0.3594
   38MOL    H67 4581   7.829   1.449   3.382 -0.1949 -1.1359 -0.2401
   38MOL    C68 4582   7.869   1.400   3.180  0.4463  0.5995  0.2418
   38MOL    C69 4583   7.722   1.369   3.154 -0.2600 -0.4408  0.2464
   38MOL    F70 4584   7.646   1.468   3.111 -0.2797  0.0514  0.4970
   38MOL    H71 4585   7.923   1.445   3.097  0.0437  3.9894  1.7173
   38MOL    H72 4586   7.919   1.303   3.178 -0.0132  0.3670  0.0074
   38MOL    H73 4587   7.673   1.338   3.246 -0.9750  2.2089  0.7781
   38MOL    C74 4588   7.690   1.241   3.067  0.0308  0.1191 -0.2482
   38MOL    C75 4589   7.536   1.222   3.047  0.0511  0.6594 -0.3029
   38MOL    F76 4590   7.520   1.141   2.944 -0.4032  0.6345 -0.3597
   38MOL    H77 4591   7.745   1.238   2.973 -0.6194 -0.1831 -0.6161
   38MOL    H78 4592   7.743   1.164   3.123 -0.7362 -0.8763 -0.8889
   38MOL    H79 4593   7.487   1.315   3.018 -1.8342  0.3752  1.8276
   38MOL    C80 4594   7.461   1.178   3.174  0.0058 -0.1303 -0.4203
   38MOL    C81 4595   7.312   1.185   3.154 -0.0097  0.2642  0.4835
   38MOL    F82 4596   7.267   1.306   3.126 -0.0596  0.1587  0.7045
   38MOL    H83 4597   7.478   1.072   3.193  2.9151 -0.2900 -3.3730
   38MOL    H84 4598   7.475   1.238   3.265 -0.5413  0.1601 -0.5285
   38MOL    H85 4599   7.261   1.163   3.248 -1.4474 -0.4635 -0.4441
   38MOL    C86 4600   7.236   1.086   3.053 -0.4042 -0.4237 -0.4565
   38MOL    C87 4601   7.259   0.936   3.081 -0.2969  0.0922  0.0746
   38MOL    F88 4602   7.232   0.907   3.210  0.1210  0.4134  0.9140
   38MOL    H89 4603   7.130   1.112   3.049 -0.2106  0.3175 -0.8128
   38MOL    H90 4604   7.282   1.114   2.958  1.2127 -1.3598  0.0387
   38MOL    H91 4605   7.365   0.923   3.059 -0.2921  1.2200 -0.6217
   38MOL    C92 4606   7.179   0.842   2.992 -0.5316  0.5291 -0.2353
   38MOL    C93 4607   7.212   0.688   3.032  0.0881 -0.1738  0.7730
   38MOL    F94 4608   7.153   0.629   2.925  0.0116 -0.2302  0.3885
   38MOL    H95 4609   7.072   0.858   3.005 -0.3722  1.6217 -0.1835
   38MOL    H96 4610   7.186   0.869   2.887 -1.8444  0.4512 -0.3461
   38MOL    H97 4611   7.152   0.655   3.117 -0.2385  0.0496  0.6322
   38MOL    C98 4612   7.361   0.648   3.033  0.0517  0.8774 -0.2160
   38MOL    C99 4613   7.373   0.492   3.044 -0.3761 -0.2985 -0.0700
   38MOL   F100 4614   7.497   0.463   3.032  0.0048  0.2491  0.3148
   38MOL   H101 4615   7.420   0.675   2.946  1.1743  0.5857  0.4380
   38MOL   H102 4616   7.419   0.671   3.123  1.2796 -1.0216 -0.4932
   38MOL   H103 4617   7.333   0.429   2.964 -0.0867 -0.6002  0.0210
   38MOL   C104 4618   7.324   0.427   3.177 -1.2908  0.4825 -0.8854
   38MOL   C105 4619   7.405   0.458   3.302  0.2608  0.3591  0.5698
   38MOL   F106 4620   7.341   0.423   3.413  0.5182  0.0518 -0.1953
   38MOL   H107 4621   7.220   0.452   3.198 -0.9331  1.3234 -0.1188
   38MOL   H108 4622   7.321   0.319   3.158  0.5448 -0.1789  2.2496
   38MOL   H109 4623   7.406   0.567   3.303  3.0894  0.3758  1.0463
   38MOL   C110 4624   7.550   0.401   3.302 -0.1424 -0.4983 -0.3184
   38MOL   C111 4625   7.636   0.413   3.429 -0.5151  0.1522  0.5901
   38MOL   F112 4626   7.757   0.350   3.399 -0.3723 -0.1537  0.3828
   38MOL   H113 4627   7.540   0.296   3.277 -1.3013 -0.4093 -0.2186
   38MOL   H114 4628   7.612   0.437   3.220 -1.2594  0.3959 -0.7770
   38MOL   H115 4629   7.594   0.352   3.509 -3.1449  1.5613  0.3619
   38MOL   C116 4630   7.657   0.559   3.471  0.0907  0.3924 -0.5691
   38MOL   C117 4631   7.715   0.596   3.610  0.3397  0.0331  0.1616
   38MOL   F118 4632   7.741   0.725   3.614  0.2345  0.2584 -0.5856
   38MOL   H119 4633   7.705   0.618   3.393 -0.3153  1.4690 -0.0200
   38MOL   H120 4634   7.558   0.604   3.470  0.4815  1.3541  1.2237
   38MOL   H121 4635   7.815   0.556   3.624  0.2732  0.4933  1.9893
   38MOL   H122 4636   7.656   0.566   3.697 -0.3211  0.4032 -0.1504
   39MOL     C1 4637   5.193   6.427   5.568 -0.0845 -0.6189 -0.4774
   39MOL     C2 4638   5.053   6.477   5.525 -0.5367 -0.3579  0.4627
   39MOL     F3 4639   4.966   6.422   5.605 -0.2443  0.4971  0.0650
   39MOL     H4 4640   5.268   6.476   5.505 -0.5748 -0.3289 -0.8372
   39MOL     H5 4641   5.200   6.318   5.564  2.3445 -0.5185  0.2502
   39MOL     H6 4642   5.037   6.449   5.421 -0.0128  0.2934  0.2041
   39MOL     H7 4643   5.196   6.446   5.675  0.4940  1.8314 -0.8925
   39MOL     C8 4644   5.039   6.626   5.543  0.4923  0.0698 -0.1592
   39MOL     C9 4645   4.909   6.695   5.498 -0.6596 -0.4194 -0.3471
   39MOL    F10 4646   4.917   6.812   5.559  0.4595  0.5964  0.1929
   39MOL    H11 4647   5.058   6.649   5.647  1.2515  0.9408 -0.4849
   39MOL    H12 4648   5.126   6.675   5.500 -1.2377  3.2671 -0.1375
   39MOL    H13 4649   4.820   6.644   5.534 -2.0106  0.3505 -2.5578
   39MOL    C14 4650   4.902   6.699   5.337  0.0468 -0.2139 -0.5593
   39MOL    C15 4651   4.764   6.737   5.279  0.4926 -1.2061  0.4893
   39MOL    F16 4652   4.682   6.636   5.289  0.3118 -0.1495 -0.0520
   39MOL    H17 4653   4.976   6.764   5.289  3.4208 -2.2460  1.7256
   39MOL    H18 4654   4.935   6.608   5.288 -0.5294 -0.6674 -0.1104
   39MOL    H19 4655   4.795   6.740   5.175 -0.9420  2.3186  0.1138
   39MOL    C20 4656   4.703   6.863   5.339  0.2013  0.5507  0.7334
   39MOL    C21 4657   4.796   6.982   5.323  0.7716  0.5168 -0.5247
   39MOL    F22 4658   4.842   6.983   5.198  0.2001  0.1436  0.1157
   39MOL    H23 4659   4.604   6.881   5.298 -0.5147 -1.5903  1.4373
   39MOL    H24 4660   4.674   6.851   5.443 -0.0250  2.1657  0.8630
   39MOL    H25 4661   4.882   6.966   5.389 -0.0233  2.7863  1.1320
   39MOL    C26 4662   4.716   7.106   5.363  0.3830 -0.4692  0.2569
   39MOL    C27 4663   4.805   7.225   5.398  0.5172 -0.4211  0.6942
   39MOL    F28 4664   4.719   7.318   5.441  0.1118 -0.6566 -0.1977
   39MOL    H29 4665   4.647   7.121   5.279  1.0729 -0.9492 -0.3963
   39MOL    H30 4666   4.650   7.082   5.446 -1.5005 -0.2952 -1.1453
   39MOL    H31 4667   4.864   7.271   5.319 -1.7364  0.1208 -0.7137
   39MOL    C32 4668   4.901   7.200   5.518 -0.4681 -0.2341 -0.0796
   39MOL    C33 4669   4.948   7.322   5.591 -0.3147 -0.6822 -0.1549
   39MOL    F34 4670   4.998   7.283   5.706 -0.2431  0.1183  0.3813
   39MOL    H35 4671   4.852   7.133   5.589 -1.5769  0.7239  0.0637
   39MOL    H36 4672   4.979   7.139   5.472 -0.3285  0.8851 -1.3692
   39MOL    H37 4673   4.865   7.388   5.617 -1.1392 -0.1295 -3.9261
   39MOL    C38 4674   5.060   7.395   5.520 -0.3256  1.0569  0.0866
   39MOL    C39 4675   5.103   7.524   5.591  0.2922 -0.1384 -1.0155
   39MOL    F40 4676   5.223   7.561   5.544  0.3595 -0.3520 -0.2450
   39MOL    H41 4677   5.142   7.323   5.513 -1.1794 -0.0206  0.9236
   39MOL    H42 4678   5.037   7.413   5.415  0.7289 -1.7655 -0.6701
   39MOL    H43 4679   5.132   7.512   5.695  0.2743  0.8106 -0.9050
   39MOL    C44 4680   4.998   7.636   5.561 -0.4740 -0.5769  0.0565
   39MOL    C45 4681   5.057   7.772   5.598  0.5563  0.1431 -0.3197
   39MOL    F46 4682   5.146   7.798   5.505  0.4356 -0.6035  0.0217
   39MOL    H47 4683   4.963   7.647   5.458 -0.5947  0.1670  0.1783
   39MOL    H48 4684   4.907   7.621   5.621  0.7812  1.7102  2.6223
   39MOL    H49 4685   5.104   7.770   5.697 -0.0763  0.9660  0.0053
   39MOL    C50 4686   4.951   7.883   5.607  0.2347 -0.1718 -0.2969
   39MOL    C51 4687   5.015   0.016   5.633 -0.2512  0.8947  0.5425
   39MOL    F52 4688   5.056   0.058   5.511 -0.1467  0.2342  0.3908
   39MOL    H53 4689   4.871   7.871   5.535 -1.0672 -0.5444  1.1971
   39MOL    H54 4690   4.894   7.873   5.699 -0.5395 -1.5854 -0.9183
   39MOL    H55 4691   5.100   0.002   5.699 -0.3147  2.9554  1.0960
   39MOL    C56 4692   4.930   0.133   5.686 -0.1354  0.8427 -0.3705
   39MOL    C57 4693   4.788   0.144   5.626 -0.2491 -0.2733 -0.1748
   39MOL    F58 4694   4.719   0.227   5.704 -0.5808  0.3375  0.4248
   39MOL    H59 4695   4.908   0.122   5.792  0.6680  0.1598 -0.2719
   39MOL    H60 4696   4.989   0.224   5.674 -0.7829  1.7368  2.7434
   39MOL    H61 4697   4.733   0.050   5.619 -0.9809  0.2844 -2.4953
   39MOL    C62 4698   4.795   0.179   5.475  0.0600  0.0225 -0.7305
   39MOL    C63 4699   4.666   0.177   5.390 -0.3808 -0.9156 -0.2654
   39MOL    F64 4700   4.612   0.059   5.383  0.1000 -0.3908  0.2210
   39MOL    H65 4701   4.845   0.275   5.469  1.8300 -0.8638 -0.4028
   39MOL    H66 4702   4.862   0.111   5.423  0.7423 -1.5398  2.1043
   39MOL    H67 4703   4.691   0.185   5.285  0.4339 -0.2948 -0.0321
   39MOL    C68 4704   4.561   0.288   5.428  0.1511  0.9664 -0.0098
   39MOL    C69 4705   4.428   0.298   5.347 -0.1244 -0.3777 -0.2126
   39MOL    F70 4706   4.362   0.406   5.393  0.7087  0.2752 -0.0588
   39MOL    H71 4707   4.537   0.259   5.530  1.0727 -2.4676 -0.6856
   39MOL    H72 4708   4.618   0.381   5.424  2.1242 -0.2508 -1.2616
   39MOL    H73 4709   4.359   0.218   5.370 -0.7218  0.2035  0.0182
   39MOL    C74 4710   4.436   0.286   5.192  0.2397  0.4994  0.2262
   39MOL    C75 4711   4.489   0.409   5.122 -1.0361  0.7587 -0.4530
   39MOL    F76 4712   4.618   0.434   5.167 -0.4044 -0.3983 -0.5647
   39MOL    H77 4713   4.479   0.194   5.153 -2.0957 -0.0533 -1.0961
   39MOL    H78 4714   4.332   0.271   5.165  1.0072 -2.6124 -1.2171
   39MOL    H79 4715   4.437   0.502   5.147 -0.4515  0.8963  0.2790
   39MOL    C80 4716   4.507   0.394   4.968 -0.6841 -0.3579 -0.3221
   39MOL    C81 4717   4.376   0.381   4.896 -0.6705 -0.3601  0.9031
   39MOL    F82 4718   4.314   0.497   4.903  0.7226 -0.0206 -0.4313
   39MOL    H83 4719   4.544   0.491   4.935 -0.0997 -0.8527 -1.1590
   39MOL    H84 4720   4.583   0.321   4.941 -0.8512 -0.3031 -0.9728
   39MOL    H85 4721   4.309   0.303   4.933 -1.4826 -0.1626 -0.1152
   39MOL    C86 4722   4.388   0.352   4.746 -0.5371  0.2834  1.1584
   39MOL    C87 4723   4.424   0.210   4.707 -0.1024 -0.0958  0.1683
   39MOL    F88 4724   4.532   0.167   4.772  0.6191  0.5397  0.0873
   39MOL    H89 4725   4.305   0.399   4.692  0.8375 -0.2795 -1.5146
   39MOL    H90 4726   4.460   0.423   4.706 -1.1044 -0.0457 -0.4955
   39MOL    H91 4727   4.462   0.219   4.605  0.7456  2.2422  0.6562
   39MOL    C92 4728   4.323   0.106   4.717  0.3982  0.2330 -0.0535
   39MOL    C93 4729   4.222   0.105   4.594 -0.4460  0.4610 -0.0263
   39MOL    F94 4730   4.288   0.096   4.477  0.0090 -0.1352 -0.1908
   39MOL    H95 4731   4.367   0.007   4.730 -0.3725 -0.7552 -4.2759
   39MOL    H96 4732   4.261   0.131   4.803 -0.1732  0.0637 -0.4087
   39MOL    H97 4733   4.173   0.203   4.593  0.6907  1.0697 -3.5805
   39MOL    C98 4734   4.118   7.989   4.595 -0.0614 -0.1082  0.3881
   39MOL    C99 4735   3.995   0.009   4.517 -0.0354 -0.1587 -0.3067
   39MOL   F100 4736   4.044   0.044   4.398 -0.0836 -0.1836  0.0051
   39MOL   H101 4737   4.157   7.892   4.564  0.0558  0.7588 -2.3517
   39MOL   H102 4738   4.083   7.974   4.697 -2.0638 -4.2243 -0.7796
   39MOL   H103 4739   3.939   0.093   4.559 -1.6332 -0.6999 -1.3069
   39MOL   C104 4740   3.903   7.894   4.493 -0.0104  0.1997  0.4961
   39MOL   C105 4741   3.819   7.863   4.619 -0.3550 -0.4318 -0.2449
   39MOL   F106 4742   3.758   7.975   4.656 -0.1017  0.1455  0.4441
   39MOL   H107 4743   3.828   7.920   4.418 -1.8689 -4.2040  0.7014
   39MOL   H108 4744   3.951   7.808   4.446  1.5944  1.1579  0.3448
   39MOL   H109 4745   3.877   7.836   4.707 -2.7804  0.5042  1.6867
   39MOL   C110 4746   3.715   7.758   4.580 -0.6209 -0.0906 -0.1019
   39MOL   C111 4747   3.657   7.677   4.703 -0.1997 -0.3919 -0.4592
   39MOL   F112 4748   3.768   7.630   4.763 -0.1659  0.1821 -0.5094
   39MOL   H113 4749   3.636   7.800   4.519 -1.6178  0.1597  1.3402
   39MOL   H114 4750   3.774   7.691   4.518 -1.9127  1.1480 -2.7259
   39MOL   H115 4751   3.601   7.591   4.667 -0.8673 -0.0867 -0.1634
   39MOL   C116 4752   3.578   7.769   4.801 -0.1576 -0.0330 -0.2488
   39MOL   C117 4753   3.545   7.688   4.930 -0.8589  0.6423  0.1823
   39MOL   F118 4754   3.476   7.775   4.999  0.3070 -0.3286  0.4785
   39MOL   H119 4755   3.652   7.844   4.828  1.4656 -2.0620  1.0006
   39MOL   H120 4756   3.488   7.818   4.763  1.7906  2.2093 -2.1304
   39MOL   H121 4757   3.638   7.661   4.980 -1.1225  1.5791  1.2004
   39MOL   H122 4758   3.482   7.599   4.924 -0.9504  0.8137 -1.6712
   40MOL     C1 4759   1.697   1.093   1.253  0.0876 -0.3079 -0.0680
   40MOL     C2 4760   1.614   1.209   1.294  0.3783  0.0986 -0.6303
   40MOL     F3 4761   1.605   1.222   1.423  0.1883  0.1851 -0.3676
   40MOL     H4 4762   1.655   0.998   1.287  0.5341 -0.0135  1.3636
   40MOL     H5 4763   1.800   1.091   1.288  0.0790 -1.6530 -0.1157
   40MOL     H6 4764   1.510   1.198   1.262 -0.4475  2.1430  1.1899
   40MOL     H7 4765   1.696   1.086   1.145  0.1916 -1.0763 -0.0201
   40MOL     C8 4766   1.666   1.354   1.251 -0.3685 -0.0143 -0.4904
   40MOL     C9 4767   1.666   1.383   1.098  0.0911  0.0773 -0.0815
   40MOL    F10 4768   1.539   1.363   1.056  0.1316 -0.0598  0.6755
   40MOL    H11 4769   1.609   1.432   1.302 -0.7996 -1.5374  1.4199
   40MOL    H12 4770   1.765   1.365   1.295  0.0566 -1.8460 -0.9352
   40MOL    H13 4771   1.724   1.309   1.044 -1.6959 -0.2435 -1.6259
   40MOL    C14 4772   1.708   1.533   1.066  0.2009  0.1613  0.4414
   40MOL    C15 4773   1.802   1.556   0.947 -0.3878 -0.2334  0.1959
   40MOL    F16 4774   1.768   1.672   0.891  0.0132 -0.0425 -0.7230
   40MOL    H17 4775   1.620   1.595   1.047  0.2881  0.1639  0.0244
   40MOL    H18 4776   1.735   1.578   1.161 -0.9614  1.4711  0.1637
   40MOL    H19 4777   1.771   1.482   0.873  0.7130  2.4225 -3.0540
   40MOL    C20 4778   1.952   1.566   0.972  0.0663  0.4989 -0.0548
   40MOL    C21 4779   2.024   1.443   1.025 -0.4011  0.5019 -0.1889
   40MOL    F22 4780   1.987   1.344   0.943  0.3353 -0.1617 -0.3956
   40MOL    H23 4781   2.001   1.589   0.878  0.1051 -1.2539 -0.4737
   40MOL    H24 4782   1.957   1.652   1.039 -1.9396 -0.8424  1.8888
   40MOL    H25 4783   1.998   1.427   1.130  2.4739 -0.2987  0.4690
   40MOL    C26 4784   2.177   1.454   1.015  0.4813  0.1189 -0.5032
   40MOL    C27 4785   2.238   1.313   1.054  0.5466  0.2851 -0.0733
   40MOL    F28 4786   2.366   1.338   1.031  0.3740  0.0765  0.3439
   40MOL    H29 4787   2.224   1.479   0.920 -0.0099  1.6492 -0.3591
   40MOL    H30 4788   2.196   1.535   1.086 -0.1010 -1.5696  1.6101
   40MOL    H31 4789   2.211   1.241   0.978 -0.2654  1.4661 -0.9287
   40MOL    C32 4790   2.209   1.263   1.199 -0.1442  0.1814 -0.2072
   40MOL    C33 4791   2.291   1.139   1.241 -0.1139  0.1015  0.0827
   40MOL    F34 4792   2.267   1.123   1.372  0.1737  0.5199 -0.1809
   40MOL    H35 4793   2.223   1.348   1.265  2.3492 -0.5392  0.2414
   40MOL    H36 4794   2.104   1.235   1.203  0.2477 -1.2296  0.4819
   40MOL    H37 4795   2.396   1.168   1.248 -0.0059 -0.0439 -0.8519
   40MOL    C38 4796   2.260   1.009   1.166  0.2247 -0.2647 -0.7573
   40MOL    C39 4797   2.319   0.879   1.222 -0.2931 -0.1876  0.1438
   40MOL    F40 4798   2.246   0.776   1.179 -0.6246  0.3419  0.1634
   40MOL    H41 4799   2.151   1.003   1.175  0.1817  1.1953 -0.0571
   40MOL    H42 4800   2.289   1.018   1.061  0.5515 -1.4119 -0.7748
   40MOL    H43 4801   2.293   0.878   1.328  0.9227 -0.2714  0.4501
   40MOL    C44 4802   2.472   0.859   1.190 -0.0073 -0.0217  0.3791
   40MOL    C45 4803   2.504   0.815   1.044  0.4463 -0.1527 -0.2589
   40MOL    F46 4804   2.479   0.917   0.959 -0.2575 -0.7325  0.0985
   40MOL    H47 4805   2.520   0.953   1.216 -1.9126  0.8008  1.0643
   40MOL    H48 4806   2.525   0.787   1.253  0.1972 -0.3765 -0.1979
   40MOL    H49 4807   2.438   0.733   1.014 -2.0437  1.3353  1.0102
   40MOL    C50 4808   2.652   0.773   1.016 -0.2814 -0.2062  0.4591
   40MOL    C51 4809   2.679   0.713   0.876  0.3294  0.3565 -0.4632
   40MOL    F52 4810   2.628   0.797   0.781 -0.1763  0.0784  0.5194
   40MOL    H53 4811   2.716   0.860   1.031  1.1887 -1.1120 -0.4643
   40MOL    H54 4812   2.679   0.706   1.098 -0.7257 -1.5883 -0.5049
   40MOL    H55 4813   2.608   0.631   0.860  0.7425  0.1102 -1.0725
   40MOL    C56 4814   2.821   0.660   0.852  0.1147 -0.0844  0.8272
   40MOL    C57 4815   2.846   0.584   0.718 -0.9622 -0.0007 -0.4788
   40MOL    F58 4816   2.981   0.588   0.706 -0.1144 -0.4847  0.0400
   40MOL    H59 4817   2.892   0.743   0.859 -0.0564  0.0298  1.2535
   40MOL    H60 4818   2.855   0.605   0.940  1.1775 -2.1322 -0.8262
   40MOL    H61 4819   2.810   0.642   0.633 -0.9198 -1.1151 -1.2637
   40MOL    C62 4820   2.803   0.428   0.721  0.0612 -0.5113 -0.4265
   40MOL    C63 4821   2.843   0.341   0.595  0.3186  0.4380  0.5232
   40MOL    F64 4822   2.791   0.224   0.623 -0.3596  0.0118 -0.0021
   40MOL    H65 4823   2.856   0.385   0.805 -0.6201 -1.0896 -0.2891
   40MOL    H66 4824   2.697   0.436   0.745  0.0699  2.0849 -1.1079
   40MOL    H67 4825   2.951   0.332   0.587  0.0101 -1.5040 -1.9762
   40MOL    C68 4826   2.767   0.390   0.464  0.0372 -0.0808 -0.1366
   40MOL    C69 4827   2.612   0.412   0.490 -0.1354 -0.8340 -0.2097
   40MOL    F70 4828   2.593   0.540   0.530 -0.1431 -0.1443  0.0223
   40MOL    H71 4829   2.811   0.488   0.445 -2.1502  1.4157  2.1897
   40MOL    H72 4830   2.784   0.317   0.385  2.5386  1.2026 -0.8547
   40MOL    H73 4831   2.583   0.338   0.565  1.3407 -0.0309  1.1886
   40MOL    C74 4832   2.527   0.397   0.365  0.1477  0.3853  0.3054
   40MOL    C75 4833   2.514   0.254   0.310 -0.2272 -0.2329  0.0408
   40MOL    F76 4834   2.475   0.182   0.418  0.2043 -0.2142  0.2748
   40MOL    H77 4835   2.426   0.433   0.383  0.9463  1.9969  1.6191
   40MOL    H78 4836   2.569   0.464   0.290  0.4776  1.3994  1.3946
   40MOL    H79 4837   2.616   0.229   0.281 -0.5756 -2.7316  0.7908
   40MOL    C80 4838   2.409   0.232   0.201 -0.2815  0.0489  0.4006
   40MOL    C81 4839   2.453   0.303   0.071  0.8502  0.9597  0.0686
   40MOL    F82 4840   2.552   0.228   0.024  0.1208 -0.5967 -0.1793
   40MOL    H83 4841   2.394   0.125   0.187  1.1952 -0.5147  2.8877
   40MOL    H84 4842   2.314   0.275   0.233  0.8116  3.5204 -0.7758
   40MOL    H85 4843   2.488   0.405   0.090 -0.6836  1.3891  0.6899
   40MOL    C86 4844   2.332   0.311   7.972  0.1209  0.3091  0.2548
   40MOL    C87 4845   2.371   0.369   7.837  0.2180  0.2225 -0.6149
   40MOL    F88 4846   2.431   0.280   7.758 -0.2792 -0.3915  0.1815
   40MOL    H89 4847   2.283   0.215   7.955 -2.0013  1.5261 -0.7107
   40MOL    H90 4848   2.264   0.381   0.017  0.4643  1.9243 -1.5158
   40MOL    H91 4849   2.438   0.454   7.845 -0.3788  0.5953  0.5894
   40MOL    C92 4850   2.253   0.424   7.752 -0.8602 -1.1767 -0.2275
   40MOL    C93 4851   2.158   0.534   7.816  0.2005  0.8111  0.0056
   40MOL    F94 4852   2.232   0.634   7.867 -0.3408  0.4794 -0.6219
   40MOL    H95 4853   2.285   0.464   7.656 -0.1045 -0.2320  0.4145
   40MOL    H96 4854   2.202   0.336   7.712 -0.0272 -1.6360 -0.2894
   40MOL    H97 4855   2.106   0.478   7.893 -0.2418 -1.3238 -1.8033
   40MOL    C98 4856   2.067   0.598   7.699  0.1498 -0.3051 -0.1214
   40MOL    C99 4857   1.946   0.512   7.669 -0.1144 -0.2596 -0.6763
   40MOL   F100 4858   1.882   0.487   7.786  0.1040 -0.3670 -0.0173
   40MOL   H101 4859   2.024   0.689   7.742 -1.0974 -0.4373 -1.0510
   40MOL   H102 4860   2.129   0.617   7.612 -0.9944  0.5000 -0.7828
   40MOL   H103 4861   1.980   0.420   7.623  1.9059  0.6459 -1.0579
   40MOL   C104 4862   1.843   0.577   7.585  0.5142 -0.2488 -0.5939
   40MOL   C105 4863   1.730   0.485   7.529  0.1357  0.4686 -0.6056
   40MOL   F106 4864   1.613   0.542   7.551  0.0821 -0.1049 -0.2971
   40MOL   H107 4865   1.784   0.648   7.643  2.0239  0.1326  0.5035
   40MOL   H108 4866   1.887   0.639   7.507  2.1980 -0.6818 -0.0044
   40MOL   H109 4867   1.733   0.390   7.582  1.2710  1.5456  1.3115
   40MOL   C110 4868   1.755   0.449   7.390  0.0664  0.0661 -0.2621
   40MOL   C111 4869   1.656   0.346   7.325  0.1866 -0.0616  0.4255
   40MOL   F112 4870   1.665   0.361   7.194 -0.1587  0.3167  0.5412
   40MOL   H113 4871   1.752   0.542   7.335 -0.1424  0.2968  0.1369
   40MOL   H114 4872   1.857   0.409   7.385 -0.1947 -0.5018 -1.2049
   40MOL   H115 4873   1.554   0.377   7.347  0.3643  1.0495 -0.2866
   40MOL   C116 4874   1.683   0.201   7.363  0.2255  0.0224 -0.1862
   40MOL   C117 4875   1.599   0.098   7.285  1.1551  0.1473 -0.8109
   40MOL   F118 4876   1.614   7.980   7.336 -0.2930 -0.1116  0.1691
   40MOL   H119 4877   1.789   0.175   7.358 -0.2167 -1.9603  0.2156
   40MOL   H120 4878   1.658   0.178   7.467  0.7726 -2.3573 -0.5587
   40MOL   H121 4879   1.627   0.103   7.179 -0.0522  0.2080 -1.1312
   40MOL   H122 4880   1.493   0.124   7.282  1.2489  0.9299  1.8172
   41MOL     C1 4881   7.044   1.697   7.008  0.2439 -0.1325 -0.1860
   41MOL     C2 4882   7.045   1.579   7.108  0.0324  0.4393  0.0488
   41MOL     F3 4883   6.967   1.612   7.208 -0.4114 -0.5471  0.1879
   41MOL     H4 4884   6.941   1.698   6.974  0.9945  0.7491 -2.5178
   41MOL     H5 4885   7.124   1.688   6.934  0.6079  0.5172  0.1252
   41MOL     H6 4886   7.143   1.565   7.152 -0.0236  0.4687  0.1860
   41MOL     H7 4887   7.068   1.787   7.065 -1.4430 -0.2484  0.7268
   41MOL     C8 4888   7.021   1.441   7.037  0.2193  0.8577 -0.9416
   41MOL     C9 4889   7.029   1.328   7.151  0.5272  0.2756 -0.2606
   41MOL    F10 4890   6.935   1.255   7.108  0.1092 -0.2723  0.0532
   41MOL    H11 4891   6.922   1.443   6.991 -0.1781  1.4976 -0.0602
   41MOL    H12 4892   7.088   1.423   6.953 -0.7464 -1.6820 -1.2241
   41MOL    H13 4893   7.003   1.371   7.248 -0.9576 -2.0441  0.3938
   41MOL    C14 4894   7.162   1.246   7.161  0.4299  0.8686 -0.4826
   41MOL    C15 4895   7.156   1.136   7.267 -0.6622 -1.0429 -0.1018
   41MOL    F16 4896   7.256   1.050   7.245  0.1274 -0.3203  0.1179
   41MOL    H17 4897   7.185   1.210   7.061  2.5193  1.4067 -0.2171
   41MOL    H18 4898   7.243   1.315   7.185 -2.6891  3.9070  1.6222
   41MOL    H19 4899   7.066   1.076   7.253 -0.4767 -0.8384 -2.3484
   41MOL    C20 4900   7.176   1.188   7.413 -0.4624 -0.1644 -0.5527
   41MOL    C21 4901   7.184   1.076   7.526 -0.0325  0.5806 -0.1555
   41MOL    F22 4902   7.295   1.007   7.519 -0.4359  0.1240 -0.2648
   41MOL    H23 4903   7.269   1.244   7.415 -1.0635  0.8841 -1.5415
   41MOL    H24 4904   7.102   1.255   7.457  0.4711 -0.7234  1.9434
   41MOL    H25 4905   7.105   1.007   7.495 -0.7629  1.9326 -1.4134
   41MOL    C26 4906   7.171   1.132   7.671  0.0115 -0.3072  0.4460
   41MOL    C27 4907   7.026   1.153   7.704 -0.1533  0.8169  0.1447
   41MOL    F28 4908   6.983   1.021   7.702  0.2454  0.0329 -0.2534
   41MOL    H29 4909   7.213   1.062   7.743  3.2535  0.8868 -0.2333
   41MOL    H30 4910   7.223   1.228   7.681  0.9651 -0.8034  0.2624
   41MOL    H31 4911   6.960   1.196   7.629  0.8049  0.8640 -0.6811
   41MOL    C32 4912   7.003   1.217   7.834  0.1182  0.0681 -1.0129
   41MOL    C33 4913   7.056   1.367   7.846 -0.0896 -0.5608 -1.1583
   41MOL    F34 4914   7.027   1.421   7.733 -0.2274 -0.3155  0.1134
   41MOL    H35 4915   6.896   1.217   7.850  0.6094  0.2092  2.6740
   41MOL    H36 4916   7.044   1.153   7.913  0.4894  0.3458 -0.9776
   41MOL    H37 4917   7.164   1.369   7.852 -0.2667  0.3073  2.8003
   41MOL    C38 4918   6.985   1.446   7.959 -0.9261  0.3639  0.3830
   41MOL    C39 4919   7.070   1.413   0.081 -0.0847  0.6487  0.5447
   41MOL    F40 4920   7.201   1.447   0.055  0.6353 -0.2732 -0.0365
   41MOL    H41 4921   6.996   1.553   7.940 -0.4482  0.4637  1.1757
   41MOL    H42 4922   6.880   1.418   7.969 -0.9573  1.4808  3.7822
   41MOL    H43 4923   7.074   1.308   0.110 -0.1511  0.6022  0.3809
   41MOL    C44 4924   7.041   1.494   0.209  0.2538 -0.3960  0.1539
   41MOL    C45 4925   6.923   1.437   0.307  0.4440 -0.3412  0.6418
   41MOL    F46 4926   6.943   1.311   0.328  0.1966 -0.2911  0.2045
   41MOL    H47 4927   7.127   1.487   0.276  1.8893 -0.7271 -1.9479
   41MOL    H48 4928   7.022   1.601   0.203 -4.3890 -1.3269 -3.8407
   41MOL    H49 4929   6.823   1.440   0.263  0.9309 -0.5384 -0.4965
   41MOL    C50 4930   6.929   1.505   0.447 -0.5473  0.0017 -0.1380
   41MOL    C51 4931   6.836   1.447   0.554  0.1325 -0.3297  1.1101
   41MOL    F52 4932   6.881   1.479   0.674 -0.1443  0.1899  0.2356
   41MOL    H53 4933   7.032   1.493   0.480 -1.2192 -0.6415  1.8378
   41MOL    H54 4934   6.912   1.612   0.437 -0.0533  0.0015 -1.0836
   41MOL    H55 4935   6.840   1.338   0.557  1.4936 -0.3417 -0.5428
   41MOL    C56 4936   6.687   1.489   0.537 -0.0903  0.4496 -0.6647
   41MOL    C57 4937   6.585   1.410   0.630 -0.7430 -0.0159  0.4521
   41MOL    F58 4938   6.615   1.444   0.757 -0.4869 -0.1112  0.8150
   41MOL    H59 4939   6.686   1.596   0.557 -1.5745  0.0469  1.6273
   41MOL    H60 4940   6.676   1.463   0.431  3.0527 -2.2124 -0.4262
   41MOL    H61 4941   6.603   1.303   0.618 -0.3429  0.3152 -2.1934
   41MOL    C62 4942   6.425   1.426   0.614  0.0262  0.2399 -0.0759
   41MOL    C63 4943   6.371   1.388   0.476 -0.5824 -0.5686  0.2159
   41MOL    F64 4944   6.408   1.268   0.437  0.1070  0.3238 -0.5750
   41MOL    H65 4945   6.392   1.361   0.694 -0.7282 -2.5355 -2.5655
   41MOL    H66 4946   6.397   1.531   0.632 -0.7243  0.5966 -3.0125
   41MOL    H67 4947   6.416   1.461   0.408 -0.8934 -0.7222 -0.1549
   41MOL    C68 4948   6.223   1.410   0.471  0.1143  0.1704  0.2022
   41MOL    C69 4949   6.164   1.416   0.330 -0.3001 -0.0158  0.3159
   41MOL    F70 4950   6.209   1.521   0.267 -0.2544 -0.1004 -0.3440
   41MOL    H71 4951   6.169   1.327   0.519  1.5325 -1.4704 -0.9895
   41MOL    H72 4952   6.198   1.506   0.515 -1.5141 -0.3455  0.4681
   41MOL    H73 4953   6.059   1.442   0.343 -0.2835 -0.5303  1.5942
   41MOL    C74 4954   6.183   1.291   0.242  0.7995  0.4615 -0.1550
   41MOL    C75 4955   6.146   1.153   0.303  0.4452 -0.5142 -0.4593
   41MOL    F76 4956   6.027   1.175   0.363  0.3008  0.0567  0.4547
   41MOL    H77 4957   6.116   1.309   0.158  1.8602 -0.9537 -1.3359
   41MOL    H78 4958   6.282   1.289   0.195  0.8476  0.8660 -0.0729
   41MOL    H79 4959   6.212   1.124   0.384 -0.2575 -2.2601 -0.5072
   41MOL    C80 4960   6.138   1.036   0.194 -0.3849 -0.1886 -0.2158
   41MOL    C81 4961   6.135   0.893   0.261  0.2863 -0.2956  0.6010
   41MOL    F82 4962   6.091   0.802   0.181 -0.2338 -0.2220  0.4200
   41MOL    H83 4963   6.057   1.059   0.126  1.7895  0.7393 -2.5563
   41MOL    H84 4964   6.219   1.047   0.122  0.3178  1.3196  0.7878
   41MOL    H85 4965   6.070   0.900   0.348 -1.1607 -1.1083 -0.3888
   41MOL    C86 4966   6.278   0.835   0.296 -0.1104 -0.3715  0.3774
   41MOL    C87 4967   6.292   0.714   0.396  0.1666  0.0722  0.2363
   41MOL    F88 4968   6.422   0.676   0.398  0.3173 -0.2968 -0.1560
   41MOL    H89 4969   6.326   0.803   0.204  1.8387 -0.4364  1.3955
   41MOL    H90 4970   6.341   0.918   0.328  0.9371 -1.6633  1.7122
   41MOL    H91 4971   6.225   0.639   0.355  1.9781 -1.0621 -0.7554
   41MOL    C92 4972   6.242   0.743   0.540 -0.3646  0.5623  0.3070
   41MOL    C93 4973   6.334   0.835   0.623  0.2999 -0.6052 -0.5120
   41MOL    F94 4974   6.348   0.942   0.554  0.3340  0.0733 -0.3194
   41MOL    H95 4975   6.138   0.776   0.541 -0.4367  0.6342 -3.1026
   41MOL    H96 4976   6.246   0.643   0.583 -0.1211 -0.0429 -1.1047
   41MOL    H97 4977   6.439   0.805   0.625  0.8343  1.2247 -0.6696
   41MOL    C98 4978   6.277   0.871   0.763 -0.3806  0.5437 -0.3825
   41MOL    C99 4979   6.369   0.969   0.840 -0.0103 -0.6333  0.7015
   41MOL   F100 4980   6.344   1.090   0.803  0.6381 -0.4023 -0.0362
   41MOL   H101 4981   6.177   0.915   0.774  0.8301  3.9695 -2.4180
   41MOL   H102 4982   6.270   0.775   0.814 -2.8604  0.1111 -1.4574
   41MOL   H103 4983   6.475   0.949   0.822  0.1120  1.7662 -1.5027
   41MOL   C104 4984   6.334   0.962   0.990  0.2124 -0.1233  0.4638
   41MOL   C105 4985   6.403   1.065   1.079  0.1245  0.2697  0.6865
   41MOL   F106 4986   6.346   1.069   1.204 -0.4867 -0.0989 -0.2778
   41MOL   H107 4987   6.230   0.982   1.015 -0.1045 -2.6617  1.2774
   41MOL   H108 4988   6.359   0.865   1.034  0.1206 -1.2047 -1.7917
   41MOL   H109 4989   6.399   1.162   1.029  0.0139  0.8193  1.7523
   41MOL   C110 4990   6.555   1.028   1.093  0.2036  0.2816 -0.2629
   41MOL   C111 4991   6.643   1.131   1.172 -0.3856 -0.0326  0.5581
   41MOL   F112 4992   6.643   1.240   1.112  0.0522  0.3606 -0.0959
   41MOL   H113 4993   6.556   0.925   1.127  2.9179  0.4189  0.1473
   41MOL   H114 4994   6.594   1.022   0.991  0.2823  0.5269 -0.2489
   41MOL   H115 4995   6.743   1.093   1.153 -0.0984  0.4879  1.0248
   41MOL   C116 4996   6.613   1.155   1.318  0.4108  0.2551  1.0633
   41MOL   C117 4997   6.729   1.219   1.394  0.2378  0.6949  0.2994
   41MOL   F118 4998   6.839   1.154   1.385 -0.5163  0.4382  0.5452
   41MOL   H119 4999   6.522   1.214   1.322 -0.0279 -0.1732 -1.9639
   41MOL   H120 5000   6.586   1.056   1.357 -0.0103 -0.7615 -1.6856
   41MOL   H121 5001   6.706   1.245   1.498 -0.5485 -0.3746  0.3997
   41MOL   H122 5002   6.741   1.319   1.352  0.6708  0.2441 -0.6578
   42MOL     C1 5003   3.581   4.778   3.315 -0.3017 -0.0909 -0.0577
   42MOL     C2 5004   3.441   4.839   3.318 -0.1461 -0.5016  0.4191
   42MOL     F3 5005   3.389   4.804   3.438 -0.7196 -0.1014 -0.2812
   42MOL     H4 5006   3.581   4.676   3.353  2.4774  0.2334  0.9595
   42MOL     H5 5007   3.665   4.831   3.360  0.0648 -2.4024  2.1378
   42MOL     H6 5008   3.386   4.791   3.238  0.4271  0.0182 -0.2944
   42MOL     H7 5009   3.604   4.766   3.209 -1.3906 -1.4623 -0.1529
   42MOL     C8 5010   3.443   4.990   3.285  0.3027 -0.7809  0.2601
   42MOL     C9 5011   3.327   5.072   3.352  0.3481  0.1317 -0.6102
   42MOL    F10 5012   3.351   5.202   3.327  0.0503 -0.2547  0.0401
   42MOL    H11 5013   3.541   5.025   3.319  0.3022  1.4140 -1.8751
   42MOL    H12 5014   3.448   4.996   3.176  0.5142  0.3914  0.3276
   42MOL    H13 5015   3.331   5.053   3.459 -1.2721 -0.0391 -0.5594
   42MOL    C14 5016   3.183   5.030   3.315  0.0932 -0.1329 -0.6905
   42MOL    C15 5017   3.084   5.136   3.365  0.5095 -0.1500  0.1011
   42MOL    F16 5018   3.075   5.226   3.264 -0.5068  0.4449  0.3761
   42MOL    H17 5019   3.183   5.008   3.208 -0.4096  1.7021 -1.0796
   42MOL    H18 5020   3.175   4.936   3.370 -1.4661 -0.0287 -0.7085
   42MOL    H19 5021   3.125   5.185   3.453  0.7499  0.7122 -0.4831
   42MOL    C20 5022   2.948   5.073   3.398 -0.4448 -0.3587 -0.4689
   42MOL    C21 5023   2.847   5.167   3.474  0.2496 -0.0068 -0.4554
   42MOL    F22 5024   2.919   5.226   3.574  0.2521 -0.0286 -0.1497
   42MOL    H23 5025   2.903   5.020   3.315 -2.1059 -1.1202  0.8951
   42MOL    H24 5026   2.965   4.989   3.466 -1.0507  1.1555  1.5988
   42MOL    H25 5027   2.771   5.113   3.530  0.9913  0.3546  0.9243
   42MOL    C26 5028   2.773   5.276   3.388 -0.2446 -0.5521  0.1350
   42MOL    C27 5029   2.696   5.221   3.260  0.2927  0.1935  0.0332
   42MOL    F28 5030   2.616   5.127   3.303  0.4928  0.0163  0.4644
   42MOL    H29 5031   2.704   5.332   3.452 -0.1570  0.4208 -0.6298
   42MOL    H30 5032   2.853   5.342   3.356 -1.1550 -0.1344 -1.3319
   42MOL    H31 5033   2.770   5.173   3.196 -1.0698  1.1349 -2.2899
   42MOL    C32 5034   2.610   5.327   3.191 -0.0475 -0.2527 -0.7548
   42MOL    C33 5035   2.540   5.278   3.065 -0.4271 -0.2947  0.6101
   42MOL    F34 5036   2.484   5.377   3.006 -0.1649 -0.1115  0.2564
   42MOL    H35 5037   2.535   5.363   3.261 -0.5657 -1.5668 -0.6031
   42MOL    H36 5038   2.671   5.407   3.149 -1.0550  0.6232 -0.5624
   42MOL    H37 5039   2.454   5.217   3.090 -1.9996  1.7449  0.2886
   42MOL    C38 5040   2.629   5.210   2.957  0.2873 -0.4073 -0.0844
   42MOL    C39 5041   2.539   5.179   2.837 -0.7716 -0.0739  0.1210
   42MOL    F40 5042   2.616   5.108   2.753 -0.2470  0.1937 -0.0103
   42MOL    H41 5043   2.714   5.271   2.929  1.0517 -0.3805  2.1551
   42MOL    H42 5044   2.668   5.116   2.997  2.1752 -1.4320 -4.0363
   42MOL    H43 5045   2.523   5.271   2.782  0.3892  0.7382  1.1327
   42MOL    C44 5046   2.411   5.098   2.856  0.1302  0.2447 -0.2457
   42MOL    C45 5047   2.354   5.037   2.723  0.4272 -0.7420  0.3818
   42MOL    F46 5048   2.258   4.952   2.753 -0.0483  0.3653 -0.3082
   42MOL    H47 5049   2.419   5.019   2.930  0.3702 -0.0028 -0.5356
   42MOL    H48 5050   2.335   5.162   2.902 -0.0232 -0.5457  0.6040
   42MOL    H49 5051   2.428   4.971   2.677  1.8428 -0.8094  2.6474
   42MOL    C50 5052   2.298   5.135   2.619  0.2780 -0.1755  0.4697
   42MOL    C51 5053   2.258   5.083   2.479 -0.4667  0.6345 -0.5127
   42MOL    F52 5054   2.364   5.035   2.411  0.4829  0.1213 -0.3589
   42MOL    H53 5055   2.216   5.195   2.658 -0.2752  0.4021 -1.4858
   42MOL    H54 5056   2.371   5.211   2.592  1.2974 -1.7862 -1.4867
   42MOL    H55 5057   2.225   5.171   2.423 -0.9161  0.7165 -0.1179
   42MOL    C56 5058   2.138   4.978   2.481 -0.2500  0.5619  0.1494
   42MOL    C57 5059   2.085   4.944   2.337 -0.8567 -0.7453 -0.0084
   42MOL    F58 5060   2.054   5.063   2.280  0.4441  0.0611  0.0958
   42MOL    H59 5061   2.180   4.887   2.524 -0.0998  0.7243  0.3437
   42MOL    H60 5062   2.069   5.025   2.551 -0.8422  0.4900 -0.3843
   42MOL    H61 5063   1.991   4.890   2.325 -0.4946 -0.7910 -3.0807
   42MOL    C62 5064   2.191   4.893   2.227 -0.0503  0.0707 -0.5755
   42MOL    C63 5065   2.243   4.748   2.256 -0.5599 -0.1876 -0.0542
   42MOL    F64 5066   2.151   4.663   2.311 -0.5039 -0.4451 -0.3902
   42MOL    H65 5067   2.133   4.894   2.135 -0.0584 -0.7124 -0.5861
   42MOL    H66 5068   2.269   4.968   2.214  1.0454 -0.5538  2.0696
   42MOL    H67 5069   2.323   4.764   2.329 -0.8156  1.0525 -0.0371
   42MOL    C68 5070   2.290   4.684   2.120 -0.0647 -0.0691  0.3310
   42MOL    C69 5071   2.356   4.545   2.148 -0.1444  0.3272 -0.0740
   42MOL    F70 5072   2.348   4.484   2.024 -0.1036  0.3940 -0.0887
   42MOL    H71 5073   2.206   4.679   2.051  0.1736  3.7746 -0.3715
   42MOL    H72 5074   2.362   4.751   2.073  1.9131 -2.1479  0.3138
   42MOL    H73 5075   2.298   4.484   2.216 -1.8750  0.6713 -1.2220
   42MOL    C74 5076   2.510   4.558   2.193  0.8348 -0.3766 -0.2241
   42MOL    C75 5077   2.572   4.416   2.227 -0.0075  0.1235 -0.4020
   42MOL    F76 5078   2.561   4.351   2.114  0.2192  0.4939 -0.3785
   42MOL    H77 5079   2.563   4.613   2.115 -1.4762  3.3828  0.7398
   42MOL    H78 5080   2.510   4.618   2.284 -0.2463 -0.8017  0.0614
   42MOL    H79 5081   2.508   4.372   2.303 -0.0245  0.9424  0.0679
   42MOL    C80 5082   2.724   4.406   2.264 -0.2755 -0.4100 -0.0953
   42MOL    C81 5083   2.783   4.259   2.267  0.0327  0.4626  0.1244
   42MOL    F82 5084   2.906   4.284   2.279  0.0993 -0.0874  0.0186
   42MOL    H83 5085   2.759   4.469   2.183 -1.7934  0.5044 -0.0706
   42MOL    H84 5086   2.735   4.462   2.357 -3.5059  2.1136 -1.1384
   42MOL    H85 5087   2.775   4.220   2.165 -0.4834  0.7556  0.0518
   42MOL    C86 5088   2.728   4.160   2.368  0.8912  0.7812  0.4758
   42MOL    C87 5089   2.782   4.017   2.344  0.3998  0.1098  0.0222
   42MOL    F88 5090   2.763   3.943   2.448  0.7530 -0.5258 -0.0808
   42MOL    H89 5091   2.767   4.191   2.465  0.1637  0.0868  0.9921
   42MOL    H90 5092   2.624   4.179   2.394  1.2466  0.1298  2.4413
   42MOL    H91 5093   2.889   4.030   2.326  0.5722  1.2132  1.7925
   42MOL    C92 5094   2.721   3.935   2.223 -0.0225  0.5063  0.5105
   42MOL    C93 5095   2.576   3.886   2.233  0.1262 -0.3762  0.2154
   42MOL    F94 5096   2.488   3.977   2.280  0.2004 -0.1000  0.0752
   42MOL    H95 5097   2.742   3.993   2.133 -3.1949 -0.6263 -1.0279
   42MOL    H96 5098   2.781   3.844   2.226 -1.2307 -0.3351 -0.3662
   42MOL    H97 5099   2.575   3.808   2.309  0.0135  0.3853  0.9950
   42MOL    C98 5100   2.529   3.832   2.096  0.1797  0.3866 -0.1506
   42MOL    C99 5101   2.404   3.746   2.100  0.0754 -0.0627  0.2409
   42MOL   F100 5102   2.305   3.817   2.138  0.6056  0.7037 -0.3391
   42MOL   H101 5103   2.512   3.909   2.021  0.7132 -0.3304 -1.0064
   42MOL   H102 5104   2.613   3.772   2.060 -0.6433 -1.4256  0.8992
   42MOL   H103 5105   2.425   3.662   2.167 -0.2453  0.1654  0.6273
   42MOL   C104 5106   2.368   3.687   1.968 -0.3049 -0.1469  0.7966
   42MOL   C105 5107   2.235   3.601   1.975  0.1833  0.0981  0.5292
   42MOL   F106 5108   2.194   3.604   1.851  0.3360  0.7695 -0.0586
   42MOL   H107 5109   2.352   3.761   1.889 -3.6146  0.5252  2.0291
   42MOL   H108 5110   2.452   3.628   1.931 -0.3722  0.6559 -0.7065
   42MOL   H109 5111   2.156   3.641   2.038 -3.6349 -4.1111 -1.2968
   42MOL   C110 5112   2.279   3.459   2.020 -0.0803  0.2854  0.4713
   42MOL   C111 5113   2.155   3.363   2.014 -0.0287 -0.0180 -1.0815
   42MOL   F112 5114   2.097   3.340   1.897  0.2133 -0.3635 -0.1116
   42MOL   H113 5115   2.352   3.411   1.955 -2.1579 -0.9615 -1.0077
   42MOL   H114 5116   2.320   3.456   2.121  0.4640  0.3787  0.2498
   42MOL   H115 5117   2.077   3.422   2.063  1.1529  1.3640 -0.8250
   42MOL   C116 5118   2.174   3.226   2.085  0.1707  0.1989  0.1580
   42MOL   C117 5119   2.266   3.130   2.013 -0.0118  0.2825  0.4731
   42MOL   F118 5120   2.299   3.022   2.083 -0.8214  0.2875 -0.5590
   42MOL   H119 5121   2.207   3.252   2.186 -2.1141 -4.5300  2.2655
   42MOL   H120 5122   2.078   3.178   2.099 -0.3988  1.4455  0.6182
   42MOL   H121 5123   2.358   3.183   1.988 -0.7786 -0.0560 -3.3864
   42MOL   H122 5124   2.225   3.098   1.917  2.3184  0.2062 -0.5311
   43MOL     C1 5125   6.697   4.296   7.388 -0.2617 -0.4478 -0.3388
   43MOL     C2 5126   6.583   4.253   7.311  0.0066 -0.0067 -0.0128
   43MOL     F3 5127   6.591   4.294   7.183 -0.0858 -0.4477 -0.0273
   43MOL     H4 5128   6.710   4.259   7.490 -2.0751  1.9010  0.7865
   43MOL     H5 5129   6.686   4.404   7.392 -2.8478 -0.4536 -4.5395
   43MOL     H6 5130   6.491   4.296   7.349  1.3755  2.1491  0.9465
   43MOL     H7 5131   6.790   4.273   7.336  0.2230 -0.3339  0.4747
   43MOL     C8 5132   6.576   4.099   7.297  0.5219  0.0149 -0.4095
   43MOL     C9 5133   6.564   4.021   7.434 -0.0319 -0.2467 -0.0519
   43MOL    F10 5134   6.457   4.057   7.510 -0.0860  0.2601 -0.3870
   43MOL    H11 5135   6.503   4.072   7.220  1.9107 -1.4520 -1.2340
   43MOL    H12 5136   6.668   4.068   7.249 -0.9509 -1.3623 -2.4534
   43MOL    H13 5137   6.652   4.039   7.495 -1.4440  1.3321  1.6073
   43MOL    C14 5138   6.561   3.867   7.424  0.3539  0.2826  0.5639
   43MOL    C15 5139   6.434   3.797   7.364 -0.2424 -0.3680  0.1542
   43MOL    F16 5140   6.490   3.707   7.275 -0.0180  0.4481  0.3262
   43MOL    H17 5141   6.643   3.843   7.357 -0.5992 -1.0705 -0.1356
   43MOL    H18 5142   6.573   3.834   7.527 -1.6835  1.1441  1.1169
   43MOL    H19 5143   6.381   3.866   7.298 -1.5071 -2.8870 -1.5295
   43MOL    C20 5144   6.347   3.728   7.465  0.0400 -0.1520  0.0191
   43MOL    C21 5145   6.272   3.830   7.556  0.1415  0.4380  0.0887
   43MOL    F22 5146   6.194   3.895   7.473 -0.0684 -0.6725  0.1441
   43MOL    H23 5147   6.267   3.675   7.412 -1.3393  1.2843  0.6153
   43MOL    H24 5148   6.404   3.653   7.520  0.4368 -1.9192 -2.6949
   43MOL    H25 5149   6.333   3.906   7.604  1.4171  0.0731 -0.9382
   43MOL    C26 5150   6.199   3.764   7.678 -0.6458 -0.6250  0.4203
   43MOL    C27 5151   6.070   3.689   7.641 -0.1497 -0.1584  0.1890
   43MOL    F28 5152   6.103   3.589   7.557 -0.6663  0.1993  0.3069
   43MOL    H29 5153   6.269   3.699   7.730  1.5811  1.5871  0.2463
   43MOL    H30 5154   6.169   3.847   7.741  1.2846 -0.0693  0.6466
   43MOL    H31 5155   6.007   3.758   7.586  0.0040 -0.9280 -0.9670
   43MOL    C32 5156   6.007   3.613   7.758 -0.0453 -0.6585 -0.1306
   43MOL    C33 5157   5.925   3.705   7.855  0.3801 -0.3080 -0.2017
   43MOL    F34 5158   5.861   3.785   7.773 -0.1623 -0.0188  0.1575
   43MOL    H35 5159   5.943   3.544   7.704  0.0506 -1.3192  0.6000
   43MOL    H36 5160   6.077   3.551   7.813 -1.1027 -0.1288  1.8710
   43MOL    H37 5161   5.993   3.758   7.922  2.2790 -0.0036 -2.3234
   43MOL    C38 5162   5.818   3.637   7.944  0.7443 -0.1570 -0.5913
   43MOL    C39 5163   5.782   3.707   0.072 -0.5780  0.0120 -0.0669
   43MOL    F40 5164   5.716   3.817   0.038 -0.1137 -0.5511 -0.0384
   43MOL    H41 5165   5.726   3.625   7.888  0.7092  0.6614 -0.7120
   43MOL    H42 5166   5.853   3.539   7.977 -0.2122  0.1918  1.5278
   43MOL    H43 5167   5.868   3.737   0.132 -0.8200  0.3060  0.1326
   43MOL    C44 5168   5.697   3.615   0.165 -0.1271 -0.5077 -0.7841
   43MOL    C45 5169   5.672   3.701   0.291  0.2253  0.0689  0.2976
   43MOL    F46 5170   5.576   3.646   0.362 -0.6469 -0.1702  0.3009
   43MOL    H47 5171   5.607   3.598   0.107  0.5453  2.3663 -2.7471
   43MOL    H48 5172   5.732   3.513   0.180  1.0816 -0.5561 -3.5753
   43MOL    H49 5173   5.643   3.805   0.278  2.8045  0.9196  1.0946
   43MOL    C50 5174   5.787   3.696   0.391  0.1069 -0.0033 -0.5622
   43MOL    C51 5175   5.784   3.794   0.506 -0.1660  0.3260  0.3884
   43MOL    F52 5176   5.673   3.765   0.580  0.0810  0.0289  0.0612
   43MOL    H53 5177   5.803   3.593   0.424 -1.6190 -0.0107  0.2768
   43MOL    H54 5178   5.882   3.715   0.340  0.0908 -0.9495 -0.9592
   43MOL    H55 5179   5.765   3.896   0.475 -2.6135  0.0376  0.8793
   43MOL    C56 5180   5.917   3.800   0.581  0.3474 -0.3333  0.4814
   43MOL    C57 5181   6.020   3.902   0.523  0.2213  0.6532  0.0268
   43MOL    F58 5182   5.965   4.026   0.519  0.3766  0.4120  0.2100
   43MOL    H59 5183   5.903   3.844   0.679 -1.2744  1.5522 -0.5383
   43MOL    H60 5184   5.958   3.699   0.590  0.5242 -0.0810  2.5802
   43MOL    H61 5185   6.036   3.877   0.418 -1.0655  1.2062 -0.3188
   43MOL    C62 5186   6.145   3.926   0.608 -0.3583 -0.3515 -0.5882
   43MOL    C63 5187   6.250   4.021   0.537  0.4280  0.0104  0.1237
   43MOL    F64 5188   6.353   4.054   0.614 -0.7864  0.2412  0.3334
   43MOL    H65 5189   6.126   3.968   0.706 -0.3649  0.7653 -1.0697
   43MOL    H66 5190   6.187   3.827   0.629  0.0383 -0.4381 -1.7035
   43MOL    H67 5191   6.197   4.115   0.524 -0.3228 -0.4989 -0.5660
   43MOL    C68 5192   6.310   3.969   0.400 -0.0319  0.5417  0.6034
   43MOL    C69 5193   6.415   4.063   0.338 -0.4768  0.0100  0.1367
   43MOL    F70 5194   6.467   4.005   0.227  0.6317  0.1550 -0.3443
   43MOL    H71 5195   6.368   3.877   0.415  0.2860  0.4600 -1.1013
   43MOL    H72 5196   6.228   3.953   0.331  1.2402 -1.3643 -0.5283
   43MOL    H73 5197   6.490   4.078   0.415 -1.6028 -0.1922  1.2797
   43MOL    C74 5198   6.355   4.196   0.294  0.2543  0.5805  0.0938
   43MOL    C75 5199   6.459   4.295   0.237 -0.3868  0.4078 -0.6701
   43MOL    F76 5200   6.487   4.257   0.114  0.2179 -0.5409  0.6607
   43MOL    H77 5201   6.278   4.176   0.220 -0.2957  0.8219  0.6022
   43MOL    H78 5202   6.297   4.235   0.378  0.1956 -0.0931  0.3648
   43MOL    H79 5203   6.554   4.296   0.289 -1.5203  0.2481  1.4931
   43MOL    C80 5204   6.398   4.434   0.246  0.2745 -0.7118  0.1048
   43MOL    C81 5205   6.487   4.536   0.176 -0.4490  0.6306  0.0058
   43MOL    F82 5206   6.469   4.524   0.043 -0.1508  0.4133 -0.0923
   43MOL    H83 5207   6.301   4.439   0.197 -0.3884  2.3817  1.5639
   43MOL    H84 5208   6.386   4.458   0.352 -0.5089  0.6800 -0.2883
   43MOL    H85 5209   6.587   4.496   0.191 -0.1487  0.9713 -1.0753
   43MOL    C86 5210   6.472   4.688   0.222 -0.0483  0.3428  0.3047
   43MOL    C87 5211   6.572   4.782   0.150  0.5314 -0.1158  0.3619
   43MOL    F88 5212   6.566   4.777   0.018  0.5922 -0.1564 -0.1046
   43MOL    H89 5213   6.375   4.728   0.194 -1.1641 -1.9163  0.7881
   43MOL    H90 5214   6.464   4.694   0.331 -2.8080 -0.1652  0.1722
   43MOL    H91 5215   6.670   4.734   0.161 -0.2625 -2.2316 -1.4916
   43MOL    C92 5216   6.564   4.928   0.202  0.5045  0.7848  0.9883
   43MOL    C93 5217   6.429   4.992   0.159  0.0265  0.3082  0.6060
   43MOL    F94 5218   6.334   4.964   0.246 -0.2327  1.0014 -0.7975
   43MOL    H95 5219   6.592   4.931   0.307  0.4406  0.2273  1.0205
   43MOL    H96 5220   6.638   4.980   0.141 -2.2466  2.9926 -0.5964
   43MOL    H97 5221   6.391   4.949   0.066  0.6960  0.1700  0.3989
   43MOL    C98 5222   6.444   5.148   0.142  0.8698 -0.0349 -0.1530
   43MOL    C99 5223   6.324   5.224   0.088 -0.1933 -0.2029  0.6287
   43MOL   F100 5224   6.343   5.352   0.062  0.1697 -0.0487 -0.1124
   43MOL   H101 5225   6.474   5.182   0.241 -0.7759  2.4112 -0.4454
   43MOL   H102 5226   6.530   5.163   0.077  0.0223 -1.1027 -1.5543
   43MOL   H103 5227   6.249   5.223   0.167  0.8641  1.3902  1.6815
   43MOL   C104 5228   6.261   5.161   7.968  0.5385  0.2567 -0.8291
   43MOL   C105 5229   6.340   5.168   7.832  0.3774 -0.5240 -1.2829
   43MOL   F106 5230   6.457   5.104   7.831 -0.1611 -0.0426  0.1406
   43MOL   H107 5231   6.233   5.059   7.993  0.7895  0.6598  1.2697
   43MOL   H108 5232   6.173   5.224   7.954 -1.0930 -0.8442  3.5187
   43MOL   H109 5233   6.360   5.275   7.825 -1.4164 -0.0329  0.5329
   43MOL   C110 5234   6.256   5.129   7.712  0.2369 -0.0365  0.1968
   43MOL   C111 5235   6.171   5.005   7.722  0.0601  0.0569 -0.0271
   43MOL   F112 5236   6.062   5.020   7.799  0.5116 -0.3777 -0.1760
   43MOL   H113 5237   6.186   5.212   7.701  0.1421 -0.0744  0.5084
   43MOL   H114 5238   6.321   5.107   7.627 -0.8321 -1.1145 -0.3609
   43MOL   H115 5239   6.222   4.932   7.785 -0.2197  0.0253  0.1640
   43MOL   C116 5240   6.111   4.955   7.592 -0.1188  0.3202 -0.5023
   43MOL   C117 5241   6.212   4.893   7.496  0.4733 -0.3997 -0.3858
   43MOL   F118 5242   6.143   4.821   7.407  0.1288  0.5399  0.1153
   43MOL   H119 5243   6.039   4.875   7.608 -0.1187  0.8606  2.5522
   43MOL   H120 5244   6.049   5.032   7.547  1.3318  1.0065 -1.3515
   43MOL   H121 5245   6.277   4.828   7.556 -1.4964 -0.2129  2.0183
   43MOL   H122 5246   6.267   4.971   7.444  1.3960 -0.3001  0.7239
   44MOL     C1 5247   5.467   0.467   6.732  0.1596  0.4532  0.6373
   44MOL     C2 5248   5.554   0.515   6.623 -0.5673 -0.1222  0.5760
   44MOL     F3 5249   5.511   0.478   6.503  0.4377  0.0267  0.0070
   44MOL     H4 5250   5.369   0.513   6.724  0.2503  0.5847  0.2764
   44MOL     H5 5251   5.502   0.496   6.831 -0.1243  3.4942 -0.1135
   44MOL     H6 5252   5.655   0.475   6.615 -0.5451 -0.1457  0.9960
   44MOL     H7 5253   5.458   0.358   6.734  0.4560  0.4178  0.0109
   44MOL     C8 5254   5.557   0.666   6.616 -0.0354  0.1839  0.6393
   44MOL     C9 5255   5.696   0.733   6.652 -1.2038  0.3485 -0.3484
   44MOL    F10 5256   5.800   0.668   6.592 -0.4841  0.5840  0.0500
   44MOL    H11 5257   5.526   0.708   6.520 -2.0300 -0.9903  0.7629
   44MOL    H12 5258   5.482   0.705   6.685 -1.7908 -1.1515 -0.4964
   44MOL    H13 5259   5.712   0.736   6.760  2.5470 -1.1031 -0.7793
   44MOL    C14 5260   5.706   0.877   6.600  1.1254 -0.1815  0.3861
   44MOL    C15 5261   5.618   0.974   6.671 -0.9564 -0.0871 -0.0190
   44MOL    F16 5262   5.615   0.956   6.802 -0.0496  0.3564 -0.0618
   44MOL    H17 5263   5.809   0.911   6.586  0.3834  0.8713 -3.1047
   44MOL    H18 5264   5.680   0.870   6.494  2.4519 -1.1011  0.1124
   44MOL    H19 5265   5.519   0.961   6.628 -0.8850 -0.6988 -0.0090
   44MOL    C20 5266   5.652   1.118   6.629  0.0597 -0.1251 -0.1146
   44MOL    C21 5267   5.539   1.219   6.662  0.6239 -0.5388  0.2346
   44MOL    F22 5268   5.440   1.175   6.595  0.1434 -0.1405  0.1063
   44MOL    H23 5269   5.750   1.140   6.672  0.0429  0.6984 -0.4779
   44MOL    H24 5270   5.675   1.123   6.523  0.9420  2.4138  0.1608
   44MOL    H25 5271   5.561   1.318   6.621  3.3184 -1.0243  0.4282
   44MOL    C26 5272   5.498   1.234   6.812 -0.4918  0.1053  0.1597
   44MOL    C27 5273   5.606   1.266   6.918 -0.3984 -0.0944 -0.2411
   44MOL    F28 5274   5.678   1.378   6.895 -0.1999  0.9893 -0.5263
   44MOL    H29 5275   5.418   1.307   6.822  0.4288  0.8590  2.3345
   44MOL    H30 5276   5.445   1.144   6.843  1.0056 -1.6855 -2.3757
   44MOL    H31 5277   5.689   1.195   6.911 -0.3242 -0.0228 -0.0946
   44MOL    C32 5278   5.558   1.243   7.061 -0.0173  0.2821 -0.5633
   44MOL    C33 5279   5.449   1.340   7.108  0.0347  0.2675 -0.0697
   44MOL    F34 5280   5.409   1.311   7.232 -0.0075  0.4010  0.1254
   44MOL    H35 5281   5.520   1.143   7.082  0.7443 -0.2492 -1.6713
   44MOL    H36 5282   5.637   1.262   7.135  0.5907 -0.1172 -1.1028
   44MOL    H37 5283   5.357   1.330   7.051  0.1460  2.0494 -0.5901
   44MOL    C38 5284   5.491   1.489   7.113  0.3786  0.6252 -0.5044
   44MOL    C39 5285   5.372   1.582   7.161 -0.0370  0.4811  0.4055
   44MOL    F40 5286   5.419   1.695   7.203  0.0884 -0.0166  0.4354
   44MOL    H41 5287   5.586   1.507   7.163  0.4076  1.3898 -0.8191
   44MOL    H42 5288   5.512   1.515   7.010 -0.3191 -1.8899 -1.3130
   44MOL    H43 5289   5.327   1.536   7.249 -2.3976  2.7302  0.4373
   44MOL    C44 5290   5.260   1.594   7.053 -0.0517 -0.7560  0.5941
   44MOL    C45 5291   5.164   1.703   7.105 -0.0579  0.1202  0.1232
   44MOL    F46 5292   5.081   1.716   7.004  0.7590 -0.7100 -0.3946
   44MOL    H47 5293   5.307   1.628   6.961 -1.9634  2.9466  0.8823
   44MOL    H48 5294   5.195   1.510   7.028 -0.3655 -1.2788  3.0644
   44MOL    H49 5295   5.228   1.790   7.119 -1.3657  1.7615 -3.5116
   44MOL    C50 5296   5.077   1.660   7.225  0.5924 -0.8670  0.1505
   44MOL    C51 5297   4.971   1.762   7.261 -0.4044  1.2401  0.0019
   44MOL    F52 5298   4.891   1.725   7.366 -0.3089  0.3324  0.2906
   44MOL    H53 5299   5.028   1.566   7.198 -1.7868  0.0021  1.2796
   44MOL    H54 5300   5.140   1.631   7.309 -1.8465 -0.7005  2.1014
   44MOL    H55 5301   4.913   1.792   7.174  1.4388  0.8194 -1.4110
   44MOL    C56 5302   5.039   1.901   7.309 -0.0549 -0.0583  0.3975
   44MOL    C57 5303   5.112   1.888   7.445 -0.3283  0.2807  0.8859
   44MOL    F58 5304   5.232   1.839   7.434  0.6341 -0.2662  0.4425
   44MOL    H59 5305   5.103   1.954   7.239 -0.4253 -0.0507  0.0646
   44MOL    H60 5306   4.951   1.963   7.323 -0.3049 -0.4165  0.4336
   44MOL    H61 5307   5.051   1.811   7.492 -1.7924 -0.6499 -2.3700
   44MOL    C62 5308   5.109   2.015   7.529  0.4083  0.2064 -0.5309
   44MOL    C63 5309   5.178   2.004   7.672 -0.0077 -0.4039  0.4776
   44MOL    F64 5310   5.204   2.131   7.720 -0.0148  0.3783 -0.0283
   44MOL    H65 5311   5.162   2.089   7.470  1.4198 -1.5130 -1.8239
   44MOL    H66 5312   5.011   2.058   7.545 -0.3709 -1.6739 -0.0783
   44MOL    H67 5313   5.275   1.957   7.659  0.7111  0.6972  1.7460
   44MOL    C68 5314   5.093   1.927   7.775 -0.6187 -0.4630 -0.3456
   44MOL    C69 5315   5.168   1.884   7.904  0.3548  0.0406  0.2765
   44MOL    F70 5316   5.187   1.989   7.982  0.0699 -0.0095 -0.3795
   44MOL    H71 5317   5.002   1.973   7.813 -0.9340 -0.9864 -0.4655
   44MOL    H72 5318   5.071   1.830   7.732  0.7233 -1.5206  1.2908
   44MOL    H73 5319   5.265   1.847   7.869  1.0049  1.3568  0.6639
   44MOL    C74 5320   5.085   1.780   7.985 -0.2866  0.6376 -0.3457
   44MOL    C75 5321   5.148   1.732   0.107 -0.0671 -0.2710 -0.0268
   44MOL    F76 5322   5.168   1.822   0.200 -0.1396  0.0344  0.5140
   44MOL    H77 5323   4.981   1.811   7.996  0.1877  1.9270  0.6555
   44MOL    H78 5324   5.082   1.689   7.925  1.7716  1.8486 -2.3506
   44MOL    H79 5325   5.246   1.691   0.084  0.7028  1.0692  0.7379
   44MOL    C80 5326   5.083   1.611   0.177  0.4388  0.7919 -0.4225
   44MOL    C81 5327   4.944   1.660   0.239 -0.1621  0.1650 -0.1595
   44MOL    F82 5328   4.862   1.638   0.135  0.1339  0.4476  0.4467
   44MOL    H83 5329   5.068   1.513   0.131 -1.4549  0.2646  1.2687
   44MOL    H84 5330   5.142   1.579   0.263  1.1568  0.8388 -0.8935
   44MOL    H85 5331   4.940   1.769   0.249 -2.6109  0.3389 -2.4028
   44MOL    C86 5332   4.910   1.574   0.363  0.3830  0.0865 -0.9152
   44MOL    C87 5333   4.760   1.564   0.402  0.1925 -0.2975  0.0427
   44MOL    F88 5334   4.696   1.498   0.307 -0.1747 -0.0036  0.4249
   44MOL    H89 5335   4.939   1.469   0.352 -2.3286 -0.7497 -0.4707
   44MOL    H90 5336   4.972   1.598   0.449 -0.7337 -2.6842  0.7564
   44MOL    H91 5337   4.721   1.665   0.406  0.8782 -0.0616  0.9185
   44MOL    C92 5338   4.733   1.491   0.534  0.3501 -0.4823  0.0968
   44MOL    C93 5339   4.772   1.341   0.530 -0.6812 -0.7670  0.0853
   44MOL    F94 5340   4.910   1.323   0.547 -0.1844 -0.7906 -0.6525
   44MOL    H95 5341   4.779   1.549   0.614  0.0363 -1.5071  1.0328
   44MOL    H96 5342   4.626   1.509   0.548  0.5180  0.3840  0.2880
   44MOL    H97 5343   4.743   1.293   0.436  0.5140 -1.7780  0.2180
   44MOL    C98 5344   4.706   1.256   0.645 -0.3181  0.3748 -0.3022
   44MOL    C99 5345   4.744   1.110   0.669 -0.2464  0.0432  0.4124
   44MOL   F100 5346   4.713   1.081   0.794 -0.5917 -0.4431  0.4343
   44MOL   H101 5347   4.728   1.308   0.738  0.7181  0.7721 -0.7665
   44MOL   H102 5348   4.598   1.269   0.648 -0.4787 -0.0132 -3.0237
   44MOL   H103 5349   4.850   1.086   0.663 -0.5119 -1.2225  0.6711
   44MOL   C104 5350   4.672   1.009   0.586  0.4338  0.2493  0.3107
   44MOL   C105 5351   4.712   0.858   0.607 -0.7731 -0.1759 -0.0824
   44MOL   F106 5352   4.663   0.810   0.725 -0.0765 -0.2002 -0.3143
   44MOL   H107 5353   4.566   1.011   0.612  0.5082  1.2961  0.5637
   44MOL   H108 5354   4.689   1.037   0.482  0.6551 -0.2882  0.2023
   44MOL   H109 5355   4.820   0.851   0.620 -0.7190  0.5282 -0.1570
   44MOL   C110 5356   4.680   0.752   0.501 -0.4291  0.0389 -0.1780
   44MOL   C111 5357   4.731   0.611   0.543  0.5151 -0.5457 -0.4842
   44MOL   F112 5358   4.687   0.525   0.445  0.2986 -0.0034  0.2913
   44MOL   H113 5359   4.571   0.759   0.499 -0.3371  1.3292 -0.9511
   44MOL   H114 5360   4.724   0.761   0.402  0.8353 -1.0762  0.2612
   44MOL   H115 5361   4.677   0.582   0.634 -0.6104  1.7368 -0.3975
   44MOL   C116 5362   4.891   0.595   0.547  0.1773  0.3909 -0.0598
   44MOL   C117 5363   4.935   0.484   0.635  0.3114  0.4882 -1.0656
   44MOL   F118 5364   5.069   0.476   0.633 -0.1736 -0.1304 -0.1812
   44MOL   H119 5365   4.923   0.567   0.446 -0.8942 -2.9743  0.4586
   44MOL   H120 5366   4.944   0.685   0.578  0.0877 -0.9475  4.2794
   44MOL   H121 5367   4.881   0.394   0.604  0.2463 -0.4224  1.5044
   44MOL   H122 5368   4.893   0.506   0.733  2.4979  2.4390 -0.5325
   45MOL     C1 5369   7.635   1.990   3.699 -0.1203 -0.4098 -0.0520
   45MOL     C2 5370   7.557   1.942   3.581  0.5471 -0.3619 -0.0740
   45MOL     F3 5371   7.609   1.996   3.471 -0.0863  0.6678  0.2754
   45MOL     H4 5372   7.639   2.099   3.703  3.7744 -0.4580 -1.1978
   45MOL     H5 5373   7.741   1.966   3.688  0.0495 -0.0410  0.7792
   45MOL     H6 5374   7.459   1.987   3.596  0.0377 -1.0221 -1.3169
   45MOL     H7 5375   7.607   1.940   3.792 -2.9771 -1.5739 -1.4707
   45MOL     C8 5376   7.554   1.794   3.565  0.5763  0.1708 -0.4953
   45MOL     C9 5377   7.469   1.721   3.675 -0.0581  0.4194 -1.3431
   45MOL    F10 5378   7.350   1.773   3.676 -0.3984 -0.3543 -0.1717
   45MOL    H11 5379   7.505   1.775   3.469 -0.6960 -1.1780  0.4098
   45MOL    H12 5380   7.656   1.756   3.560  1.0059  1.1935  0.4109
   45MOL    H13 5381   7.507   1.739   3.776 -3.0466  0.0449 -0.1193
   45MOL    C14 5382   7.439   1.569   3.666  0.2812  0.1096 -0.9426
   45MOL    C15 5383   7.562   1.478   3.664 -0.9285 -0.4416 -0.1738
   45MOL    F16 5384   7.626   1.499   3.779  0.1978 -0.9868  0.0286
   45MOL    H17 5385   7.369   1.531   3.741  1.5040 -0.8279 -0.2804
   45MOL    H18 5386   7.387   1.548   3.572  1.4837  0.0477 -1.5939
   45MOL    H19 5387   7.632   1.512   3.588  1.2766 -1.5770  1.2785
   45MOL    C20 5388   7.536   1.328   3.641  0.1539  0.2918 -0.8124
   45MOL    C21 5389   7.659   1.247   3.600 -0.0606 -0.6114 -0.1990
   45MOL    F22 5390   7.667   1.272   3.465 -0.0090  0.2112  0.0062
   45MOL    H23 5391   7.500   1.297   3.739 -2.2448 -0.8104 -1.9879
   45MOL    H24 5392   7.456   1.312   3.568 -1.9932  1.7501  1.1421
   45MOL    H25 5393   7.637   1.141   3.609 -2.3540 -0.1848 -0.3589
   45MOL    C26 5394   7.795   1.286   3.671  0.0602 -0.4514  0.0822
   45MOL    C27 5395   7.916   1.221   3.614 -0.1809  0.4974 -0.4078
   45MOL    F28 5396   0.025   1.270   3.659 -0.1771 -0.3938  0.2208
   45MOL    H29 5397   7.817   1.391   3.653 -0.0426 -0.3432  0.5848
   45MOL    H30 5398   7.786   1.271   3.778 -1.0315  0.8986  0.1958
   45MOL    H31 5399   7.906   1.226   3.505 -2.9025  1.3508 -0.1453
   45MOL    C32 5400   7.923   1.073   3.651 -0.3108 -0.1595  0.0796
   45MOL    C33 5401   0.034   0.999   3.583  0.1865 -0.1440 -0.4310
   45MOL    F34 5402   0.061   0.896   3.659  0.6102  0.4118 -0.0309
   45MOL    H35 5403   7.957   1.056   3.753  3.2611 -1.3962 -1.2339
   45MOL    H36 5404   7.828   1.021   3.642 -0.8009  0.7169  0.1520
   45MOL    H37 5405   0.124   1.060   3.568 -0.8348  1.2128 -1.1505
   45MOL    C38 5406   0.001   0.923   3.465 -0.1901  0.2604 -0.3746
   45MOL    C39 5407   7.977   1.008   3.335 -0.2457  0.0949 -0.2545
   45MOL    F40 5408   0.075   1.085   3.313 -0.1796 -0.1974 -0.0747
   45MOL    H41 5409   0.071   0.841   3.452  0.6136  0.6587  1.3857
   45MOL    H42 5410   7.914   0.865   3.487  0.1131  0.1095  0.4888
   45MOL    H43 5411   7.895   1.076   3.358 -0.7395 -0.6918  0.3311
   45MOL    C44 5412   7.944   0.936   3.199 -0.1844  0.0438  0.4433
   45MOL    C45 5413   7.808   0.861   3.196 -0.4614  0.8793 -0.2244
   45MOL    F46 5414   7.706   0.940   3.227  0.1469 -0.2929  0.1205
   45MOL    H47 5415   7.950   1.010   3.120 -0.2168  1.7829  2.0415
   45MOL    H48 5416   0.022   0.867   3.177 -0.3101  0.0476 -0.0454
   45MOL    H49 5417   7.815   0.787   3.277 -0.4432 -0.1164 -1.1233
   45MOL    C50 5418   7.754   0.786   3.066 -1.0365  0.8342 -0.0038
   45MOL    C51 5419   7.834   0.660   3.026  0.4845  0.3935 -0.4076
   45MOL    F52 5420   7.819   0.573   3.123 -0.3128  0.0602  0.2006
   45MOL    H53 5421   7.650   0.757   3.081 -1.8862  2.3612 -2.6890
   45MOL    H54 5422   7.762   0.859   2.986  0.6733  2.2940  1.4373
   45MOL    H55 5423   7.940   0.683   3.016  0.9340 -2.0489 -1.4898
   45MOL    C56 5424   7.772   0.600   2.897  0.2147 -0.1796  0.3063
   45MOL    C57 5425   7.792   0.685   2.764  0.5490  0.4983  0.3244
   45MOL    F58 5426   7.920   0.710   2.760  0.1863 -0.1700 -0.0723
   45MOL    H59 5427   7.815   0.501   2.885 -1.2160 -0.4498 -3.1031
   45MOL    H60 5428   7.667   0.577   2.912 -0.6711  2.3802 -1.6163
   45MOL    H61 5429   7.732   0.776   2.765 -0.2290  0.0398 -1.9981
   45MOL    C62 5430   7.755   0.592   2.646  0.3398  0.2509  0.5277
   45MOL    C63 5431   7.740   0.665   2.509  0.2427  0.0913  0.2596
   45MOL    F64 5432   7.862   0.691   2.460 -0.0894  0.0962  0.3912
   45MOL    H65 5433   7.818   0.504   2.642 -0.6401 -0.4228 -0.3321
   45MOL    H66 5434   7.659   0.551   2.679  0.0824 -0.6527 -1.2937
   45MOL    H67 5435   7.691   0.760   2.527  1.0049  0.2605  1.4968
   45MOL    C68 5436   7.657   0.584   2.410 -0.2457 -0.6226 -0.2009
   45MOL    C69 5437   7.619   0.667   2.288 -0.5935  0.1794 -0.3314
   45MOL    F70 5438   7.728   0.690   2.215 -0.2501  0.2523  0.3506
   45MOL    H71 5439   7.709   0.492   2.386 -0.0137 -0.1242 -1.6563
   45MOL    H72 5440   7.561   0.558   2.455 -0.6017 -0.6748 -0.9773
   45MOL    H73 5441   7.570   0.763   2.302 -1.3154 -0.2556  0.1215
   45MOL    C74 5442   7.534   0.574   2.196 -0.8776 -0.7955  0.0720
   45MOL    C75 5443   7.388   0.566   2.239 -0.4441 -0.3930  0.7085
   45MOL    F76 5444   7.338   0.691   2.272  0.1656  0.3975 -0.0239
   45MOL    H77 5445   7.545   0.615   2.096 -0.6507  0.1079  0.4620
   45MOL    H78 5446   7.577   0.474   2.206 -0.3030 -0.8778 -2.8407
   45MOL    H79 5447   7.383   0.514   2.335 -1.1692 -2.1036 -0.2392
   45MOL    C80 5448   7.302   0.491   2.136  0.3660  0.4188 -0.0161
   45MOL    C81 5449   7.148   0.498   2.178 -0.3792  0.3615 -0.1110
   45MOL    F82 5450   7.077   0.584   2.109  0.3780  0.1216 -0.4908
   45MOL    H83 5451   7.300   0.536   2.038 -0.0359 -1.3685 -0.8583
   45MOL    H84 5452   7.332   0.388   2.117  0.2558 -0.0344  2.1318
   45MOL    H85 5453   7.144   0.522   2.284 -0.9235 -1.6524  0.3556
   45MOL    C86 5454   7.073   0.361   2.144  0.0576 -0.9571 -0.1054
   45MOL    C87 5455   6.931   0.348   2.191  0.6061 -0.7252  0.4142
   45MOL    F88 5456   6.897   0.233   2.129 -0.6331  0.6196 -0.4360
   45MOL    H89 5457   7.085   0.352   2.037 -0.7779  3.2303 -0.6500
   45MOL    H90 5458   7.134   0.284   2.192 -1.3370 -1.5435  0.7708
   45MOL    H91 5459   6.875   0.434   2.154  0.9566 -1.1649 -1.2009
   45MOL    C92 5460   6.906   0.331   2.340  0.4474 -0.1226  0.1626
   45MOL    C93 5461   6.768   0.258   2.365  0.4832 -0.3324  0.1511
   45MOL    F94 5462   6.758   0.242   2.497  0.1733  0.0844 -0.6948
   45MOL    H95 5463   6.985   0.267   2.380  1.4944  0.5303 -0.8191
   45MOL    H96 5464   6.917   0.420   2.401 -0.7658 -1.3320  2.1780
   45MOL    H97 5465   6.754   0.162   2.315  1.8153 -0.3888 -0.1323
   45MOL    C98 5466   6.642   0.339   2.319  0.1773 -0.5994  0.0848
   45MOL    C99 5467   6.609   0.466   2.410  0.2502 -0.5681  0.2437
   45MOL   F100 5468   6.706   0.556   2.377 -0.3467 -0.0085  0.5177
   45MOL   H101 5469   6.653   0.375   2.216  0.8142 -0.1202  0.3237
   45MOL   H102 5470   6.550   0.280   2.316 -1.8986  2.4868  0.6174
   45MOL   H103 5471   6.610   0.435   2.514  1.0174 -1.3017  0.0238
   45MOL   C104 5472   6.477   0.523   2.377  0.8515  0.4646  0.8946
   45MOL   C105 5473   6.360   0.435   2.427 -0.2444  0.9732 -0.8009
   45MOL   F106 5474   6.374   0.441   2.565 -0.2966 -0.4044  0.0455
   45MOL   H107 5475   6.474   0.626   2.413  1.6392 -0.1444  2.7635
   45MOL   H108 5476   6.459   0.535   2.270 -1.8019  1.5214  1.4086
   45MOL   H109 5477   6.367   0.333   2.391  3.6330  0.5218  0.9543
   45MOL   C110 5478   6.223   0.489   2.384  0.3008  0.1462  0.9709
   45MOL   C111 5479   6.173   0.434   2.241  0.2854 -0.2401 -1.1263
   45MOL   F112 5480   6.147   0.305   2.264  0.1378  0.2096  0.0506
   45MOL   H113 5481   6.151   0.457   2.459 -0.6655  1.2213  0.5258
   45MOL   H114 5482   6.228   0.596   2.362 -2.3552  0.3327  1.1040
   45MOL   H115 5483   6.250   0.437   2.163 -1.3277  1.1547 -2.7102
   45MOL   C116 5484   6.050   0.512   2.186 -0.3517 -0.0737 -0.1668
   45MOL   C117 5485   5.913   0.498   2.263  0.2227  0.0869  0.5011
   45MOL   F118 5486   5.832   0.562   2.179  0.2511  0.5599  0.0593
   45MOL   H119 5487   6.078   0.617   2.193  1.4756 -0.3908 -2.2426
   45MOL   H120 5488   6.042   0.489   2.080  0.9498 -3.9053  0.4773
   45MOL   H121 5489   5.912   0.548   2.360 -2.9277  1.5170 -0.2136
   45MOL   H122 5490   5.872   0.397   2.263 -1.3190  0.6560 -2.9357
   46MOL     C1 5491   7.062   0.971   6.923 -0.3284 -0.2482 -1.1539
   46MOL     C2 5492   7.005   1.042   6.805  0.4459 -0.0110  0.6795
   46MOL     F3 5493   7.048   1.164   6.798  0.1312 -0.3079  0.3189
   46MOL     H4 5494   7.027   1.021   7.014 -0.5740  1.6900 -2.2662
   46MOL     H5 5495   7.170   0.983   6.922 -0.1873 -1.3945 -0.3266
   46MOL     H6 5496   6.900   1.047   6.833  0.2529 -1.2694  0.2269
   46MOL     H7 5497   7.040   0.867   6.944  1.6207 -0.3541  0.4848
   46MOL     C8 5498   7.021   0.971   6.665 -0.3848  0.1177 -0.9701
   46MOL     C9 5499   6.984   0.826   6.672 -0.4332 -0.1600  0.3379
   46MOL    F10 5500   6.855   0.806   6.713 -0.3095  0.7506  0.2217
   46MOL    H11 5501   6.946   1.015   6.598 -1.0978 -0.1337 -0.3427
   46MOL    H12 5502   7.123   0.989   6.632 -0.4987 -1.2780 -2.1530
   46MOL    H13 5503   7.044   0.775   6.747  1.7675 -0.4699 -1.5494
   46MOL    C14 5504   7.013   0.743   6.551  0.4017 -0.1470  0.6757
   46MOL    C15 5505   6.968   0.593   6.568  0.5178  0.1779 -0.1844
   46MOL    F16 5506   6.839   0.589   6.552 -0.0553  0.0431  0.0444
   46MOL    H17 5507   6.974   0.775   6.454  1.4641  0.0124  0.2830
   46MOL    H18 5508   7.121   0.739   6.536  0.6962  1.2736  2.3724
   46MOL    H19 5509   6.990   0.552   6.667  0.7358 -0.5334 -0.5205
   46MOL    C20 5510   7.024   0.505   6.454 -1.2283  0.4055 -0.2176
   46MOL    C21 5511   6.973   0.360   6.451 -0.2915 -1.2143 -1.2342
   46MOL    F22 5512   7.028   0.317   6.341 -0.5344  0.0601 -0.0535
   46MOL    H23 5513   7.017   0.549   6.354  1.2776  1.3444 -0.0192
   46MOL    H24 5514   7.132   0.513   6.469 -1.2560  1.1471 -0.3798
   46MOL    H25 5515   6.867   0.369   6.428 -0.3842 -0.5716 -0.5907
   46MOL    C26 5516   7.011   0.275   6.575  0.4724  0.2215 -0.0519
   46MOL    C27 5517   6.954   0.131   6.569  0.8001  0.1330 -0.6041
   46MOL    F28 5518   7.012   0.063   6.479 -0.0330  0.2730  0.1340
   46MOL    H29 5519   7.119   0.272   6.581  0.3637 -1.7212  1.3153
   46MOL    H30 5520   6.972   0.325   6.664  1.4817 -0.8048  0.9880
   46MOL    H31 5521   6.847   0.132   6.546  0.6926 -0.1399 -0.1135
   46MOL    C32 5522   6.964   0.046   6.700 -0.0026 -0.6249 -0.4454
   46MOL    C33 5523   6.862   7.938   6.716  0.0677  0.4693 -0.3368
   46MOL    F34 5524   6.858   7.865   6.607  0.5594 -0.2407 -0.0362
   46MOL    H35 5525   7.065   0.009   6.718 -0.7052 -0.8798  3.1724
   46MOL    H36 5526   6.964   0.109   6.789 -0.8350  1.0021 -1.5524
   46MOL    H37 5527   6.761   7.978   6.726 -0.0860 -0.1047  0.5231
   46MOL    C38 5528   6.892   7.858   6.840  0.4433  0.3965 -0.7685
   46MOL    C39 5529   6.799   7.743   6.856 -0.2639  0.2979  0.1585
   46MOL    F40 5530   6.850   7.656   6.944  0.2135 -0.3229  0.2216
   46MOL    H41 5531   6.995   7.825   6.827  0.9258  0.7072  1.9317
   46MOL    H42 5532   6.895   7.918   6.931  0.6725 -1.0712  0.2154
   46MOL    H43 5533   6.791   7.691   6.760 -1.1144  1.0787 -0.2034
   46MOL    C44 5534   6.661   7.784   6.904 -0.0362  0.7174  0.0993
   46MOL    C45 5535   6.559   7.669   6.899 -0.0050 -0.4741  0.2127
   46MOL    F46 5536   6.475   7.680   6.996 -0.2780  0.2664 -0.2545
   46MOL    H47 5537   6.661   7.809   7.011 -4.2706 -2.8821  1.0761
   46MOL    H48 5538   6.625   7.868   6.845 -0.9210 -0.4627 -1.0771
   46MOL    H49 5539   6.606   7.572   6.911 -1.5370 -1.2186  0.2553
   46MOL    C50 5540   6.485   7.673   6.766  0.3102 -0.6574 -0.0128
   46MOL    C51 5541   6.350   7.588   6.766  0.2191 -0.9385  0.3123
   46MOL    F52 5542   6.287   7.611   6.648  0.1153  0.1367  0.2757
   46MOL    H53 5543   6.461   7.770   6.723 -2.7819 -1.1956  0.3700
   46MOL    H54 5544   6.540   7.630   6.682  0.7765  0.8633 -0.5072
   46MOL    H55 5545   6.284   7.617   6.847  0.7058  0.6741  0.1377
   46MOL    C56 5546   6.374   7.445   6.788 -0.6766  0.1997 -0.2003
   46MOL    C57 5547   6.252   7.350   6.796  0.0176  0.9532 -0.2117
   46MOL    F58 5548   6.180   7.348   6.684 -0.2670 -0.0477 -0.1757
   46MOL    H59 5549   6.432   7.407   6.704 -1.3141 -0.8544 -0.1718
   46MOL    H60 5550   6.423   7.430   6.884 -2.2363 -2.1292  0.2692
   46MOL    H61 5551   6.180   7.370   6.875 -0.4530  0.1574 -0.4355
   46MOL    C62 5552   6.291   7.200   6.819 -0.0032  0.1759  0.2428
   46MOL    C63 5553   6.187   7.112   6.901  0.2664  0.4830  0.1800
   46MOL    F64 5554   6.068   7.148   6.856  0.1193 -0.2269 -0.0873
   46MOL    H65 5555   6.303   7.155   6.720 -1.5472  0.2625  0.0127
   46MOL    H66 5556   6.390   7.200   6.864  0.2851  5.0717 -0.1217
   46MOL    H67 5557   6.195   7.158   7.000 -1.6240  0.4227  0.3680
   46MOL    C68 5558   6.211   6.959   6.890 -0.2849 -0.2850  0.0467
   46MOL    C69 5559   6.286   6.898   7.005  0.1068  0.0367  0.2424
   46MOL    F70 5560   6.212   6.904   7.119 -0.1070  0.3650 -0.2973
   46MOL    H71 5561   6.112   6.914   6.886 -1.0718  1.5390 -2.3160
   46MOL    H72 5562   6.260   6.929   6.797  1.5941  0.7846  0.6573
   46MOL    H73 5563   6.382   6.946   7.024 -0.8389  1.1484  2.2724
   46MOL    C74 5564   6.321   6.753   6.971  0.3202  0.2730  0.1048
   46MOL    C75 5565   6.401   6.673   7.063 -0.1752  0.4409  0.1428
   46MOL    F76 5566   6.318   6.645   7.161 -0.2617  0.3138  0.1342
   46MOL    H77 5567   6.226   6.699   6.968 -1.1149  2.7899 -1.4732
   46MOL    H78 5568   6.375   6.747   6.877  0.7979 -2.6020  0.4983
   46MOL    H79 5569   6.479   6.737   7.105 -0.3420  0.6436  0.1415
   46MOL    C80 5570   6.452   6.536   7.012  0.2461  0.4590 -0.3028
   46MOL    C81 5571   6.520   6.442   7.111  0.2444 -0.0754 -0.1465
   46MOL    F82 5572   6.578   6.342   7.042 -0.4187 -0.4148 -0.7101
   46MOL    H83 5573   6.376   6.474   6.964  0.1852 -1.8243  2.6110
   46MOL    H84 5574   6.532   6.555   6.940  2.5358  0.4264  2.1245
   46MOL    H85 5575   6.434   6.412   7.171  0.0554 -0.8544 -0.7902
   46MOL    C86 5576   6.622   6.496   7.213  0.5574  0.3913  0.4613
   46MOL    C87 5577   6.674   6.396   7.322 -0.0321 -0.4403 -0.5994
   46MOL    F88 5578   6.570   6.347   7.385  0.2902 -0.2703 -0.3155
   46MOL    H89 5579   6.702   6.554   7.167 -2.0491  1.6875 -2.6750
   46MOL    H90 5580   6.560   6.565   7.270  0.3738 -0.0768  0.8342
   46MOL    H91 5581   6.726   6.457   7.396  0.9897 -3.4908  1.3232
   46MOL    C92 5582   6.760   6.279   7.276 -0.0607  0.1383 -0.4352
   46MOL    C93 5583   6.838   6.206   7.386 -0.0979 -0.0318  0.3016
   46MOL    F94 5584   6.764   6.178   7.494  0.3447 -0.2017  0.2832
   46MOL    H95 5585   6.698   6.210   7.218 -0.4788  0.6868 -0.6547
   46MOL    H96 5586   6.831   6.331   7.211 -0.2706  1.4344  0.3484
   46MOL    H97 5587   6.920   6.268   7.420 -0.2093  1.0485 -1.3398
   46MOL    C98 5588   6.901   6.074   7.333 -0.7219  0.3299 -0.3048
   46MOL    C99 5589   7.027   6.087   7.244  1.0888 -0.7670  0.5054
   46MOL   F100 5590   7.109   6.159   7.317  0.0433 -0.2915  0.2648
   46MOL   H101 5591   6.922   6.016   7.423  4.0024  3.6114  0.9408
   46MOL   H102 5592   6.821   6.013   7.292  0.1573 -1.4363  0.5070
   46MOL   H103 5593   7.009   6.151   7.157 -2.9989 -0.9950  1.0813
   46MOL   C104 5594   7.083   5.953   7.209  0.2202 -0.3860  0.6173
   46MOL   C105 5595   7.216   5.956   7.139 -0.7845  0.8384  0.5494
   46MOL   F106 5596   7.318   5.977   7.218 -0.0639  0.3224 -0.0983
   46MOL   H107 5597   7.091   5.887   7.295 -1.2368 -2.2854 -0.6723
   46MOL   H108 5598   7.012   5.902   7.144 -0.8185 -0.5282  1.8495
   46MOL   H109 5599   7.200   6.037   7.068  0.0391 -1.1531 -1.9956
   46MOL   C110 5600   7.245   5.833   7.049  0.4556 -0.3715 -0.1418
   46MOL   C111 5601   7.372   5.843   6.952 -0.4685  0.7849  0.2631
   46MOL   F112 5602   7.357   5.942   6.865  0.5501  0.1129  0.0094
   46MOL   H113 5603   7.261   5.747   7.115  0.3291 -0.2331  0.0677
   46MOL   H114 5604   7.159   5.814   6.985 -0.6757  2.1359  0.5882
   46MOL   H115 5605   7.378   5.760   6.882  0.6603 -1.2362  2.6874
   46MOL   C116 5606   7.501   5.849   7.031 -0.1153 -1.0671 -0.7050
   46MOL   C117 5607   7.635   5.829   6.951  0.1636 -0.1759 -0.9551
   46MOL   F118 5608   7.741   5.873   7.023 -0.1668  0.2951  0.5721
   46MOL   H119 5609   7.517   5.930   7.102 -1.6333 -0.1764 -1.3471
   46MOL   H120 5610   7.494   5.755   7.086  0.5302 -1.5058 -1.3722
   46MOL   H121 5611   7.642   5.879   6.854  0.8811 -1.1414 -1.4052
   46MOL   H122 5612   7.658   5.723   6.942  1.4726  0.1387 -1.4747
   47MOL     C1 5613   6.597   6.643   2.587 -0.2068  0.3010 -0.2900
   47MOL     C2 5614   6.626   6.687   2.449 -0.3292 -0.1264 -0.1574
   47MOL     F3 5615   6.697   6.598   2.378  0.1110  0.1889  0.2834
   47MOL     H4 5616   6.681   6.663   2.653 -0.4009  1.3641 -0.3603
   47MOL     H5 5617   6.601   6.535   2.580 -2.2380  0.1342  0.7427
   47MOL     H6 5618   6.685   6.778   2.453 -0.2307 -0.2035  0.1534
   47MOL     H7 5619   6.498   6.662   2.629 -0.0532 -0.1011  0.2599
   47MOL     C8 5620   6.496   6.711   2.365 -0.1401  0.2270  0.6540
   47MOL     C9 5621   6.519   6.747   2.216 -0.1184  0.1341 -0.0327
   47MOL    F10 5622   6.408   6.777   2.151 -0.3360  0.3598  0.4034
   47MOL    H11 5623   6.444   6.616   2.375  1.7805 -0.7447  1.8321
   47MOL    H12 5624   6.436   6.786   2.415 -0.1512  1.5506 -1.2941
   47MOL    H13 5625   6.551   6.660   2.159  0.8510  0.5405 -0.1179
   47MOL    C14 5626   6.618   6.865   2.185 -0.7500  0.0659 -0.8139
   47MOL    C15 5627   6.639   6.874   2.034 -0.3071 -0.1888 -0.3876
   47MOL    F16 5628   6.525   6.932   1.983 -0.3563  0.2631  0.2299
   47MOL    H17 5629   6.583   6.961   2.224 -0.2390 -0.5094  1.1400
   47MOL    H18 5630   6.710   6.848   2.242 -1.2407 -0.2874 -0.1240
   47MOL    H19 5631   6.646   6.774   1.992 -1.4252 -0.1824 -0.6276
   47MOL    C20 5632   6.771   6.952   1.994  0.0814 -0.9415  0.4967
   47MOL    C21 5633   6.785   6.986   1.845  0.4343 -0.1314  0.3154
   47MOL    F22 5634   6.901   7.052   1.819 -0.1816 -0.1145 -0.4899
   47MOL    H23 5635   6.761   7.043   2.053 -0.8318 -1.1507  0.6735
   47MOL    H24 5636   6.861   6.904   2.031  1.2720  1.3120  0.6113
   47MOL    H25 5637   6.701   7.053   1.829 -0.0752 -0.6316  0.8448
   47MOL    C26 5638   6.757   6.866   1.755 -0.0181 -0.4385 -0.4598
   47MOL    C27 5639   6.763   6.889   1.605 -0.6186 -0.2903 -0.0797
   47MOL    F28 5640   6.732   6.782   1.538 -0.4535  0.5664 -0.3778
   47MOL    H29 5641   6.814   6.775   1.775 -2.1265 -2.0539 -1.6356
   47MOL    H30 5642   6.655   6.829   1.765  1.2754 -3.8340  1.2050
   47MOL    H31 5643   6.869   6.900   1.583 -0.5197  1.1999  1.0444
   47MOL    C32 5644   6.679   7.009   1.552  0.1875  0.2299 -0.6177
   47MOL    C33 5645   6.530   6.977   1.542  0.4308  0.6761 -1.2845
   47MOL    F34 5646   6.474   6.966   1.662  0.3582 -0.1435 -0.1121
   47MOL    H35 5647   6.695   7.096   1.616 -0.8334 -1.0906  1.4979
   47MOL    H36 5648   6.714   7.032   1.452 -3.2394  0.8777 -1.7283
   47MOL    H37 5649   6.520   6.874   1.506 -1.8231  0.9215 -1.4255
   47MOL    C38 5650   6.439   7.075   1.459 -0.4247 -0.9754  0.7109
   47MOL    C39 5651   6.469   7.224   1.484 -0.4940  0.0548  0.3917
   47MOL    F40 5652   6.585   7.261   1.435  0.3982 -0.3265  0.5834
   47MOL    H41 5653   6.454   7.051   1.354 -1.9029 -0.1818  0.3024
   47MOL    H42 5654   6.332   7.056   1.469 -0.8430  0.6794 -0.4237
   47MOL    H43 5655   6.456   7.235   1.592 -0.7424 -0.7855  0.4497
   47MOL    C44 5656   6.357   7.306   1.406  0.1831  0.2400 -0.0956
   47MOL    C45 5657   6.357   7.464   1.405 -0.0768  0.1351 -0.0214
   47MOL    F46 5658   6.371   7.512   1.534  0.5941  0.1579 -0.0944
   47MOL    H47 5659   6.354   7.274   1.302  1.3915  0.4367 -0.1977
   47MOL    H48 5660   6.260   7.284   1.451  0.4049  0.3558  0.4426
   47MOL    H49 5661   6.254   7.490   1.381 -0.4335 -1.5176 -0.3351
   47MOL    C50 5662   6.468   7.532   1.307 -0.4592  0.4637  0.5617
   47MOL    C51 5663   6.430   7.683   1.278  0.5337  0.2196 -0.7847
   47MOL    F52 5664   6.297   7.701   1.261  0.1208  0.4378  0.3586
   47MOL    H53 5665   6.567   7.520   1.350 -0.2597  2.7410  0.8340
   47MOL    H54 5666   6.473   7.486   1.208 -0.2345 -0.2368  0.9016
   47MOL    H55 5667   6.471   7.725   1.186  0.5245  0.6772 -0.5824
   47MOL    C56 5668   6.466   7.784   1.397 -0.2204  0.7020 -0.4999
   47MOL    C57 5669   6.615   7.785   1.444  0.5268 -0.0941  1.0094
   47MOL    F58 5670   6.694   7.841   1.356 -0.0467  0.3652 -0.1679
   47MOL    H59 5671   6.446   7.885   1.361  0.3271  0.8996 -0.2507
   47MOL    H60 5672   6.393   7.765   1.476 -0.4951  0.7684 -0.7364
   47MOL    H61 5673   6.657   7.687   1.468 -1.1275 -1.1514 -0.3158
   47MOL    C62 5674   6.630   7.881   1.564  0.0895 -0.2046 -0.7306
   47MOL    C63 5675   6.612   7.811   1.693  0.7252 -0.2978  0.1697
   47MOL    F64 5676   6.705   7.715   1.701 -0.9421 -0.3293  0.0231
   47MOL    H65 5677   6.729   7.926   1.559 -0.0610  0.0722 -1.3388
   47MOL    H66 5678   6.562   7.966   1.552 -0.4110 -0.3544  0.9545
   47MOL    H67 5679   6.509   7.775   1.689 -0.0733  2.1048 -2.6558
   47MOL    C68 5680   6.624   7.900   1.823  0.4066 -0.0203 -0.3300
   47MOL    C69 5681   6.508   7.998   1.854 -0.3598  0.2701  0.1095
   47MOL    F70 5682   6.408   7.929   1.897 -0.3921  0.8103 -0.4057
   47MOL    H71 5683   6.644   7.831   1.905 -1.6890 -0.4453 -0.1593
   47MOL    H72 5684   6.716   7.956   1.805 -0.1196  0.9908  0.0363
   47MOL    H73 5685   6.481   0.031   1.755  0.2408  3.0594  0.8877
   47MOL    C74 5686   6.541   0.120   1.938  0.2808  0.3684 -0.2287
   47MOL    C75 5687   6.421   0.208   1.966  0.4430 -0.1793  0.1943
   47MOL    F76 5688   6.464   0.312   2.037 -0.6227  0.3951 -0.2978
   47MOL    H77 5689   6.581   0.086   2.033  1.5738 -0.7193 -1.1375
   47MOL    H78 5690   6.615   0.180   1.884 -0.6034  0.0734 -1.8036
   47MOL    H79 5691   6.354   0.158   2.036  0.2324  0.8087  0.7058
   47MOL    C80 5692   6.347   0.253   1.829 -0.1833  0.4289  0.2861
   47MOL    C81 5693   6.438   0.331   1.735 -0.1863 -0.8120  0.0781
   47MOL    F82 5694   6.528   0.260   1.670  0.0830 -0.6004 -0.0524
   47MOL    H83 5695   6.307   0.163   1.782  0.8365  0.2868 -0.3296
   47MOL    H84 5696   6.264   0.315   1.861 -0.1568  0.4877  0.2427
   47MOL    H85 5697   6.499   0.411   1.778  0.0696 -1.3162  0.6445
   47MOL    C86 5698   6.352   0.396   1.619  0.5644  0.5384 -0.3805
   47MOL    C87 5699   6.424   0.451   1.499 -0.5440 -0.0237  0.7317
   47MOL    F88 5700   6.451   0.348   1.419 -0.0041  0.7037  0.4285
   47MOL    H89 5701   6.283   0.321   1.581  0.0294 -0.1149  1.8127
   47MOL    H90 5702   6.291   0.472   1.669  0.8461 -0.4293  1.5137
   47MOL    H91 5703   6.527   0.486   1.508 -0.0850 -0.0861 -3.3718
   47MOL    C92 5704   6.335   0.554   1.432  0.0579 -1.0664 -0.0852
   47MOL    C93 5705   6.398   0.639   1.316  0.7586  0.1599  0.3128
   47MOL    F94 5706   6.497   0.710   1.369  0.1079 -0.1595  0.2820
   47MOL    H95 5707   6.244   0.512   1.391  0.6019 -0.9630 -1.4083
   47MOL    H96 5708   6.284   0.615   1.507  0.3870 -2.6885  1.4779
   47MOL    H97 5709   6.325   0.710   1.278  0.1289 -1.2244 -1.1433
   47MOL    C98 5710   6.452   0.542   1.202  0.4320  0.4234 -0.0932
   47MOL    C99 5711   6.499   0.599   1.072  0.1387  0.4047 -0.8834
   47MOL   F100 5712   6.586   0.691   1.105  0.7567 -0.1978 -0.0971
   47MOL   H101 5713   6.526   0.478   1.248 -0.6196 -0.7205  0.0480
   47MOL   H102 5714   6.367   0.477   1.181  0.8902 -0.3223  0.3772
   47MOL   H103 5715   6.419   0.640   1.010 -0.3032 -0.6369 -1.0121
   47MOL   C104 5716   6.578   0.493   0.991  0.4669  0.5233 -0.6157
   47MOL   C105 5717   6.596   0.525   0.841  0.7383 -0.5176  0.5227
   47MOL   F106 5718   6.479   0.525   0.779 -0.1619  0.2079 -0.0803
   47MOL   H107 5719   6.681   0.476   1.022 -0.3796 -2.4449  0.7031
   47MOL   H108 5720   6.541   0.391   1.000  1.6115  0.2779  1.6478
   47MOL   H109 5721   6.655   0.451   0.787 -1.1683 -2.4008  0.9673
   47MOL   C110 5722   6.668   0.656   0.803  0.7445 -0.0184 -0.2243
   47MOL   C111 5723   6.699   0.669   0.661  0.1506 -0.9724  0.5324
   47MOL   F112 5724   6.705   0.796   0.632  0.1936  0.9414  0.0164
   47MOL   H113 5725   6.594   0.731   0.831  0.4112  0.9351 -3.4380
   47MOL   H114 5726   6.749   0.676   0.873  1.8817 -0.8729 -1.2949
   47MOL   H115 5727   6.615   0.638   0.598 -0.4186  2.0036 -0.2385
   47MOL   C116 5728   6.833   0.599   0.622 -0.5482 -0.2218  0.0632
   47MOL   C117 5729   6.832   0.553   0.476  0.1617  0.0900  0.2602
   47MOL   F118 5730   6.950   0.495   0.441  0.2244  0.3659  0.2319
   47MOL   H119 5731   6.918   0.666   0.633  0.7854 -1.8740  0.0792
   47MOL   H120 5732   6.856   0.513   0.685 -1.2823 -0.2533  0.2969
   47MOL   H121 5733   6.810   0.624   0.397  0.7101 -2.3516 -2.1737
   47MOL   H122 5734   6.755   0.476   0.465 -2.0604  1.9030  2.5295
   48MOL     C1 5735   2.280   3.756   7.881 -0.1624  0.5948  0.1659
   48MOL     C2 5736   2.196   3.867   7.823  0.0109  0.2921  0.0512
   48MOL     F3 5737   2.130   3.831   7.712  0.3326  0.0425  0.1810
   48MOL     H4 5738   2.218   3.675   7.919 -0.0920 -0.4735 -1.8866
   48MOL     H5 5739   2.332   3.782   7.973  1.6063 -2.0730 -0.0229
   48MOL     H6 5740   2.259   3.954   7.804  1.8390 -0.9165  0.4079
   48MOL     H7 5741   2.353   3.708   7.816  2.4009  2.9522  1.2191
   48MOL     C8 5742   2.082   3.905   7.930 -0.2093 -0.5535  0.1177
   48MOL     C9 5743   1.988   4.011   7.863 -0.2698  0.3854  0.1876
   48MOL    F10 5744   1.905   4.046   7.956 -0.1642  0.1471  0.6259
   48MOL    H11 5745   2.022   3.825   7.973  1.1571 -0.7426  1.7275
   48MOL    H12 5746   2.130   3.944   0.017 -0.3854  3.5646 -1.4424
   48MOL    H13 5747   1.929   3.974   7.780 -0.0258 -0.4804  0.3948
   48MOL    C14 5748   2.052   4.140   7.818  0.0829 -0.2224  0.3983
   48MOL    C15 5749   2.129   4.228   7.923  0.2613 -0.3485  0.4117
   48MOL    F16 5750   2.236   4.161   7.964  0.1432  0.2113 -0.1106
   48MOL    H17 5751   2.106   4.124   7.724 -2.9892  0.3726 -1.5329
   48MOL    H18 5752   1.965   4.194   7.781 -0.3152 -0.9073  0.3308
   48MOL    H19 5753   2.064   4.237   0.007 -2.0092 -1.5440 -1.1078
   48MOL    C20 5754   2.182   4.356   7.853  0.8195  0.5387  1.1320
   48MOL    C21 5755   2.272   4.455   7.929  0.1154 -0.3380  0.3435
   48MOL    F22 5756   2.325   4.546   7.853 -0.0628  0.1874 -0.0675
   48MOL    H23 5757   2.235   4.327   7.762  1.2614  1.8950  0.9556
   48MOL    H24 5758   2.093   4.410   7.821  0.1250  0.5611  3.0124
   48MOL    H25 5759   2.355   4.402   7.977  0.3127  0.1647  0.5677
   48MOL    C26 5760   2.207   4.535   0.040  0.4696 -0.1409  0.1692
   48MOL    C27 5761   2.078   4.609   7.990  0.3218 -0.3932 -0.1439
   48MOL    F28 5762   1.976   4.523   7.979  0.0254 -0.1942 -0.1898
   48MOL    H29 5763   2.178   4.468   0.121  0.2998  0.4558  0.6111
   48MOL    H30 5764   2.281   4.599   0.089  1.2103 -1.8843  1.3770
   48MOL    H31 5765   2.084   4.647   7.889 -2.8621  1.7154  0.3714
   48MOL    C32 5766   2.032   4.737   0.062  0.9733  0.0941 -0.2006
   48MOL    C33 5767   1.918   4.813   7.998 -0.0516 -0.3209 -0.7811
   48MOL    F34 5768   1.809   4.744   8.000 -0.0366  0.0897 -0.0813
   48MOL    H35 5769   2.005   4.698   0.160 -2.7273  0.3418 -1.0357
   48MOL    H36 5770   2.112   4.810   0.076 -1.2757  2.2201  2.3782
   48MOL    H37 5771   1.947   4.844   7.897 -1.6375 -0.3816 -1.2771
   48MOL    C38 5772   1.881   4.942   0.068  0.3448  0.1911  0.2460
   48MOL    C39 5773   1.773   5.022   7.995  0.3863  0.1157  0.4897
   48MOL    F40 5774   1.747   5.131   0.062  0.2757  0.4214 -0.0717
   48MOL    H41 5775   1.845   4.911   0.166 -0.8210 -1.1808 -0.5846
   48MOL    H42 5776   1.966   5.009   0.072  1.0632 -0.7930  2.1872
   48MOL    H43 5777   1.687   4.956   7.992 -0.1049  0.7690  0.0301
   48MOL    C44 5778   1.811   5.065   7.852  0.2368 -0.6086  0.1577
   48MOL    C45 5779   1.932   5.166   7.842  0.1936  0.1546  0.5751
   48MOL    F46 5780   2.044   5.101   7.881  0.5435 -0.1846 -0.3179
   48MOL    H47 5781   1.816   4.987   7.775 -0.1429  0.8471 -1.3809
   48MOL    H48 5782   1.730   5.125   7.809  0.6382  1.2267  1.9293
   48MOL    H49 5783   1.925   5.242   7.919 -2.3795 -2.1070  2.6804
   48MOL    C50 5784   1.953   5.235   7.705  0.4091  0.0725  0.4698
   48MOL    C51 5785   2.088   5.313   7.697  0.0156  0.3363 -0.2624
   48MOL    F52 5786   2.184   5.222   7.713  0.4999 -0.4573 -0.2087
   48MOL    H53 5787   1.964   5.148   7.641  1.9388 -0.2484  1.1561
   48MOL    H54 5788   1.865   5.291   7.673  1.6086  2.0932  0.6044
   48MOL    H55 5789   2.096   5.376   7.786 -0.3621 -1.4931  1.1182
   48MOL    C56 5790   2.117   5.394   7.572  0.2588  0.2016 -0.3685
   48MOL    C57 5791   2.009   5.496   7.523 -0.0863  0.2330  0.2283
   48MOL    F58 5792   1.991   5.585   7.619  0.7253 -0.0792  0.3755
   48MOL    H59 5793   2.218   5.435   7.579 -0.2181  1.4760 -0.7892
   48MOL    H60 5794   2.129   5.317   7.496  0.5813 -0.2369  0.1201
   48MOL    H61 5795   1.916   5.442   7.509 -0.6753  1.3968 -0.4427
   48MOL    C62 5796   2.045   5.569   7.387 -0.5515 -1.2188  0.7629
   48MOL    C63 5797   1.928   5.650   7.320  0.0825 -0.4555 -0.5557
   48MOL    F64 5798   1.823   5.566   7.317  0.5644  0.3349  0.2167
   48MOL    H65 5799   2.139   5.624   7.394 -0.7963 -0.8105  0.8171
   48MOL    H66 5800   2.077   5.496   7.312 -0.8707 -0.7631  0.1782
   48MOL    H67 5801   1.958   5.679   7.219  1.6536  0.5938  0.1833
   48MOL    C68 5802   1.885   5.772   7.396 -0.7656  0.0707 -0.5616
   48MOL    C69 5803   2.008   5.867   7.425 -0.0794 -0.1609 -0.3293
   48MOL    F70 5804   2.076   5.900   7.310  0.2365 -0.2011  0.3413
   48MOL    H71 5805   1.806   5.830   7.347 -0.3847  0.4007 -0.7828
   48MOL    H72 5806   1.840   5.748   7.493  0.2261  1.0437  0.1561
   48MOL    H73 5807   2.074   5.827   7.501 -1.3445 -0.6200  0.5350
   48MOL    C74 5808   1.951   5.995   7.483  0.3806  0.1338 -0.6929
   48MOL    C75 5809   2.054   6.096   7.543 -0.0750  0.3499 -0.9764
   48MOL    F76 5810   2.160   6.028   7.595 -0.5117 -0.1782  0.4267
   48MOL    H77 5811   1.885   6.033   7.406 -0.4526 -0.9114 -0.4965
   48MOL    H78 5812   1.875   5.967   7.556  0.9703 -0.9698 -0.4825
   48MOL    H79 5813   2.010   6.130   7.637  2.3977 -3.5501  1.7848
   48MOL    C80 5814   2.095   6.218   7.460 -0.4414  0.1251 -0.0748
   48MOL    C81 5815   2.163   6.328   7.538 -0.2783 -0.7781 -0.1647
   48MOL    F82 5816   2.282   6.268   7.584  0.0891 -0.7013 -0.0913
   48MOL    H83 5817   2.160   6.172   7.385  2.1846  2.7106  0.5112
   48MOL    H84 5818   2.015   6.254   7.394  1.4897 -0.9525 -3.1363
   48MOL    H85 5819   2.111   6.349   7.631  3.4964  2.7211  1.2811
   48MOL    C86 5820   2.189   6.454   7.457  0.1088  0.2876 -0.8799
   48MOL    C87 5821   2.233   6.575   7.536  0.6361 -0.5451 -0.5119
   48MOL    F88 5822   2.339   6.554   7.626  0.0285 -0.0120  0.6190
   48MOL    H89 5823   2.273   6.434   7.391 -1.3784  0.4639 -2.8711
   48MOL    H90 5824   2.110   6.497   7.395 -1.0094  1.9322  1.6200
   48MOL    H91 5825   2.152   6.589   7.607  3.1915  2.7127  1.9252
   48MOL    C92 5826   2.260   6.697   7.446 -0.4093 -0.4190  0.4058
   48MOL    C93 5827   2.215   6.834   7.499 -1.2114 -0.0776 -0.5558
   48MOL    F94 5828   2.097   6.821   7.550  0.3625 -0.3332 -0.1309
   48MOL    H95 5829   2.360   6.693   7.403 -0.8021  0.0540 -0.5895
   48MOL    H96 5830   2.204   6.702   7.352  2.5188  0.1497 -1.3512
   48MOL    H97 5831   2.201   6.904   7.417 -0.3154  1.4559  0.5776
   48MOL    C98 5832   2.303   6.890   7.611 -0.6962  0.0977  0.1763
   48MOL    C99 5833   2.449   6.907   7.572  0.1777 -0.2544 -0.0741
   48MOL   F100 5834   2.459   6.963   7.449  0.1899  0.1868  0.1385
   48MOL   H101 5835   2.250   6.980   7.644 -1.1012 -0.2852  0.5721
   48MOL   H102 5836   2.315   6.829   7.701 -1.8769  1.3354  1.2047
   48MOL   H103 5837   2.494   6.810   7.549 -0.7933 -0.6827 -0.1663
   48MOL   C104 5838   2.543   6.982   7.671 -0.3810 -0.5438 -0.1657
   48MOL   C105 5839   2.693   6.997   7.631 -0.3864 -0.1881  0.5192
   48MOL   F106 5840   2.748   7.068   7.733  0.3049 -0.3622 -0.1602
   48MOL   H107 5841   2.504   7.084   7.681  4.3201  1.5404 -1.5327
   48MOL   H108 5842   2.530   6.946   7.773 -1.3736 -0.8513 -0.3990
   48MOL   H109 5843   2.706   7.069   7.550  0.5279 -1.2990 -0.3181
   48MOL   C110 5844   2.765   6.856   7.618 -1.0547 -0.5834  0.7025
   48MOL   C111 5845   2.921   6.865   7.593 -0.6468  0.3498  0.4834
   48MOL   F112 5846   2.969   6.918   7.703  0.3513  0.0871 -0.2589
   48MOL   H113 5847   2.744   6.793   7.705  1.0555 -0.1636  1.5540
   48MOL   H114 5848   2.727   6.794   7.537 -0.0430  1.0664 -1.0630
   48MOL   H115 5849   2.941   6.936   7.513 -1.2483 -0.5020 -0.4327
   48MOL   C116 5850   3.005   6.738   7.568 -0.3607  0.1123 -0.7381
   48MOL   C117 5851   3.013   6.643   7.681  0.1726  0.1165  0.2410
   48MOL   F118 5852   3.058   6.521   7.644 -0.5791 -0.3113 -0.4887
   48MOL   H119 5853   2.960   6.678   7.489 -1.0347  0.7633 -0.8578
   48MOL   H120 5854   3.106   6.770   7.544  0.9887 -1.0296  3.2360
   48MOL   H121 5855   2.911   6.628   7.716  1.0486 -0.0576  2.8282
   48MOL   H122 5856   3.076   6.675   7.764  0.0211  2.8332 -0.6663
   49MOL     C1 5857   4.514   0.215   2.559 -0.1470 -0.0999 -0.0389
   49MOL     C2 5858   4.457   0.199   2.422 -0.5447 -0.1845 -0.2463
   49MOL     F3 5859   4.469   0.310   2.353  0.1026  0.2704 -0.2264
   49MOL     H4 5860   4.511   0.125   2.620  1.0239  0.7019  1.2319
   49MOL     H5 5861   4.470   0.292   2.622  0.8511 -1.0583  1.8530
   49MOL     H6 5862   4.350   0.178   2.423 -0.7423  0.8057 -0.4052
   49MOL     H7 5863   4.619   0.244   2.557 -0.3496  0.6326 -0.1223
   49MOL     C8 5864   4.529   0.103   2.336  0.3209  0.5120 -0.1662
   49MOL     C9 5865   4.525   7.955   2.377  0.0370 -0.7720 -0.2964
   49MOL    F10 5866   4.399   7.909   2.393 -0.5603 -0.0826 -0.3021
   49MOL    H11 5867   4.475   0.113   2.242  0.4805 -0.6189 -0.3839
   49MOL    H12 5868   4.632   0.134   2.318  0.9221 -1.0755  0.4686
   49MOL    H13 5869   4.576   7.927   2.469 -3.0271 -2.7081  0.9096
   49MOL    C14 5870   4.593   7.874   2.269  0.2170 -0.4950 -0.1703
   49MOL    C15 5871   4.613   7.722   2.294 -0.0649 -0.3964  0.5363
   49MOL    F16 5872   4.696   7.719   2.405 -0.0597  0.5498 -0.0783
   49MOL    H17 5873   4.558   7.895   2.168  2.2653  1.7926 -0.4448
   49MOL    H18 5874   4.698   7.905   2.268 -0.1055  1.0544  3.4556
   49MOL    H19 5875   4.671   7.679   2.212 -1.3071 -0.3804 -0.3675
   49MOL    C20 5876   4.486   7.623   2.316 -0.3875 -0.0519 -0.4799
   49MOL    C21 5877   4.388   7.611   2.205  0.6366 -0.0685  0.2801
   49MOL    F22 5878   4.456   7.580   2.090 -0.3369  0.0488  0.0907
   49MOL    H23 5879   4.528   7.524   2.332 -4.0757 -2.1321 -3.1069
   49MOL    H24 5880   4.432   7.653   2.406  1.4574  1.2694  0.2245
   49MOL    H25 5881   4.347   7.710   2.183  4.4700  2.2408  2.8939
   49MOL    C26 5882   4.270   7.513   2.231  0.0165 -0.1974 -0.2675
   49MOL    C27 5883   4.141   7.502   2.141  0.5675 -0.1695  0.0778
   49MOL    F28 5884   4.106   7.370   2.144 -0.1397  0.0699  0.4699
   49MOL    H29 5885   4.313   7.413   2.237 -0.4531 -0.3433  0.6298
   49MOL    H30 5886   4.236   7.526   2.334  0.4538  3.3610 -0.5038
   49MOL    H31 5887   4.166   7.513   2.035  0.1033  0.3805  0.0211
   49MOL    C32 5888   4.017   7.570   2.194 -0.2440  0.6439  0.1969
   49MOL    C33 5889   3.889   7.558   2.103  0.6270  0.3224  0.5976
   49MOL    F34 5890   3.786   7.613   2.168 -0.0392 -0.2303  0.5221
   49MOL    H35 5891   3.995   7.541   2.297  3.7376  1.3013  1.3128
   49MOL    H36 5892   4.034   7.678   2.194  0.1951  0.5771  0.7807
   49MOL    H37 5893   3.870   7.452   2.093  3.0560 -0.1889  0.9242
   49MOL    C38 5894   3.906   7.614   1.961 -0.5149 -0.1909 -0.7627
   49MOL    C39 5895   3.906   7.770   1.951 -0.0916 -0.4478 -0.2736
   49MOL    F40 5896   4.012   7.823   2.012 -0.4574 -0.4037  0.0556
   49MOL    H41 5897   3.994   7.562   1.924 -0.1924  0.3083 -0.7017
   49MOL    H42 5898   3.826   7.583   1.893 -0.8739 -0.0653 -0.4022
   49MOL    H43 5899   3.824   7.813   2.008 -2.3922 -0.5950 -3.3279
   49MOL    C44 5900   3.903   7.829   1.808 -0.3082 -0.0042  0.1290
   49MOL    C45 5901   3.902   7.984   1.793 -0.1343 -0.3689 -0.3995
   49MOL    F46 5902   4.019   0.033   1.837 -0.1680  0.2422  0.1503
   49MOL    H47 5903   3.987   7.795   1.747 -1.4282 -2.1932 -0.2477
   49MOL    H48 5904   3.818   7.780   1.761  0.7582 -2.5899  0.8196
   49MOL    H49 5905   3.831   0.027   1.861 -0.2337  0.5762 -1.1231
   49MOL    C50 5906   3.874   0.025   1.644  0.2755  0.4196  0.3106
   49MOL    C51 5907   3.864   0.184   1.629  0.4445 -0.0868  0.0320
   49MOL    F52 5908   3.755   0.224   1.702  0.4503 -0.1038 -0.3236
   49MOL    H53 5909   3.953   7.994   1.577  0.4945 -0.9158  1.2314
   49MOL    H54 5910   3.785   7.976   1.611  0.5166  0.7472 -0.8783
   49MOL    H55 5911   3.839   0.204   1.525 -0.6505  2.4235  0.7309
   49MOL    C56 5912   3.986   0.267   1.676  0.6307 -0.1850  0.2229
   49MOL    C57 5913   3.990   0.408   1.612  0.4365 -0.1090  0.9019
   49MOL    F58 5914   3.989   0.395   1.481  0.5908 -0.0855 -0.1952
   49MOL    H59 5915   3.984   0.271   1.785  0.5504 -0.0831  0.2173
   49MOL    H60 5916   4.076   0.216   1.641 -0.1410 -1.7450  0.4705
   49MOL    H61 5917   4.088   0.457   1.617  1.0335 -1.1180 -0.4282
   49MOL    C62 5918   3.889   0.510   1.654 -0.2557 -0.4424 -0.7651
   49MOL    C63 5919   3.888   0.535   1.808  0.1463  0.3550  0.0411
   49MOL    F64 5920   4.011   0.549   1.854  0.1979  0.3607 -0.0325
   49MOL    H65 5921   3.925   0.605   1.613  0.4334  0.0577  0.9193
   49MOL    H66 5922   3.789   0.495   1.614  0.7130 -2.9871 -2.3100
   49MOL    H67 5923   3.860   0.443   1.859  0.2027 -0.4291 -1.3100
   49MOL    C68 5924   3.802   0.655   1.858 -0.2043  0.7161 -1.3116
   49MOL    C69 5925   3.812   0.679   2.013 -0.0889  0.2022 -0.3825
   49MOL    F70 5926   3.942   0.699   2.040  0.4823  0.3069  0.2387
   49MOL    H71 5927   3.846   0.745   1.815 -0.1985  1.4632  0.2427
   49MOL    H72 5928   3.699   0.645   1.825  0.1166 -0.8816 -1.9246
   49MOL    H73 5929   3.781   0.593   2.073  0.9087  0.9176  1.1882
   49MOL    C74 5930   3.745   0.802   2.060  0.6904 -0.1161 -0.0222
   49MOL    C75 5931   3.779   0.851   2.200 -0.1472 -0.2281 -0.5932
   49MOL    F76 5932   3.724   0.972   2.216  0.6307 -0.5477 -0.3823
   49MOL    H77 5933   3.781   0.889   2.005 -1.8937  1.3534  0.5305
   49MOL    H78 5934   3.638   0.798   2.045  0.6421 -1.5108  0.6120
   49MOL    H79 5935   3.887   0.866   2.208 -0.1912  1.2835 -2.4892
   49MOL    C80 5936   3.736   0.759   2.315  0.1696  0.4259  0.4144
   49MOL    C81 5937   3.745   0.811   2.453  0.7881  0.3689 -0.0412
   49MOL    F82 5938   3.674   0.739   2.543 -0.1813  0.1781  0.0787
   49MOL    H83 5939   3.628   0.754   2.298  0.4272  1.5159 -1.7473
   49MOL    H84 5940   3.773   0.657   2.319  1.3046  0.8606  1.3041
   49MOL    H85 5941   3.693   0.907   2.461 -1.2109 -0.5026 -1.8788
   49MOL    C86 5942   3.890   0.808   2.516 -0.4434 -0.4058  0.4157
   49MOL    C87 5943   3.964   0.679   2.537 -0.0682 -0.0697  0.0410
   49MOL    F88 5944   4.017   0.643   2.418  0.2722  0.2960  0.0315
   49MOL    H89 5945   3.945   0.887   2.465 -0.4440 -1.5916 -1.4520
   49MOL    H90 5946   3.879   0.858   2.612 -0.0889 -0.9794  0.7605
   49MOL    H91 5947   3.882   0.612   2.563 -0.9034  0.4938 -1.0533
   49MOL    C92 5948   4.071   0.690   2.648  0.4781 -0.4608  0.4243
   49MOL    C93 5949   4.155   0.562   2.682  0.2348 -0.1683 -0.7215
   49MOL    F94 5950   4.231   0.605   2.786 -0.3766 -0.2612 -0.3761
   49MOL    H95 5951   4.156   0.749   2.614 -0.2141 -0.5453 -1.5157
   49MOL    H96 5952   4.024   0.725   2.739  1.6321  2.1539  0.0565
   49MOL    H97 5953   4.233   0.536   2.610  1.5015 -0.8706  0.8734
   49MOL    C98 5954   4.084   0.436   2.727  0.4891 -0.1951  0.1156
   49MOL    C99 5955   4.033   0.341   2.619 -0.1912 -0.1189  0.3828
   49MOL   F100 5956   4.138   0.259   2.594  0.6843  0.5587  0.2944
   49MOL   H101 5957   4.139   0.390   2.808  0.1990  1.5867  1.3662
   49MOL   H102 5958   3.991   0.468   2.774  0.0957  1.7714 -1.8876
   49MOL   H103 5959   4.026   0.398   2.527  1.8927  1.7196  1.3245
   49MOL   C104 5960   3.918   0.251   2.656 -0.3930  0.4303 -0.4192
   49MOL   C105 5961   3.793   0.317   2.722 -0.1428  0.3405  0.7195
   49MOL   F106 5962   3.762   0.432   2.662 -0.0344 -0.7108 -0.4019
   49MOL   H107 5963   3.883   0.200   2.566 -1.2862 -0.9314  0.6869
   49MOL   H108 5964   3.948   0.178   2.731 -0.0276  1.7261  0.7053
   49MOL   H109 5965   3.816   0.337   2.826 -1.4059 -0.6410  1.2043
   49MOL   C110 5966   3.672   0.227   2.714 -0.2540 -0.1098  0.2841
   49MOL   C111 5967   3.543   0.273   2.787 -0.1841  0.4251  0.0613
   49MOL   F112 5968   3.573   0.266   2.920 -0.0371 -0.0373 -0.5479
   49MOL   H113 5969   3.666   0.202   2.608  1.0154 -2.7522  0.7884
   49MOL   H114 5970   3.702   0.137   2.769  3.0170  0.0391 -1.2103
   49MOL   H115 5971   3.460   0.204   2.779  0.8173 -0.7533 -0.3499
   49MOL   C116 5972   3.495   0.417   2.762 -0.2707  0.7082 -0.6553
   49MOL   C117 5973   3.442   0.432   2.621  0.1544 -0.1184 -0.3714
   49MOL   F118 5974   3.325   0.367   2.587 -0.0167  0.3801  0.2960
   49MOL   H119 5975   3.412   0.442   2.828 -0.0938 -0.5739  0.0869
   49MOL   H120 5976   3.569   0.488   2.797 -0.2984  0.2568  0.3695
   49MOL   H121 5977   3.513   0.393   2.548  1.4488 -3.2082  2.4216
   49MOL   H122 5978   3.429   0.537   2.598  0.9741  0.1466  0.3713
   50MOL     C1 5979   5.002   1.236   7.412  0.5260 -0.3861  0.0341
   50MOL     C2 5980   4.951   1.280   7.556  0.2663 -0.6610  0.7755
   50MOL     F3 5981   5.033   1.241   7.646 -0.4689  0.3752  0.2548
   50MOL     H4 5982   5.110   1.251   7.405  0.6440 -1.2136 -0.0343
   50MOL     H5 5983   4.956   1.295   7.334  0.6324 -0.9918 -0.4882
   50MOL     H6 5984   4.856   1.235   7.585  0.3482  0.0538  2.2040
   50MOL     H7 5985   4.975   1.133   7.388  0.9482 -0.4534 -0.1626
   50MOL     C8 5986   4.941   1.427   7.567  0.3167  0.1112 -0.0420
   50MOL     C9 5987   4.867   1.483   7.696 -0.0717  0.6050  0.1212
   50MOL    F10 5988   4.953   1.488   7.796 -0.4166  0.0530 -0.0303
   50MOL    H11 5989   5.039   1.469   7.545 -0.0496  1.9600  1.7755
   50MOL    H12 5990   4.875   1.454   7.485 -1.8239  3.4164  2.6202
   50MOL    H13 5991   4.788   1.415   7.727 -0.3398  1.1567  0.6657
   50MOL    C14 5992   4.825   1.628   7.672  0.4947  0.0035  0.2230
   50MOL    C15 5993   4.765   1.688   7.799  0.5421 -0.5615  1.1285
   50MOL    F16 5994   4.758   1.816   7.780  0.1304 -0.2473  0.1490
   50MOL    H17 5995   4.905   1.690   7.631 -0.4855 -0.1612 -1.9919
   50MOL    H18 5996   4.750   1.634   7.593 -0.2533  0.1308  0.9378
   50MOL    H19 5997   4.836   1.689   7.881  1.2707  0.3965  0.5010
   50MOL    C20 5998   4.633   1.625   7.845  0.1089  1.2099  0.5725
   50MOL    C21 5999   4.511   1.631   7.751  0.4797  0.8377 -0.3445
   50MOL    F22 6000   4.536   1.569   7.639  0.0610  0.4698 -0.0050
   50MOL    H23 6001   4.655   1.525   7.882 -0.8366  0.9157  0.3474
   50MOL    H24 6002   4.616   1.668   7.944 -0.6462  0.8997  0.5813
   50MOL    H25 6003   4.474   1.731   7.726 -0.5283  0.1238 -1.7320
   50MOL    C26 6004   4.383   1.555   7.808 -0.2274  0.0495  0.4807
   50MOL    C27 6005   4.251   1.587   7.729  0.2502 -0.1439  0.7832
   50MOL    F28 6006   4.254   1.505   7.622  0.5193  0.3989 -0.0408
   50MOL    H29 6007   4.406   1.449   7.816 -1.1923 -0.3184 -1.4663
   50MOL    H30 6008   4.368   1.605   7.904 -0.6918 -1.3013  1.1177
   50MOL    H31 6009   4.252   1.691   7.695  1.3424 -0.9194 -1.6883
   50MOL    C32 6010   4.119   1.569   7.805 -0.6565  0.3382 -0.2639
   50MOL    C33 6011   4.002   1.606   7.718  0.1596 -0.4812  0.5891
   50MOL    F34 6012   3.890   1.555   7.760  0.2648 -0.1956  0.1301
   50MOL    H35 6013   4.121   1.463   7.830  1.4477  0.5804  0.6876
   50MOL    H36 6014   4.113   1.627   7.897  0.0676  2.3195 -1.4091
   50MOL    H37 6015   4.027   1.566   7.619  0.2752  0.7127  0.1334
   50MOL    C38 6016   3.975   1.763   7.702 -0.4020 -0.5566 -0.0173
   50MOL    C39 6017   3.886   1.835   7.805 -0.0170  0.4079 -0.0596
   50MOL    F40 6018   3.959   1.845   7.920  0.4722  0.6504 -0.0645
   50MOL    H41 6019   4.071   1.813   7.698 -0.9015  0.5528  1.5535
   50MOL    H42 6020   3.929   1.759   7.603  0.9373  1.0458 -0.7371
   50MOL    H43 6021   3.797   1.775   7.824 -0.0241  0.4065 -0.0988
   50MOL    C44 6022   3.839   1.973   7.764  0.8565 -0.9655  1.0363
   50MOL    C45 6023   3.734   1.971   7.651  0.2190 -0.1662 -0.3014
   50MOL    F46 6024   3.628   1.899   7.689  0.1150  0.4028 -0.0251
   50MOL    H47 6025   3.779   2.015   7.845  0.3021 -1.0352  0.6683
   50MOL    H48 6026   3.919   2.046   7.748 -0.2240  0.4377  1.9128
   50MOL    H49 6027   3.771   1.926   7.559 -1.5898 -1.7066 -0.3163
   50MOL    C50 6028   3.688   2.117   7.629 -0.2462  0.1956 -0.5403
   50MOL    C51 6029   3.632   2.148   7.492  0.0381  0.3974  0.2721
   50MOL    F52 6030   3.716   2.107   7.393  0.0091  0.3006 -0.3996
   50MOL    H53 6031   3.615   2.143   7.706  0.6693  1.7895 -0.1948
   50MOL    H54 6032   3.772   2.185   7.644 -0.4254  0.3609 -0.2905
   50MOL    H55 6033   3.629   2.256   7.477  0.4946  0.5668  1.3438
   50MOL    C56 6034   3.500   2.075   7.472  0.1049 -0.1637 -0.4054
   50MOL    C57 6035   3.412   2.104   7.345 -0.2699 -0.1981 -0.0140
   50MOL    F58 6036   3.486   2.076   7.233  0.0357 -0.2797 -0.0784
   50MOL    H59 6037   3.528   1.969   7.471  0.6193 -0.0460  0.7356
   50MOL    H60 6038   3.440   2.099   7.559  1.4596 -0.1536  0.5389
   50MOL    H61 6039   3.402   2.211   7.331  0.4915 -0.2960 -1.4920
   50MOL    C62 6040   3.284   2.032   7.340 -0.0693 -0.8571  0.6021
   50MOL    C63 6041   3.198   2.048   7.214 -0.2286 -0.2089  0.1090
   50MOL    F64 6042   3.080   1.981   7.241  0.1772 -0.0933 -0.4244
   50MOL    H65 6043   3.303   1.926   7.350  2.7747 -0.2671  1.8980
   50MOL    H66 6044   3.226   2.054   7.430  1.6005  2.5464  0.9181
   50MOL    H67 6045   3.229   1.991   7.127  0.0871  1.3267 -0.8157
   50MOL    C68 6046   3.171   2.200   7.172 -0.8443  0.4535  0.9771
   50MOL    C69 6047   3.125   2.204   7.022  0.2844  0.8011 -0.9649
   50MOL    F70 6048   3.230   2.175   6.948  0.1604  0.1418  0.4241
   50MOL    H71 6049   3.096   2.248   7.234 -1.1751 -0.1313  1.0406
   50MOL    H72 6050   3.258   2.265   7.178 -0.0816 -0.3337 -0.9802
   50MOL    H73 6051   3.097   2.305   6.990 -0.4227 -0.3833 -4.2943
   50MOL    C74 6052   3.012   2.108   6.977  0.8736  0.5883  0.1424
   50MOL    C75 6053   2.884   2.149   7.049 -0.1242 -0.1211 -0.6244
   50MOL    F76 6054   2.862   2.276   7.018  0.0095 -0.3932  0.1475
   50MOL    H77 6055   3.002   2.112   6.869  5.9885  1.3256 -0.4260
   50MOL    H78 6056   3.037   2.002   6.990 -1.8897 -0.1249 -0.0313
   50MOL    H79 6057   2.883   2.136   7.158 -2.1152 -1.2539 -0.7561
   50MOL    C80 6058   2.764   2.060   6.997 -0.2668  0.4076 -0.0260
   50MOL    C81 6059   2.627   2.082   7.061  0.8985  0.5670 -0.3321
   50MOL    F82 6060   2.579   2.201   7.021 -0.0092  0.3383 -0.1171
   50MOL    H83 6061   2.770   2.048   6.889 -4.0570  0.8614 -0.3516
   50MOL    H84 6062   2.793   1.963   7.040  2.4368  1.1178 -0.1383
   50MOL    H85 6063   2.638   2.082   7.169 -0.0481  0.0033 -0.2359
   50MOL    C86 6064   2.529   1.973   7.012  0.0485 -0.7757 -0.0564
   50MOL    C87 6065   2.382   2.006   7.019 -1.1440  0.0731  0.5683
   50MOL    F88 6066   2.314   1.900   6.978  0.0273  0.0664  0.5118
   50MOL    H89 6067   2.558   1.973   6.907  0.1495  0.4623 -0.0382
   50MOL    H90 6068   2.550   1.875   7.055  0.3323 -0.2971  0.9006
   50MOL    H91 6069   2.359   2.089   6.952 -0.8511 -0.4626 -0.2036
   50MOL    C92 6070   2.329   2.038   7.162 -0.3138  0.9501  0.0708
   50MOL    C93 6071   2.332   1.908   7.259  0.0423 -0.0254  0.6135
   50MOL    F94 6072   2.440   1.908   7.327  0.2581 -0.6532 -0.3240
   50MOL    H95 6073   2.381   2.119   7.213 -0.2926  0.6957  0.4640
   50MOL    H96 6074   2.224   2.064   7.154 -0.5356 -0.4603 -1.9438
   50MOL    H97 6075   2.342   1.814   7.204 -2.2278  0.4657 -0.7085
   50MOL    C98 6076   2.199   1.887   7.336  0.0957  0.1860  0.0649
   50MOL    C99 6077   2.210   1.774   7.438  0.3051  0.6021 -0.2787
   50MOL   F100 6078   2.106   1.797   7.518 -0.1091 -0.7484 -0.5090
   50MOL   H101 6079   2.162   1.974   7.391  0.0465  0.5539 -0.5500
   50MOL   H102 6080   2.118   1.861   7.267 -0.7394  1.7446  0.4402
   50MOL   H103 6081   2.296   1.795   7.502  0.4186 -3.1432  0.9094
   50MOL   C104 6082   2.217   1.630   7.383  0.1158  0.3497  0.1083
   50MOL   C105 6083   2.261   1.514   7.486 -0.1596  0.0970  0.1450
   50MOL   F106 6084   2.267   1.397   7.415 -0.5155  0.3383  0.3898
   50MOL   H107 6085   2.117   1.591   7.365 -0.6364  1.4803  1.7141
   50MOL   H108 6086   2.280   1.622   7.295 -1.5104  1.0013 -1.1490
   50MOL   H109 6087   2.188   1.505   7.566 -1.0841  0.5777 -0.6289
   50MOL   C110 6088   2.406   1.537   7.537 -0.7499 -0.5470 -0.4394
   50MOL   C111 6089   2.460   1.426   7.632 -0.0423  0.8177 -0.2302
   50MOL   F112 6090   2.468   1.306   7.570 -0.1436 -0.0521  0.1935
   50MOL   H113 6091   2.466   1.540   7.445  0.1302  0.9681  0.1749
   50MOL   H114 6092   2.415   1.630   7.593 -0.1787 -2.5442  2.8926
   50MOL   H115 6093   2.388   1.413   7.713 -0.8062 -2.4492 -1.3510
   50MOL   C116 6094   2.596   1.464   7.692 -0.2119 -0.3155 -0.9021
   50MOL   C117 6095   2.660   1.360   7.786  0.6047  0.2182  0.1185
   50MOL   F118 6096   2.664   1.415   7.906 -0.0062 -0.5685  0.5397
   50MOL   H119 6097   2.671   1.497   7.620  0.5271  1.2793  0.5640
   50MOL   H120 6098   2.564   1.559   7.735 -1.2079  0.0005 -2.3071
   50MOL   H121 6099   2.767   1.345   7.770  0.9809  0.5666  2.1812
   50MOL   H122 6100   2.609   1.264   7.786  0.4925  0.2582 -1.9928
   51MOL     C1 6101   1.326   2.049   4.020  0.2447 -0.2240 -0.0131
   51MOL     C2 6102   1.312   1.896   3.998 -0.4460 -0.1441  0.0074
   51MOL     F3 6103   1.366   1.865   3.876  0.5559 -0.7508  0.3836
   51MOL     H4 6104   1.279   2.106   3.940  0.4651  2.1056  1.4477
   51MOL     H5 6105   1.427   2.085   4.042  0.8258 -2.6065  1.4121
   51MOL     H6 6106   1.207   1.870   3.986 -0.2917 -1.1648  0.9127
   51MOL     H7 6107   1.273   2.079   4.110 -0.8172  1.6156 -1.2142
   51MOL     C8 6108   1.385   1.816   4.109  0.0540  0.0079 -0.2297
   51MOL     C9 6109   1.352   1.669   4.100  0.0263  0.0832 -0.2413
   51MOL    F10 6110   1.403   1.618   3.996 -0.3207  0.2288 -0.6364
   51MOL    H11 6111   1.494   1.822   4.101 -0.0235 -0.6315 -2.0599
   51MOL    H12 6112   1.355   1.854   4.206  2.7753  0.1983  0.5765
   51MOL    H13 6113   1.245   1.660   4.084  0.3125 -1.9681 -1.1609
   51MOL    C14 6114   1.398   1.588   4.221  0.2839  0.4779  0.4747
   51MOL    C15 6115   1.305   1.596   4.348 -1.2916  0.0414  1.3572
   51MOL    F16 6116   1.299   1.711   4.398 -0.1849  0.2480 -0.5341
   51MOL    H17 6117   1.406   1.482   4.196 -1.2455 -0.2184  2.7997
   51MOL    H18 6118   1.503   1.612   4.236 -0.0023  1.6457  0.6075
   51MOL    H19 6119   1.359   1.547   4.428  1.0006 -0.5609 -0.5162
   51MOL    C20 6120   1.149   1.560   4.335 -0.4304 -0.4184 -0.6030
   51MOL    C21 6121   1.123   1.411   4.330 -0.1686 -0.7032 -0.6148
   51MOL    F22 6122   1.177   1.355   4.434 -0.7800  0.4741 -0.5132
   51MOL    H23 6123   1.096   1.605   4.419  1.9724  2.1913 -0.4301
   51MOL    H24 6124   1.109   1.609   4.246 -0.0020 -1.9929 -1.6714
   51MOL    H25 6125   1.181   1.369   4.248  0.7646 -1.0138  0.1928
   51MOL    C26 6126   0.972   1.362   4.321 -0.3612  0.1687 -1.4234
   51MOL    C27 6127   0.956   1.212   4.321 -0.5079 -0.3536  0.4934
   51MOL    F28 6128   0.987   1.164   4.439 -0.7856  0.1330 -0.0303
   51MOL    H29 6129   0.906   1.408   4.395  1.6766  2.7304 -1.1352
   51MOL    H30 6130   0.936   1.404   4.227 -1.9748 -2.3801 -1.9683
   51MOL    H31 6131   1.023   1.173   4.245 -0.6736  1.8370 -0.8448
   51MOL    C32 6132   0.806   1.161   4.303 -0.0989 -0.1633 -0.0534
   51MOL    C33 6133   0.721   1.209   4.181  1.0075  0.3351  0.1555
   51MOL    F34 6134   0.790   1.193   4.079 -0.7475 -0.0467  0.3914
   51MOL    H35 6135   0.812   1.052   4.296  0.6328 -0.0299 -1.7646
   51MOL    H36 6136   0.756   1.195   4.394  0.5746 -1.1003  0.6843
   51MOL    H37 6137   0.714   1.318   4.176 -0.0865  0.2124 -1.2148
   51MOL    C38 6138   0.587   1.141   4.179 -0.9053 -0.7585 -0.5627
   51MOL    C39 6139   0.487   1.166   4.297 -0.2187  0.0992  0.9708
   51MOL    F40 6140   0.488   1.290   4.345 -0.2734 -0.1872 -0.2951
   51MOL    H41 6141   0.533   1.169   4.088  1.2713 -0.2335 -1.7296
   51MOL    H42 6142   0.611   1.035   4.169  1.9628 -0.2234  0.2972
   51MOL    H43 6143   0.526   1.109   4.381 -1.1660  0.7048  1.8543
   51MOL    C44 6144   0.341   1.138   4.275  0.2106 -0.0121  0.7222
   51MOL    C45 6145   0.243   1.173   4.391 -0.2031  0.4609 -1.1406
   51MOL    F46 6146   0.121   1.152   4.344  0.1325 -0.4674  0.3962
   51MOL    H47 6147   0.304   1.198   4.192 -0.7052  0.2361  1.3033
   51MOL    H48 6148   0.326   1.034   4.244 -1.0703  0.3416  0.1414
   51MOL    H49 6149   0.252   1.276   4.424 -0.7579 -0.1945  1.2354
   51MOL    C50 6150   0.258   1.098   4.525 -0.1789  0.0342  1.2104
   51MOL    C51 6151   0.217   0.949   4.522 -0.3522  0.2632 -0.0512
   51MOL    F52 6152   0.291   0.886   4.430  0.0676  0.3374 -0.3023
   51MOL    H53 6153   0.361   1.112   4.558 -0.6731  1.7590  2.0703
   51MOL    H54 6154   0.182   1.144   4.588 -1.3811  1.0039 -0.9020
   51MOL    H55 6155   0.117   0.939   4.481 -0.7761  0.2934  0.9515
   51MOL    C56 6156   0.228   0.889   4.667 -0.0059 -0.0125 -0.0898
   51MOL    C57 6157   0.168   0.748   4.679  1.1243  0.2124 -0.2238
   51MOL    F58 6158   0.247   0.661   4.612 -0.1504 -0.6311  0.3070
   51MOL    H59 6159   0.335   0.889   4.690 -0.2714 -1.2533  1.2100
   51MOL    H60 6160   0.187   0.951   4.746  0.9044 -0.5537  0.8121
   51MOL    H61 6161   0.077   0.728   4.622  1.6524 -1.6613 -0.4578
   51MOL    C62 6162   0.132   0.701   4.823 -0.4575 -0.5790  0.2674
   51MOL    C63 6163   0.023   0.592   4.829  1.1867  0.1924 -0.0712
   51MOL    F64 6164   0.051   0.483   4.744 -0.4735  0.0963 -0.2422
   51MOL    H65 6165   0.226   0.660   4.860 -0.5986 -0.9909  0.1612
   51MOL    H66 6166   0.111   0.783   4.892 -1.9718 -3.2312  3.0450
   51MOL    H67 6167   7.934   0.638   4.795 -0.2765 -2.4043  0.2537
   51MOL    C68 6168   0.011   0.541   4.969  0.7850  0.2462 -0.2063
   51MOL    C69 6169   7.915   0.422   4.982  0.1738 -0.5353  0.9500
   51MOL    F70 6170   7.935   0.367   5.104 -0.3529  0.2657 -0.4705
   51MOL    H71 6171   0.109   0.506   5.002  0.7007  1.3859  1.2902
   51MOL    H72 6172   7.993   0.624   5.036 -0.4513  1.1624 -1.6993
   51MOL    H73 6173   7.932   0.336   4.917 -1.0544 -0.6355  0.7598
   51MOL    C74 6174   7.764   0.462   4.977 -0.2029 -0.1774  0.2294
   51MOL    C75 6175   7.669   0.347   5.006 -0.3425 -0.1487  0.1721
   51MOL    F76 6176   7.539   0.389   4.993  0.0182  0.4111 -0.2854
   51MOL    H77 6177   7.744   0.544   5.045  2.1631  0.8240 -0.2386
   51MOL    H78 6178   7.733   0.505   4.881 -1.4963 -2.4942 -0.4399
   51MOL    H79 6179   7.682   0.298   5.102 -1.6802 -1.7970 -0.4622
   51MOL    C80 6180   7.683   0.237   4.894 -0.1970 -0.9606 -0.0893
   51MOL    C81 6181   7.663   0.277   4.748 -0.0925 -0.1228 -0.1969
   51MOL    F82 6182   7.765   0.359   4.716  0.7731  0.2332  0.3270
   51MOL    H83 6183   7.767   0.172   4.921 -1.8905 -2.8897  0.7503
   51MOL    H84 6184   7.604   0.165   4.919 -1.6482  0.5747 -0.1555
   51MOL    H85 6185   7.580   0.348   4.740 -0.1570 -0.3633 -1.9316
   51MOL    C86 6186   7.652   0.161   4.646  0.2231 -0.0167  0.3504
   51MOL    C87 6187   7.604   0.205   4.506  0.1045 -0.1403  0.0294
   51MOL    F88 6188   7.707   0.238   4.430 -0.3791  0.5347  0.1437
   51MOL    H89 6189   7.752   0.119   4.644 -0.3453 -1.3995  0.2464
   51MOL    H90 6190   7.576   0.096   4.689  0.9010  0.0703  1.6856
   51MOL    H91 6191   7.538   0.291   4.515  1.0145  0.5064  0.5866
   51MOL    C92 6192   7.530   0.079   4.435  0.3101 -0.2479 -0.0617
   51MOL    C93 6193   7.439   0.120   4.318 -0.4140  0.4622 -0.1416
   51MOL    F94 6194   7.340   0.203   4.366 -0.2554  0.2588 -0.6398
   51MOL    H95 6195   7.591   0.001   4.390  1.5858  0.5513  0.2539
   51MOL    H96 6196   7.465   0.027   4.505 -0.6314 -0.2125 -0.8895
   51MOL    H97 6197   7.388   0.036   4.272 -2.4592  1.9745 -0.7087
   51MOL    C98 6198   7.497   0.213   4.206 -0.2110  0.0588 -0.1638
   51MOL    C99 6199   7.614   0.149   4.137  0.1994  0.5108  0.7944
   51MOL   F100 6200   7.569   0.038   4.076  0.2824  0.9019 -0.8446
   51MOL   H101 6201   7.420   0.234   4.132 -0.8197  0.7764  0.6667
   51MOL   H102 6202   7.527   0.309   4.247  0.4432  0.4858 -1.5877
   51MOL   H103 6203   7.685   0.106   4.208 -0.4983 -0.7559  0.7341
   51MOL   C104 6204   7.669   0.250   4.033 -0.6012 -0.0196 -0.2943
   51MOL   C105 6205   7.794   0.203   3.956 -0.2481 -0.1758  0.1729
   51MOL   F106 6206   7.887   0.174   4.054 -0.2739 -0.1034 -0.0096
   51MOL   H107 6207   7.586   0.272   3.966 -1.9430 -3.9408 -0.0363
   51MOL   H108 6208   7.695   0.342   4.085 -1.2484 -0.9155  1.6493
   51MOL   H109 6209   7.831   0.283   3.891  1.8232  1.1699  2.9595
   51MOL   C110 6210   7.773   0.084   3.852  0.1717  0.7049 -0.1670
   51MOL   C111 6211   7.699   0.119   3.721  0.4611  0.2544 -1.3344
   51MOL   F112 6212   7.774   0.197   3.641  0.4226  0.0448  0.6828
   51MOL   H113 6213   7.871   0.048   3.822  1.2235  2.1170  1.4750
   51MOL   H114 6214   7.723   0.002   3.903 -1.8263  0.6315 -2.1363
   51MOL   H115 6215   7.613   0.179   3.749 -0.2199 -1.9026  1.4322
   51MOL   C116 6216   7.661   7.998   3.632  0.0298 -0.3467 -0.9648
   51MOL   C117 6217   7.599   0.043   3.503 -0.0218 -0.4471 -0.2831
   51MOL   F118 6218   7.562   7.939   3.430 -0.0968  0.1060  0.1747
   51MOL   H119 6219   7.748   7.940   3.602 -0.9917 -1.4164 -1.9148
   51MOL   H120 6220   7.591   7.937   3.690 -0.3527  0.9909  0.0202
   51MOL   H121 6221   7.666   0.103   3.442 -2.0530  0.1937 -1.9356
   51MOL   H122 6222   7.510   0.106   3.506  0.1637 -0.1193 -1.4112
   52MOL     C1 6223   4.420   7.536   3.408 -0.1277 -0.2360 -0.8248
   52MOL     C2 6224   4.430   7.686   3.443  0.2615  0.0378  0.6267
   52MOL     F3 6225   4.386   7.718   3.568  0.1438  0.0410 -0.5981
   52MOL     H4 6226   4.509   7.481   3.439  0.0808 -0.5124 -1.8908
   52MOL     H5 6227   4.411   7.505   3.304  0.9234 -0.1009 -0.9594
   52MOL     H6 6228   4.364   7.737   3.374  1.7487 -1.5600 -2.0684
   52MOL     H7 6229   4.337   7.484   3.455  0.6848 -2.0744 -1.3771
   52MOL     C8 6230   4.575   7.744   3.429 -0.2423 -0.2229 -0.4718
   52MOL     C9 6231   4.582   7.906   3.432 -0.0519  0.5891 -0.8901
   52MOL    F10 6232   4.470   7.956   3.371  0.0611 -0.2355  0.2816
   52MOL    H11 6233   4.637   7.700   3.508 -1.0763 -0.4289  0.0702
   52MOL    H12 6234   4.601   7.715   3.327  3.0780  1.8383 -0.2948
   52MOL    H13 6235   4.674   7.936   3.381  1.1313  0.3077  1.0347
   52MOL    C14 6236   4.598   7.969   3.565  0.3719 -0.6435 -0.3012
   52MOL    C15 6237   4.727   7.945   3.639  0.0664  0.5787 -0.4106
   52MOL    F16 6238   4.828   7.981   3.562 -0.5011  0.1109  0.0446
   52MOL    H17 6239   4.575   0.072   3.555  0.7045 -0.6438 -1.0439
   52MOL    H18 6240   4.509   7.932   3.617 -0.6533  0.2998 -1.3624
   52MOL    H19 6241   4.736   7.838   3.654 -0.2391  0.4808 -0.9273
   52MOL    C20 6242   4.735   0.010   3.779  0.2413  0.3282  0.9121
   52MOL    C21 6243   4.624   7.978   3.882  0.6288 -0.1687 -0.5126
   52MOL    F22 6244   4.593   7.846   3.886  0.3643  0.2142  0.2316
   52MOL    H23 6245   4.834   7.983   3.815  0.6077 -0.5594 -0.7553
   52MOL    H24 6246   4.739   0.118   3.768 -1.1216  0.3335  0.4486
   52MOL    H25 6247   4.536   0.012   3.830 -1.5051 -2.3509  1.3991
   52MOL    C26 6248   4.633   0.038   4.023  0.4273  0.5273  0.0653
   52MOL    C27 6249   4.507   0.018   4.100  0.1925  0.4359 -0.1073
   52MOL    F28 6250   4.521   0.060   4.223 -0.3575  0.3236 -0.0474
   52MOL    H29 6251   4.711   7.998   4.086  0.2180  0.3135  0.1767
   52MOL    H30 6252   4.649   0.146   4.025 -0.0312  0.5673  1.5915
   52MOL    H31 6253   4.498   7.913   4.102  0.1200  0.4661  1.5011
   52MOL    C32 6254   4.378   0.081   4.042 -0.5772 -0.1186  0.3889
   52MOL    C33 6255   4.376   0.236   4.052 -0.7243  0.4135 -0.3927
   52MOL    F34 6256   4.451   0.296   3.962  0.3995 -0.0796 -0.1919
   52MOL    H35 6257   4.358   0.045   3.942  1.2949  0.9966 -0.4192
   52MOL    H36 6258   4.298   0.031   4.098  0.5579 -0.9594  1.2916
   52MOL    H37 6259   4.427   0.277   4.140 -0.4842  2.5346 -1.5008
   52MOL    C38 6260   4.240   0.300   4.028 -0.1530 -0.2483 -0.1346
   52MOL    C39 6261   4.125   0.258   4.119  0.5158 -0.3109  0.5990
   52MOL    F40 6262   4.164   0.279   4.247  0.0265 -0.4996  0.0893
   52MOL    H41 6263   4.256   0.407   4.032 -2.6559  0.3035 -3.3080
   52MOL    H42 6264   4.208   0.285   3.925  0.7941  1.6490 -0.7186
   52MOL    H43 6265   4.106   0.151   4.113  2.5560 -0.8513  2.8636
   52MOL    C44 6266   3.990   0.343   4.094 -1.3757  0.6062  1.0751
   52MOL    C45 6267   3.867   0.311   4.178 -0.1476  0.2298  0.4664
   52MOL    F46 6268   3.787   0.417   4.166  0.0453 -0.0717  0.0951
   52MOL    H47 6269   4.010   0.450   4.094 -0.4944  0.4432  0.2664
   52MOL    H48 6270   3.974   0.320   3.989  3.9772 -1.1974  0.5003
   52MOL    H49 6271   3.894   0.324   4.283  0.1996  1.0487  0.2763
   52MOL    C50 6272   3.801   0.170   4.168  0.1917 -0.1512  0.0315
   52MOL    C51 6273   3.677   0.140   4.255 -0.4616  0.5255  0.0278
   52MOL    F52 6274   3.651   0.008   4.259  0.0529 -0.1260 -0.0210
   52MOL    H53 6275   3.765   0.144   4.068 -0.1582  1.0345 -0.1563
   52MOL    H54 6276   3.871   0.088   4.185 -1.2500 -1.1548  1.2523
   52MOL    H55 6277   3.591   0.189   4.211 -0.5333  0.8365  0.5057
   52MOL    C56 6278   3.686   0.190   4.403 -0.1265 -0.2192  0.5601
   52MOL    C57 6279   3.567   0.160   4.494 -0.0421  0.0848 -0.1009
   52MOL    F58 6280   3.554   0.027   4.505 -0.2089  0.1149 -0.1476
   52MOL    H59 6281   3.775   0.143   4.445  0.7679 -0.1563 -1.2147
   52MOL    H60 6282   3.711   0.296   4.408  0.9370 -0.4298 -0.2405
   52MOL    H61 6283   3.479   0.202   4.446 -1.5906  0.5985  3.0423
   52MOL    C62 6284   3.577   0.234   4.632 -0.1450  0.2957 -0.2305
   52MOL    C63 6285   3.433   0.245   4.693 -0.9082  0.3795 -0.0480
   52MOL    F64 6286   3.373   0.130   4.724  0.1443  0.4240 -0.0065
   52MOL    H65 6287   3.642   0.177   4.698  1.7598  0.3487 -1.9935
   52MOL    H66 6288   3.619   0.335   4.626  1.7385 -0.3474  1.3947
   52MOL    H67 6289   3.361   0.289   4.624  0.5028 -0.0808 -1.8399
   52MOL    C68 6290   3.446   0.316   4.824  0.1843  0.2930 -0.3075
   52MOL    C69 6291   3.320   0.351   4.891  0.8582  0.0298 -0.3475
   52MOL    F70 6292   3.246   0.430   4.811 -0.2486 -0.1357  0.0490
   52MOL    H71 6293   3.514   0.264   4.892  0.3806  0.0495 -0.6883
   52MOL    H72 6294   3.496   0.411   4.806 -3.5595  1.9291 -2.7408
   52MOL    H73 6295   3.334   0.417   4.977  5.3277 -2.4830  0.9960
   52MOL    C74 6296   3.219   0.243   4.931  0.3891  0.2696 -0.4657
   52MOL    C75 6297   3.283   0.147   5.036  0.2143  0.0039  0.4516
   52MOL    F76 6298   3.305   0.224   5.139 -1.0940  0.0704 -0.3863
   52MOL    H77 6299   3.131   0.285   4.979  0.9468  2.6070 -1.4377
   52MOL    H78 6300   3.180   0.191   4.844 -1.7051 -2.2257  1.8873
   52MOL    H79 6301   3.381   0.124   4.995 -0.4309 -1.9374 -0.0216
   52MOL    C80 6302   3.205   0.024   5.073  0.4101  0.2325 -0.2499
   52MOL    C81 6303   3.254   7.930   5.180 -0.1430  0.9173 -0.5214
   52MOL    F82 6304   3.239   8.003   5.290 -0.2572 -0.0301  0.0070
   52MOL    H83 6305   3.103   0.057   5.091 -0.2349 -1.4256 -0.7530
   52MOL    H84 6306   3.198   7.962   4.986  0.6993 -0.0761 -0.0492
   52MOL    H85 6307   3.362   7.921   5.186 -0.4437 -3.2744  0.0627
   52MOL    C86 6308   3.195   7.787   5.198 -0.6606 -0.4223  0.6305
   52MOL    C87 6309   3.261   7.709   5.317  0.5743 -0.1319  0.2689
   52MOL    F88 6310   3.181   7.603   5.347  0.4419 -0.7238  0.5199
   52MOL    H89 6311   3.087   7.803   5.208 -0.8050  0.1147 -1.5663
   52MOL    H90 6312   3.223   7.731   5.109  2.4966  0.3700  1.0926
   52MOL    H91 6313   3.256   7.770   5.407  1.1927  2.3470 -1.3195
   52MOL    C92 6314   3.399   7.657   5.294  0.0652  0.9887 -0.0934
   52MOL    C93 6315   3.471   7.609   5.431  0.0966 -0.3783  0.7928
   52MOL    F94 6316   3.584   7.557   5.394 -0.3932 -0.0918 -0.3250
   52MOL    H95 6317   3.400   7.579   5.218 -3.5740  2.9711 -2.2741
   52MOL    H96 6318   3.470   7.738   5.275  0.3798  0.8068  0.2793
   52MOL    H97 6319   3.410   7.529   5.470  1.5505 -0.0575  3.8542
   52MOL    C98 6320   3.479   7.702   5.553  0.2547 -0.4078 -0.8283
   52MOL    C99 6321   3.544   7.849   5.539  0.6868  1.1543 -0.4151
   52MOL   F100 6322   3.526   7.930   5.642  0.3195  0.6186 -0.4034
   52MOL   H101 6323   3.378   7.718   5.593  0.9888 -0.4050  1.0654
   52MOL   H102 6324   3.525   7.649   5.636  2.5798 -0.3585 -2.0575
   52MOL   H103 6325   3.477   7.885   5.460  0.9733  1.8876 -0.3247
   52MOL   C104 6326   3.696   7.849   5.503  0.5031 -0.8239 -0.5294
   52MOL   C105 6327   3.755   7.990   5.486  0.2342  0.7899  0.3088
   52MOL   F106 6328   3.881   7.998   5.530  0.4144  0.1830 -0.4699
   52MOL   H107 6329   3.747   7.798   5.585  0.1788 -1.9428 -1.0137
   52MOL   H108 6330   3.715   7.781   5.420 -0.2199 -0.5821 -0.8963
   52MOL   H109 6331   3.698   0.062   5.542 -1.3483 -0.1203 -0.0306
   52MOL   C110 6332   3.779   0.041   5.341 -0.1153  0.0040  0.0903
   52MOL   C111 6333   3.653   0.020   5.255 -0.5921 -0.0056 -0.3583
   52MOL   F112 6334   3.550   0.083   5.310 -0.0349  0.3024 -0.0277
   52MOL   H113 6335   3.803   0.147   5.350 -2.6225  0.4506  2.2664
   52MOL   H114 6336   3.859   7.991   5.289 -2.3382 -0.9017 -2.5120
   52MOL   H115 6337   3.620   7.919   5.245 -1.4998  0.0671  1.5429
   52MOL   C116 6338   3.663   0.078   5.114  0.3560  0.1644 -0.5049
   52MOL   C117 6339   3.775   0.020   5.030 -0.3247  0.4094  0.1737
   52MOL   F118 6340   3.788   7.892   5.053  0.3535  0.2028  0.2878
   52MOL   H119 6341   3.567   0.053   5.069 -0.3224 -2.2026  2.1340
   52MOL   H120 6342   3.667   0.187   5.119  0.1304  0.1075  1.3954
   52MOL   H121 6343   3.873   0.065   5.046 -0.4512  1.2265 -1.2444
   52MOL   H122 6344   3.761   0.028   4.923 -0.6851 -0.5029  0.1436
   53MOL     C1 6345   0.309   5.169   4.394  0.6594  0.4638 -0.0683
   53MOL     C2 6346   0.265   5.106   4.518 -0.1909  0.8803 -0.3331
   53MOL     F3 6347   0.144   5.154   4.542  0.1165 -0.0762 -0.3298
   53MOL     H4 6348   0.330   5.274   4.413 -0.4256  0.7224 -0.2765
   53MOL     H5 6349   0.232   5.153   4.319  0.2189  1.0184  0.2606
   53MOL     H6 6350   0.334   5.143   4.594  1.0737  1.3608 -1.7097
   53MOL     H7 6351   0.403   5.122   4.363  0.4032  0.0938 -0.2957
   53MOL     C8 6352   0.270   4.957   4.509  0.1521 -0.5653  0.1076
   53MOL     C9 6353   0.258   4.890   4.640 -1.0549  0.2047  0.4311
   53MOL    F10 6354   0.233   4.761   4.628  0.1507 -0.2081 -0.0099
   53MOL    H11 6355   0.191   4.932   4.438 -0.0824 -0.0746  0.1957
   53MOL    H12 6356   0.360   4.921   4.460 -0.6703 -0.3554 -1.6167
   53MOL    H13 6357   0.166   4.933   4.680 -0.5627 -0.0441  1.8648
   53MOL    C14 6358   0.379   4.907   4.737 -0.4033  0.1091  0.1918
   53MOL    C15 6359   0.507   4.840   4.691 -0.8864 -0.3813 -0.1633
   53MOL    F16 6360   0.553   4.896   4.585  0.2604 -0.5664 -0.2379
   53MOL    H17 6361   0.397   5.005   4.780  0.8144  0.2120 -0.5255
   53MOL    H18 6362   0.368   4.839   4.822  1.0976 -1.2602 -0.6701
   53MOL    H19 6363   0.493   4.739   4.653  0.4556 -0.9089  0.6929
   53MOL    C20 6364   0.618   4.845   4.798  0.5120 -0.8320  0.1967
   53MOL    C21 6365   0.605   4.729   4.893 -0.6780 -0.1174  0.7461
   53MOL    F22 6366   0.637   4.613   4.823 -0.1354  0.1576  0.0245
   53MOL    H23 6367   0.712   4.832   4.745  0.0185  2.0191 -1.4730
   53MOL    H24 6368   0.623   4.938   4.855  1.9571  0.4710 -2.0055
   53MOL    H25 6369   0.498   4.721   4.909 -1.5798 -0.4024 -4.5167
   53MOL    C26 6370   0.685   4.739   5.026  0.8595  0.6847  0.8209
   53MOL    C27 6371   0.644   4.845   5.125 -0.3016  0.2921  0.1578
   53MOL    F28 6372   0.686   4.962   5.075 -0.2632  0.1834  0.3597
   53MOL    H29 6373   0.680   4.641   5.073 -0.6656 -0.7731 -2.1871
   53MOL    H30 6374   0.789   4.750   4.994  0.6212  0.6418  0.0196
   53MOL    H31 6375   0.707   4.828   5.212 -0.5416  1.6636  0.6228
   53MOL    C32 6376   0.496   4.861   5.157  0.6620  0.3653 -0.1081
   53MOL    C33 6377   0.459   4.947   5.279  1.0401  0.1514 -0.1140
   53MOL    F34 6378   0.531   5.060   5.272 -0.1762  0.3086  0.0213
   53MOL    H35 6379   0.450   4.908   5.070 -0.0268  0.8513  0.5131
   53MOL    H36 6380   0.444   4.765   5.161  1.3574  0.0569  1.7725
   53MOL    H37 6381   0.490   4.885   5.364 -0.1926 -1.1513 -0.5938
   53MOL    C38 6382   0.311   4.983   5.307 -0.8284 -0.5274  0.2349
   53MOL    C39 6383   0.245   4.895   5.419  0.1050  0.8214 -0.6728
   53MOL    F40 6384   0.310   4.925   5.534 -0.1559 -0.5570 -0.4826
   53MOL    H41 6385   0.314   5.089   5.332  2.5158 -0.1569 -1.4772
   53MOL    H42 6386   0.249   4.968   5.219  0.7726 -2.8721 -0.5469
   53MOL    H43 6387   0.260   4.788   5.409  0.0937  0.8279 -0.7631
   53MOL    C44 6388   0.102   4.941   5.450  0.2802 -0.5511 -0.1246
   53MOL    C45 6389   0.033   4.834   5.540 -0.8650 -0.8774  0.5143
   53MOL    F46 6390   0.095   4.817   5.656 -0.2163 -0.1068 -0.2507
   53MOL    H47 6391   0.102   5.045   5.484 -4.1066 -0.9441  1.4144
   53MOL    H48 6392   0.052   4.939   5.354  1.2707 -1.5009 -0.6352
   53MOL    H49 6393   0.038   4.744   5.480 -0.3870 -2.1078  2.3732
   53MOL    C50 6394   7.895   4.869   5.587 -0.5161 -0.1902  0.4600
   53MOL    C51 6395   7.803   4.900   5.466 -0.2289 -0.1862  0.4291
   53MOL    F52 6396   7.845   4.830   5.366  0.0485  0.3225 -0.3822
   53MOL    H53 6397   7.866   4.781   5.644 -0.0621 -0.9284 -0.4364
   53MOL    H54 6398   7.907   4.956   5.651  1.3585 -2.1136  2.8287
   53MOL    H55 6399   7.810   5.007   5.448  1.0976 -0.3450 -0.0494
   53MOL    C56 6400   7.663   4.862   5.517  0.2282 -0.6647  0.8012
   53MOL    C57 6401   7.560   4.904   5.412  0.0145 -0.1475 -0.1654
   53MOL    F58 6402   7.582   4.829   5.306  0.2421  0.5805  0.2961
   53MOL    H59 6403   7.640   4.757   5.536 -1.1333 -0.6584 -0.7073
   53MOL    H60 6404   7.638   4.907   5.612 -1.1561  0.0107  0.1201
   53MOL    H61 6405   7.583   5.004   5.375 -1.3484  0.3777  0.3755
   53MOL    C62 6406   7.411   4.888   5.445  0.3572 -0.8311 -0.0521
   53MOL    C63 6407   7.356   4.991   5.548 -0.2528  0.0797  0.1759
   53MOL    F64 6408   7.321   5.109   5.483  0.1291  0.2369 -0.3227
   53MOL    H65 6409   7.349   4.906   5.358 -1.3912  0.9184  1.5217
   53MOL    H66 6410   7.395   4.783   5.471 -0.3603 -0.6088  0.4087
   53MOL    H67 6411   7.445   5.024   5.602 -0.9069 -0.7394  1.7856
   53MOL    C68 6412   7.245   4.935   5.641 -0.7040  0.2085 -0.0823
   53MOL    C69 6413   7.307   4.877   5.771  0.1126  0.3846  0.0287
   53MOL    F70 6414   7.395   4.789   5.743 -0.0738  0.0173  0.2833
   53MOL    H71 6415   7.170   5.011   5.660 -0.4143  1.5939 -3.9959
   53MOL    H72 6416   7.207   4.844   5.595 -0.3352 -0.1188  0.2603
   53MOL    H73 6417   7.223   4.825   5.817 -2.0654  0.2751 -3.8812
   53MOL    C74 6418   7.367   4.978   5.872 -0.4233 -0.3252  0.5923
   53MOL    C75 6419   7.395   4.921   6.009 -0.0731  0.0540  0.0021
   53MOL    F76 6420   7.279   4.881   6.058  0.3116 -0.2083  0.0979
   53MOL    H77 6421   7.455   5.027   5.831  0.0568 -0.6057  1.2936
   53MOL    H78 6422   7.294   5.057   5.889 -0.4357 -0.7762  2.7434
   53MOL    H79 6423   7.428   4.992   6.084 -2.1765  1.6571 -0.5280
   53MOL    C80 6424   7.498   4.806   6.025  0.0471  0.2304 -0.0933
   53MOL    C81 6425   7.635   4.822   5.971 -0.0029 -0.4619  0.0883
   53MOL    F82 6426   7.685   4.939   6.006  0.2935 -0.3007  0.3366
   53MOL    H83 6427   7.503   4.778   6.131 -1.9594  1.8501  0.4686
   53MOL    H84 6428   7.450   4.714   5.991 -1.2393  1.1220 -0.7087
   53MOL    H85 6429   7.630   4.831   5.863  1.0931  2.3007  0.2329
   53MOL    C86 6430   7.728   4.708   6.011  0.0556  0.2809  0.1766
   53MOL    C87 6431   7.706   4.575   5.922  1.1333 -0.0563  0.9275
   53MOL    F88 6432   7.732   4.603   5.792 -0.2706  0.3804  0.0956
   53MOL    H89 6433   7.830   4.738   5.988 -0.0494 -1.0540 -2.1163
   53MOL    H90 6434   7.718   4.699   6.119  1.1057  1.9990  0.4359
   53MOL    H91 6435   7.599   4.554   5.925  0.4666  3.1923  2.2565
   53MOL    C92 6436   7.787   4.455   5.966 -0.1895  0.2388 -0.7343
   53MOL    C93 6437   7.766   4.385   6.100  0.3518  0.8106 -0.0081
   53MOL    F94 6438   7.633   4.361   6.122 -0.0263 -0.6074 -0.2252
   53MOL    H95 6439   7.779   4.377   5.890  2.3904 -2.0517  1.2314
   53MOL    H96 6440   7.892   4.485   5.962 -0.0372 -0.3219 -1.0931
   53MOL    H97 6441   7.795   4.458   6.175  0.0209 -0.9502  1.8794
   53MOL    C98 6442   7.850   4.260   6.123  0.1296 -0.0156  0.1623
   53MOL    C99 6443   7.816   4.175   6.243 -0.4161  0.0795  1.1500
   53MOL   F100 6444   7.896   4.075   6.254  0.0968  0.0952 -0.2481
   53MOL   H101 6445   7.829   4.188   6.043  2.0484 -1.6912  1.1198
   53MOL   H102 6446   7.954   4.284   6.104 -0.1479  0.5380 -0.7026
   53MOL   H103 6447   7.712   4.141   6.243 -0.8987  1.4524 -1.0983
   53MOL   C104 6448   7.830   4.265   6.374  0.4316  0.6139  0.2153
   53MOL   C105 6449   7.815   4.183   6.513  0.3157  0.2791 -0.5321
   53MOL   F106 6450   7.817   4.283   6.607 -0.0267 -0.3489  0.0090
   53MOL   H107 6451   7.919   4.327   6.362  2.3752 -2.3408 -1.0855
   53MOL   H108 6452   7.752   4.342   6.372  0.1675  0.3326 -0.9431
   53MOL   H109 6453   7.904   4.122   6.531  1.2907  1.8834  0.1480
   53MOL   C110 6454   7.689   4.103   6.539  0.5256 -0.1733 -0.4035
   53MOL   C111 6455   7.691   4.035   6.676  0.7177  0.3778 -0.3474
   53MOL   F112 6456   7.567   3.982   6.699 -0.0460 -0.1086 -0.4238
   53MOL   H113 6457   7.616   4.182   6.523  0.5782 -0.1866 -0.7210
   53MOL   H114 6458   7.656   4.025   6.471  0.3320  0.4198 -0.9923
   53MOL   H115 6459   7.715   4.096   6.763  0.8737  2.1719 -1.6172
   53MOL   C116 6460   7.780   3.904   6.683 -0.0225 -0.3923  0.1314
   53MOL   C117 6461   7.809   3.859   6.827  0.9461 -0.4127 -0.0138
   53MOL   F118 6462   7.868   3.956   6.900  0.0963  0.0679 -0.1036
   53MOL   H119 6463   7.747   3.824   6.617 -0.7834 -0.0888  0.1428
   53MOL   H120 6464   7.879   3.923   6.642 -0.2932 -1.2415 -0.9372
   53MOL   H121 6465   7.888   3.786   6.843  0.7871 -0.9513 -1.5917
   53MOL   H122 6466   7.721   3.831   6.886  0.1635  1.6101 -0.2021
   54MOL     C1 6467   7.857   4.821   4.549  0.2676  0.1693 -0.0240
   54MOL     C2 6468   7.929   4.739   4.443  0.1498 -0.1657 -1.0911
   54MOL     F3 6469   7.996   4.642   4.514  0.0612 -0.0997  0.5453
   54MOL     H4 6470   7.838   4.918   4.502  1.9332  0.7891  0.5451
   54MOL     H5 6471   7.913   4.835   4.641 -0.0425  2.0283 -0.0987
   54MOL     H6 6472   0.001   4.812   4.410  0.8346 -0.0912  0.5879
   54MOL     H7 6473   7.757   4.783   4.568  0.1115  0.1275 -0.9024
   54MOL     C8 6474   7.841   4.682   4.329  0.6263  0.0693 -0.4897
   54MOL     C9 6475   7.915   4.582   4.241 -0.0475  0.4164 -0.9906
   54MOL    F10 6476   7.825   4.540   4.147 -0.1643 -0.1311  0.2118
   54MOL    H11 6477   7.753   4.643   4.381  0.1878  2.2646  0.4818
   54MOL    H12 6478   7.803   4.758   4.260 -0.2482 -2.5058 -2.9206
   54MOL    H13 6479   7.944   4.497   4.301 -0.0828 -0.2662 -1.9309
   54MOL    C14 6480   0.033   4.637   4.166  0.3580  0.4902 -0.7949
   54MOL    C15 6481   7.993   4.750   4.067  0.1173 -0.1605  0.3424
   54MOL    F16 6482   7.983   4.863   4.137 -0.0045  0.2064 -0.4533
   54MOL    H17 6483   0.111   4.679   4.230  0.4920 -0.7312 -0.1532
   54MOL    H18 6484   0.075   4.554   4.111 -1.2185  0.1164 -1.4711
   54MOL    H19 6485   7.898   4.730   4.017  0.7267 -3.1122  0.3069
   54MOL    C20 6486   0.107   4.772   3.969  0.1691  0.0751  0.0860
   54MOL    C21 6487   0.113   4.679   3.840  0.0354 -0.0766 -0.0627
   54MOL    F22 6488   8.000   4.690   3.765  0.2349  0.3064  0.7407
   54MOL    H23 6489   0.095   4.875   3.936 -0.5130 -0.0783 -0.1623
   54MOL    H24 6490   0.200   4.764   4.024  0.0728 -0.0269  0.2364
   54MOL    H25 6491   0.122   4.575   3.871  0.0332  0.0789  0.4725
   54MOL    C26 6492   0.235   4.721   3.768 -0.3509 -0.1504  0.3699
   54MOL    C27 6493   0.245   4.858   3.701  0.5629 -0.1919 -0.0966
   54MOL    F28 6494   0.370   4.901   3.699 -0.6386  0.2250  0.0191
   54MOL    H29 6495   0.315   4.724   3.842  2.5396  1.6486 -2.7331
   54MOL    H30 6496   0.261   4.641   3.700 -2.3382 -0.2812 -0.2780
   54MOL    H31 6497   0.184   4.925   3.762 -1.0253 -0.5780 -1.2409
   54MOL    C32 6498   0.190   4.863   3.556 -0.0549 -0.0439  0.2458
   54MOL    C33 6499   0.201   4.995   3.486  0.4626 -1.3360 -0.6700
   54MOL    F34 6500   0.160   4.980   3.362 -0.0574  0.5174  0.0272
   54MOL    H35 6501   0.244   4.787   3.499  0.6701  0.1497  0.6653
   54MOL    H36 6502   0.085   4.834   3.560 -0.4505  1.5280  1.9353
   54MOL    H37 6503   0.302   5.036   3.479  0.4620 -1.4241 -1.2256
   54MOL    C38 6504   0.122   5.117   3.542  0.2050 -0.2291 -0.0436
   54MOL    C39 6505   7.984   5.090   3.583  0.7542 -0.4131  0.8203
   54MOL    F40 6506   7.947   5.192   3.659 -0.1126 -0.5475  0.0965
   54MOL    H41 6507   0.178   5.145   3.631 -0.6529  0.5029  0.2760
   54MOL    H42 6508   0.127   5.206   3.478  0.2055 -0.6871 -0.6851
   54MOL    H43 6509   7.970   5.005   3.649 -0.0162 -1.3356 -0.5113
   54MOL    C44 6510   7.892   5.089   3.460 -0.2074  0.2778 -0.1667
   54MOL    C45 6511   7.748   5.056   3.492 -0.4226 -0.7347  0.1288
   54MOL    F46 6512   7.698   5.058   3.365  0.2646 -0.2347 -0.3226
   54MOL    H47 6513   7.897   5.183   3.404  0.7464  0.0073 -0.5289
   54MOL    H48 6514   7.922   5.010   3.392 -0.0515 -1.0575  1.4303
   54MOL    H49 6515   7.700   5.134   3.550  2.7264  1.6823 -0.3277
   54MOL    C50 6516   7.725   4.915   3.546 -1.1691 -0.1031 -0.0633
   54MOL    C51 6517   7.578   4.865   3.539 -0.1638 -0.1239  0.7664
   54MOL    F52 6518   7.581   4.735   3.554 -0.3570 -0.0766 -0.3318
   54MOL    H53 6519   7.789   4.850   3.486 -0.5766  1.0572 -0.7128
   54MOL    H54 6520   7.763   4.908   3.649  0.3663 -4.4762 -0.8323
   54MOL    H55 6521   7.528   4.879   3.442 -0.9953  2.8963  1.5980
   54MOL    C56 6522   7.483   4.911   3.648  0.0268 -0.2155  0.2254
   54MOL    C57 6523   7.331   4.902   3.616  0.7596  0.0011 -0.4445
   54MOL    F58 6524   7.312   4.963   3.494  0.1896  0.5807 -0.1813
   54MOL    H59 6525   7.510   4.847   3.733  0.3777  0.7269  0.8284
   54MOL    H60 6526   7.505   5.016   3.665 -0.0155 -0.3011  0.8340
   54MOL    H61 6527   7.274   4.957   3.691 -0.0239  0.1123 -1.1182
   54MOL    C62 6528   7.261   4.771   3.602  0.3203  0.2933 -0.1387
   54MOL    C63 6529   7.241   4.690   3.728 -0.3209  0.6255  0.8050
   54MOL    F64 6530   7.148   4.761   3.795 -0.0614  0.6324 -0.0721
   54MOL    H65 6531   7.165   4.800   3.558 -0.8323 -0.6519  1.6786
   54MOL    H66 6532   7.298   4.710   3.520 -1.6137  2.5633 -2.7628
   54MOL    H67 6533   7.332   4.684   3.787  0.2041  1.4239  0.0819
   54MOL    C68 6534   7.162   4.558   3.691  0.3782 -0.0518 -0.2885
   54MOL    C69 6535   7.242   4.427   3.678 -0.0363 -0.3881 -0.0510
   54MOL    F70 6536   7.319   4.413   3.785  0.0085 -0.4438 -0.3816
   54MOL    H71 6537   7.095   4.541   3.775  1.0176  1.6118  0.5800
   54MOL    H72 6538   7.083   4.565   3.617  0.7121 -1.1596 -0.7499
   54MOL    H73 6539   7.311   4.429   3.595  0.1430  1.7901  0.1221
   54MOL    C74 6540   7.155   4.295   3.660  1.0872  0.0110  0.0163
   54MOL    C75 6541   7.248   4.171   3.687 -0.3491 -0.1371 -0.2284
   54MOL    F76 6542   7.174   4.061   3.685  0.8109 -0.1698 -0.2362
   54MOL    H77 6543   7.075   4.293   3.734  0.3453  0.6851 -0.7505
   54MOL    H78 6544   7.117   4.275   3.559  0.7814  0.8118 -0.0269
   54MOL    H79 6545   7.280   4.175   3.791 -0.6103  1.4576 -0.2021
   54MOL    C80 6546   7.369   4.152   3.589 -0.1848 -0.1288 -0.7101
   54MOL    C81 6547   7.450   4.033   3.606 -0.4100 -0.2957 -0.5435
   54MOL    F82 6548   7.549   4.046   3.517  0.3265  0.4030  0.1206
   54MOL    H83 6549   7.345   4.168   3.484 -0.0007  0.0637 -0.7229
   54MOL    H84 6550   7.437   4.233   3.614  1.3352 -1.9380  1.2459
   54MOL    H85 6551   7.390   3.947   3.576 -1.3894  0.2715 -0.2532
   54MOL    C86 6552   7.520   4.016   3.742  0.5526  0.4936 -0.0936
   54MOL    C87 6553   7.629   3.908   3.740  0.8065  0.6556  0.4795
   54MOL    F88 6554   7.749   3.941   3.698 -0.1629  0.6479  0.2827
   54MOL    H89 6555   7.552   4.112   3.784 -0.5236  2.8095 -4.2585
   54MOL    H90 6556   7.441   3.971   3.801  1.5048 -1.1191 -0.0182
   54MOL    H91 6557   7.610   3.832   3.664  0.9895  2.4609 -1.4233
   54MOL    C92 6558   7.644   3.838   3.876 -1.1714 -0.6385  0.2199
   54MOL    C93 6559   7.647   3.926   4.003  0.0529  0.1038 -0.2324
   54MOL    F94 6560   7.527   3.978   4.044 -0.3237  0.4495  0.1676
   54MOL    H95 6561   7.579   3.752   3.888 -2.8130  0.6296  0.6589
   54MOL    H96 6562   7.741   3.790   3.869 -1.0342 -0.4899  1.0041
   54MOL    H97 6563   7.701   4.017   3.973  1.6704 -0.5049  0.7252
   54MOL    C98 6564   7.705   3.850   4.128 -0.3103 -0.3430 -0.0747
   54MOL    C99 6565   7.848   3.873   4.160 -0.4675  0.3653  0.8457
   54MOL   F100 6566   7.870   4.006   4.155  0.6975 -0.1509  0.3332
   54MOL   H101 6567   7.657   3.882   4.221  1.7958  2.5966  0.0460
   54MOL   H102 6568   7.682   3.743   4.123  0.8658 -0.5586 -0.9834
   54MOL   H103 6569   7.904   3.843   4.072 -1.6823 -0.6692  0.4030
   54MOL   C104 6570   7.910   3.828   4.295 -0.3524 -0.3730  0.3091
   54MOL   C105 6571   7.888   3.676   4.330 -0.5553  0.2289 -0.8459
   54MOL   F106 6572   7.973   3.607   4.257  0.0765 -0.3612 -0.0008
   54MOL   H107 6573   0.013   3.852   4.308  0.6600 -4.0348 -0.4224
   54MOL   H108 6574   7.861   3.895   4.365 -0.8134 -0.0116 -0.3527
   54MOL   H109 6575   7.787   3.648   4.301 -0.3602 -2.3052  0.7228
   54MOL   C110 6576   7.911   3.643   4.483 -0.0774 -0.1086 -0.1200
   54MOL   C111 6577   7.889   3.498   4.523  0.1296 -0.0410 -0.1594
   54MOL   F112 6578   7.911   3.476   4.656 -0.3843 -0.1282 -0.7579
   54MOL   H113 6579   0.006   3.684   4.510 -0.2443  0.0571  0.2389
   54MOL   H114 6580   7.845   3.706   4.543 -0.4417  0.2112 -0.8645
   54MOL   H115 6581   7.964   3.437   4.472 -0.2390  1.3292 -2.4187
   54MOL   C116 6582   7.751   3.440   4.483  0.1450 -0.1751 -0.2291
   54MOL   C117 6583   7.623   3.505   4.537 -0.2363  0.0068  0.2312
   54MOL   F118 6584   7.634   3.531   4.665 -0.0968 -0.3978 -0.7014
   54MOL   H119 6585   7.741   3.420   4.377  2.0018 -0.3704 -0.3881
   54MOL   H120 6586   7.748   3.339   4.524  2.2340 -0.2859 -0.2814
   54MOL   H121 6587   7.537   3.438   4.532  0.3530 -0.9085  1.8363
   54MOL   H122 6588   7.599   3.596   4.482 -0.5732 -0.4680 -0.4217
   55MOL     C1 6589   4.830   2.674   4.837  0.3669  0.3002  0.2517
   55MOL     C2 6590   4.809   2.534   4.904  0.4133 -0.5785 -0.3941
   55MOL     F3 6591   4.770   2.558   5.030 -0.2294  0.3704  0.2176
   55MOL     H4 6592   4.739   2.733   4.850  0.3809  0.6475 -1.2373
   55MOL     H5 6593   4.847   2.651   4.732 -2.8096 -2.0545  0.1842
   55MOL     H6 6594   4.903   2.479   4.906  0.8446  0.1991  1.3885
   55MOL     H7 6595   4.916   2.730   4.875  1.2192 -1.1598  0.5091
   55MOL     C8 6596   4.701   2.450   4.826  0.2205 -0.4731  0.2989
   55MOL     C9 6597   4.668   2.303   4.873 -0.6069 -0.8176  0.3866
   55MOL    F10 6598   4.781   2.240   4.903  0.1875  0.0719  0.2873
   55MOL    H11 6599   4.608   2.504   4.839 -0.7723 -2.0202 -0.1416
   55MOL    H12 6600   4.724   2.449   4.719 -1.5305  0.2156 -0.1064
   55MOL    H13 6601   4.639   2.241   4.788  2.1599 -2.9124  0.8917
   55MOL    C14 6602   4.560   2.311   4.986 -0.4394  0.2197  0.2726
   55MOL    C15 6603   4.520   2.176   5.043  0.0708  0.0113  0.0911
   55MOL    F16 6604   4.617   2.127   5.113  0.7941  0.2215  0.0151
   55MOL    H17 6605   4.580   2.377   5.071 -0.4005  2.5131 -1.4752
   55MOL    H18 6606   4.468   2.352   4.946  0.0489 -0.3238 -1.4513
   55MOL    H19 6607   4.499   2.103   4.964  0.8665 -1.7844  1.4975
   55MOL    C20 6608   4.390   2.170   5.123 -0.0182  0.0909 -0.1265
   55MOL    C21 6609   4.324   2.026   5.142 -1.1350 -0.7925 -0.3909
   55MOL    F22 6610   4.416   1.942   5.184  0.3905 -0.3717  0.3407
   55MOL    H23 6611   4.400   2.218   5.220  2.1807 -2.0500  0.7560
   55MOL    H24 6612   4.311   2.209   5.057  0.0532 -0.3110 -0.4524
   55MOL    H25 6613   4.285   1.994   5.046 -1.4778 -0.3965 -0.3854
   55MOL    C26 6614   4.211   2.019   5.237 -0.6502 -0.2078  0.8222
   55MOL    C27 6615   4.175   1.879   5.287 -0.1340  0.1014 -0.2327
   55MOL    F28 6616   4.262   1.856   5.389  0.4517 -0.6748 -0.2785
   55MOL    H29 6617   4.230   2.086   5.321  0.2282  0.7043 -0.0812
   55MOL    H30 6618   4.116   2.056   5.197 -0.5436 -1.8831 -1.0940
   55MOL    H31 6619   4.198   1.807   5.208  0.7065 -0.3851  0.4458
   55MOL    C32 6620   4.029   1.868   5.338 -0.7074  0.2500 -0.1860
   55MOL    C33 6621   3.995   1.933   5.475 -0.6837  0.8253 -0.1886
   55MOL    F34 6622   4.003   2.067   5.460 -0.5976  0.1281 -0.0429
   55MOL    H35 6623   3.973   1.921   5.260  1.6385  2.7829 -0.2328
   55MOL    H36 6624   4.003   1.763   5.348 -0.2461  0.0590 -0.9861
   55MOL    H37 6625   4.079   1.915   5.542  1.0699  1.8540 -2.0549
   55MOL    C38 6626   3.861   1.895   5.535 -0.1163  0.3118  0.1219
   55MOL    C39 6627   3.815   1.974   5.669 -0.2183  0.3081  0.4237
   55MOL    F40 6628   3.695   1.938   5.706  0.0162  0.0189  0.2127
   55MOL    H41 6629   3.787   1.927   5.461  0.0200  0.9067  0.2435
   55MOL    H42 6630   3.855   1.788   5.554  2.8002  0.4549  2.2177
   55MOL    H43 6631   3.824   2.080   5.648  0.1912 -0.0967 -1.5211
   55MOL    C44 6632   3.895   1.944   5.795  0.0608  0.2815  0.7410
   55MOL    C45 6633   3.837   1.978   5.928  0.1358  0.8619 -0.3849
   55MOL    F46 6634   3.923   1.917   6.021  0.1556  0.2622  0.0925
   55MOL    H47 6635   3.904   1.835   5.798 -0.3378  0.1603 -1.2379
   55MOL    H48 6636   3.994   1.990   5.800 -1.0336  2.7180  0.4955
   55MOL    H49 6637   3.741   1.934   5.953  0.3403  0.3707 -0.4749
   55MOL    C50 6638   3.839   2.132   5.953 -0.4720 -0.3203 -0.4668
   55MOL    C51 6639   3.698   2.208   5.945  0.8295 -0.1935 -0.0294
   55MOL    F52 6640   3.609   2.142   6.024  0.2713 -0.7986  0.2457
   55MOL    H53 6641   3.884   2.141   6.052  1.4554  1.4228 -1.4590
   55MOL    H54 6642   3.916   2.182   5.894 -0.3671 -1.0919 -0.9981
   55MOL    H55 6643   3.664   2.216   5.842  4.0546  0.4642 -1.0928
   55MOL    C56 6644   3.713   2.352   6.005  0.6307  0.3550 -0.5387
   55MOL    C57 6645   3.801   2.443   5.924  0.9044 -0.2584 -0.3229
   55MOL    F58 6646   3.733   2.471   5.813 -0.2473  0.3671 -0.5549
   55MOL    H59 6647   3.615   2.397   6.019  0.4716  0.1854 -1.0727
   55MOL    H60 6648   3.754   2.332   6.104 -0.9990 -0.4229 -0.0025
   55MOL    H61 6649   3.892   2.398   5.886  0.9248 -1.8948  1.6177
   55MOL    C62 6650   3.845   2.564   5.994  0.5314  0.0843  0.0607
   55MOL    C63 6651   3.913   2.539   6.127  0.0654  0.5282 -0.2524
   55MOL    F64 6652   4.020   2.464   6.103  0.1481 -0.7467 -0.5670
   55MOL    H65 6653   3.914   2.614   5.925 -0.3947  0.4723 -0.5951
   55MOL    H66 6654   3.765   2.638   6.003  0.3479 -0.0196 -0.6899
   55MOL    H67 6655   3.859   2.496   6.211  1.0562  1.0440  0.6597
   55MOL    C68 6656   3.977   2.659   6.197 -0.3527 -1.0324 -0.8774
   55MOL    C69 6657   3.890   2.777   6.234 -0.2253 -0.3462 -0.5223
   55MOL    F70 6658   3.784   2.737   6.305 -0.3986 -0.7158  0.3331
   55MOL    H71 6659   4.024   2.611   6.284  0.2619  0.1474 -0.5490
   55MOL    H72 6660   4.061   2.700   6.141  1.5938 -1.4068  1.6393
   55MOL    H73 6661   3.845   2.821   6.145 -0.6895 -0.1820 -0.2033
   55MOL    C74 6662   3.950   2.889   6.325 -0.2367 -0.7541  0.3072
   55MOL    C75 6663   4.064   2.982   6.269  0.1502  0.6031 -0.3364
   55MOL    F76 6664   4.035   3.028   6.148 -0.1078 -0.4612 -0.0733
   55MOL    H77 6665   3.868   2.956   6.351 -0.3429 -0.0668 -1.7588
   55MOL    H78 6666   3.996   2.848   6.416 -1.0946 -0.7782  0.7392
   55MOL    H79 6667   4.154   2.925   6.249 -0.3391  0.5835 -2.6014
   55MOL    C80 6668   4.113   3.094   6.364  0.4357  0.6266  0.3436
   55MOL    C81 6669   4.245   3.166   6.322  0.2206  0.3487 -0.1215
   55MOL    F82 6670   4.231   3.232   6.209 -0.3078  0.4471 -0.0880
   55MOL    H83 6671   4.035   3.169   6.359  1.0783  1.3769  1.3199
   55MOL    H84 6672   4.128   3.054   6.465 -3.8677  0.2041  0.8942
   55MOL    H85 6673   4.314   3.084   6.300  0.0107  0.6808 -2.1021
   55MOL    C86 6674   4.297   3.259   6.443  1.2187  0.4106 -0.2199
   55MOL    C87 6675   4.439   3.320   6.420 -0.5148  0.2537 -0.0631
   55MOL    F88 6676   4.452   3.375   6.300  0.1842  0.6375 -0.3829
   55MOL    H89 6677   4.220   3.336   6.448  1.2517  0.3614  1.2577
   55MOL    H90 6678   4.299   3.206   6.538 -0.4081  0.7386  0.0130
   55MOL    H91 6679   4.519   3.246   6.421 -2.5184 -2.0110  0.1906
   55MOL    C92 6680   4.450   3.427   6.530 -0.4511  0.2014 -0.3708
   55MOL    C93 6681   4.576   3.508   6.495 -0.1483  0.6058  0.0168
   55MOL    F94 6682   4.583   3.617   6.578 -0.7804  0.0817  0.2039
   55MOL    H95 6683   4.366   3.497   6.534  0.6403  1.6563 -2.0010
   55MOL    H96 6684   4.463   3.382   6.628  1.9915  1.1874 -0.1942
   55MOL    H97 6685   4.567   3.545   6.393 -2.5319  1.4227  0.4935
   55MOL    C98 6686   4.701   3.432   6.490 -0.8013  0.1890 -0.0346
   55MOL    C99 6687   4.746   3.367   6.625  0.3073  0.0512  0.5522
   55MOL   F100 6688   4.663   3.261   6.651 -0.4173 -0.0013 -0.0536
   55MOL   H101 6689   4.708   3.355   6.414  1.2728 -1.0452  1.3347
   55MOL   H102 6690   4.775   3.509   6.465 -0.9451  0.7668  1.2930
   55MOL   H103 6691   4.727   3.444   6.700 -0.8843  0.9072 -0.5957
   55MOL   C104 6692   4.894   3.332   6.633 -0.2381 -0.1619 -0.2293
   55MOL   C105 6693   4.927   3.257   6.756 -0.8938  0.0016 -0.2010
   55MOL   F106 6694   5.058   3.270   6.763  0.2106  0.2949 -0.0617
   55MOL   H107 6695   4.927   3.268   6.552 -1.7886 -1.9484  0.5143
   55MOL   H108 6696   4.958   3.417   6.610  0.2037 -0.3995  0.1008
   55MOL   H109 6697   4.894   3.155   6.742 -0.0801 -0.5108  1.4342
   55MOL   C110 6698   4.881   3.317   6.895 -0.6452  0.2245 -0.4624
   55MOL   C111 6699   4.927   3.225   7.010 -0.3415 -0.0710 -0.0774
   55MOL   F112 6700   4.879   3.290   7.117  0.7426 -0.0874  0.2857
   55MOL   H113 6701   4.915   3.420   6.884  0.7490 -0.4360 -2.7519
   55MOL   H114 6702   4.774   3.329   6.907 -0.3552  2.6976 -0.0422
   55MOL   H115 6703   5.035   3.235   7.012 -0.2711 -0.7704 -0.1580
   55MOL   C116 6704   4.868   3.079   7.010  0.2744 -0.8557 -0.2824
   55MOL   C117 6705   4.882   3.022   7.151 -0.5243  0.2227  0.6104
   55MOL   F118 6706   4.820   2.910   7.163  0.2091 -0.1426  0.1686
   55MOL   H119 6707   4.762   3.086   6.984  0.1086 -1.5551  0.2041
   55MOL   H120 6708   4.921   3.022   6.933  0.6584 -0.2885 -0.4386
   55MOL   H121 6709   4.847   3.090   7.229 -0.0019 -0.1568  1.1837
   55MOL   H122 6710   4.987   3.004   7.171 -0.4665 -0.4327 -0.2280
   56MOL     C1 6711   1.461   3.644   2.214  0.5665  0.0656  0.5143
   56MOL     C2 6712   1.522   3.503   2.255  0.0231  0.0260  0.3053
   56MOL     F3 6713   1.562   3.512   2.379 -0.1752 -0.6467 -0.1185
   56MOL     H4 6714   1.511   3.730   2.259 -1.8962  1.0041  1.5381
   56MOL     H5 6715   1.359   3.643   2.253  0.2180 -2.9039 -0.3153
   56MOL     H6 6716   1.611   3.494   2.193 -1.9582  0.6508 -2.7079
   56MOL     H7 6717   1.445   3.650   2.107 -0.1253 -1.5892  0.5061
   56MOL     C8 6718   1.429   3.385   2.220  0.3280 -0.1175 -0.1471
   56MOL     C9 6719   1.440   3.332   2.067 -0.3727  0.0573  0.3085
   56MOL    F10 6720   1.558   3.280   2.052 -0.5381  0.1956 -0.0520
   56MOL    H11 6721   1.450   3.304   2.289 -1.2605 -0.6228 -0.2240
   56MOL    H12 6722   1.325   3.415   2.236  0.6763  1.7071 -1.1240
   56MOL    H13 6723   1.426   3.417   1.999  2.4516  2.1731  2.2724
   56MOL    C14 6724   1.343   3.220   2.033 -0.9090 -0.6264  0.2633
   56MOL    C15 6725   1.368   3.080   2.101 -0.4611 -0.3553 -0.6004
   56MOL    F16 6726   1.331   3.077   2.228  0.0695 -0.8207  0.2495
   56MOL    H17 6727   1.242   3.259   2.043  0.0321  2.2019 -0.7471
   56MOL    H18 6728   1.368   3.201   1.928  1.8845 -0.0741  0.7720
   56MOL    H19 6729   1.474   3.055   2.104 -0.5208 -0.4869  0.4881
   56MOL    C20 6730   1.293   2.963   2.038 -0.2021  0.1146  0.2157
   56MOL    C21 6731   1.329   2.924   1.894  0.1461  0.0867 -0.1683
   56MOL    F22 6732   1.461   2.927   1.892 -0.1133 -0.0656 -0.4271
   56MOL    H23 6733   1.317   2.873   2.093  0.5103  0.0670 -0.1735
   56MOL    H24 6734   1.187   2.964   2.064  0.0553 -0.3235  1.3021
   56MOL    H25 6735   1.298   2.999   1.821 -0.9551  1.2671  1.4739
   56MOL    C26 6736   1.269   2.790   1.847  0.3060  0.1504  0.0689
   56MOL    C27 6737   1.296   2.751   1.695  0.0836  0.0585  0.3678
   56MOL    F28 6738   1.234   2.842   1.623  0.0086  0.0463  0.3568
   56MOL    H29 6739   1.305   2.706   1.906 -0.7960  0.7310  1.5847
   56MOL    H30 6740   1.160   2.795   1.854  0.3456  3.1753 -0.6033
   56MOL    H31 6741   1.242   2.660   1.669  1.8305 -1.6761  2.6578
   56MOL    C32 6742   1.440   2.739   1.639 -0.4941 -0.6304 -0.0198
   56MOL    C33 6743   1.461   2.637   1.531  0.1495  0.3414 -0.5039
   56MOL    F34 6744   1.385   2.662   1.421 -0.2469 -0.4301 -0.1825
   56MOL    H35 6745   1.477   2.839   1.616 -0.9240 -0.2805  0.7912
   56MOL    H36 6746   1.494   2.707   1.728 -1.8228  0.8401  1.3331
   56MOL    H37 6747   1.440   2.534   1.562 -0.5423  0.3863 -0.8251
   56MOL    C38 6748   1.605   2.647   1.475 -0.5126  0.0725  0.7425
   56MOL    C39 6749   1.717   2.597   1.570 -0.3389  0.5333 -1.0247
   56MOL    F40 6750   1.682   2.468   1.597  0.1202 -0.0950 -0.2045
   56MOL    H41 6751   1.603   2.600   1.376  1.2390 -0.2753  0.8588
   56MOL    H42 6752   1.620   2.754   1.468  0.1861 -0.1464 -1.7572
   56MOL    H43 6753   1.729   2.658   1.659  1.5600  1.5805 -1.9446
   56MOL    C44 6754   1.866   2.586   1.515  0.0894  0.4194 -0.4956
   56MOL    C45 6755   1.876   2.509   1.381 -0.1017 -0.0734  0.2863
   56MOL    F46 6756   1.822   2.579   1.280  0.3002 -0.3495  0.7553
   56MOL    H47 6757   1.916   2.681   1.496  0.8819 -0.1055 -1.0657
   56MOL    H48 6758   1.928   2.537   1.590  0.4964  1.7659  0.0646
   56MOL    H49 6759   1.813   2.420   1.387 -2.0251  1.2756  0.7655
   56MOL    C50 6760   2.018   2.471   1.342 -0.7126  0.5139 -0.2256
   56MOL    C51 6761   2.033   2.371   1.226 -0.0990 -0.4240 -0.1236
   56MOL    F52 6762   1.988   2.430   1.112  0.6301  0.1154  0.1124
   56MOL    H53 6763   2.086   2.555   1.333 -0.2916  0.2853  0.8040
   56MOL    H54 6764   2.053   2.417   1.430  0.4400  0.3894 -0.7471
   56MOL    H55 6765   1.968   2.285   1.243  0.7534 -1.2924 -1.1107
   56MOL    C56 6766   2.179   2.317   1.209 -0.2457  0.2890  0.4809
   56MOL    C57 6767   2.238   2.250   1.325  0.1521  0.1617 -0.0102
   56MOL    F58 6768   2.159   2.152   1.370 -1.4846  0.3050  0.1695
   56MOL    H59 6769   2.193   2.243   1.130 -0.7209  0.8664 -0.1554
   56MOL    H60 6770   2.241   2.403   1.184  0.9078 -0.8941 -0.7910
   56MOL    H61 6771   2.249   2.317   1.411 -0.3078 -0.5730  0.6288
   56MOL    C62 6772   2.371   2.180   1.303 -0.4260  0.0443  0.0860
   56MOL    C63 6773   2.488   2.285   1.286  0.5892  0.4197 -0.5464
   56MOL    F64 6774   2.481   2.374   1.386 -0.6530  0.0357  0.0328
   56MOL    H65 6775   2.389   2.114   1.388  2.0554 -1.7313 -1.7106
   56MOL    H66 6776   2.369   2.107   1.221  2.2908 -2.4421  2.0993
   56MOL    H67 6777   2.472   2.342   1.195 -0.8645  1.1922  0.1617
   56MOL    C68 6778   2.633   2.231   1.279  0.0502  0.5272  0.0294
   56MOL    C69 6779   2.696   2.169   1.154  0.2433 -0.8397 -0.3882
   56MOL    F70 6780   2.821   2.143   1.183 -0.0156 -0.2129  0.4013
   56MOL    H71 6781   2.695   2.317   1.304 -0.6465  0.3869  2.3788
   56MOL    H72 6782   2.641   2.162   1.363 -0.9957  1.1637  0.6688
   56MOL    H73 6783   2.701   2.250   1.081  1.1129  0.5034  1.1213
   56MOL    C74 6784   2.640   2.030   1.094  0.3613  0.0458 -0.1971
   56MOL    C75 6785   2.639   1.911   1.195  0.0464 -0.0291  0.4582
   56MOL    F76 6786   2.538   1.912   1.282 -0.4132  0.0490  0.1497
   56MOL    H77 6787   2.540   2.043   1.051  0.3632 -0.6588 -0.4183
   56MOL    H78 6788   2.703   1.994   1.013 -0.9456 -0.8453 -0.8355
   56MOL    H79 6789   2.733   1.921   1.249  0.0381  0.3464  0.4037
   56MOL    C80 6790   2.630   1.787   1.108 -0.0396 -0.0724 -0.4066
   56MOL    C81 6791   2.683   1.660   1.174  0.0241  0.0902  0.0513
   56MOL    F82 6792   2.622   1.631   1.288  0.3285  0.3434 -0.1043
   56MOL    H83 6793   2.529   1.762   1.078  0.5226 -0.5499 -1.9756
   56MOL    H84 6794   2.692   1.791   1.017  1.6099 -0.8719  0.6466
   56MOL    H85 6795   2.792   1.658   1.184  0.2251 -2.1079 -2.1504
   56MOL    C86 6796   2.642   1.536   1.096  0.0676  0.5525  0.1927
   56MOL    C87 6797   2.723   1.409   1.137 -0.0146  0.2769  0.5270
   56MOL    F88 6798   2.684   1.390   1.262  0.2697 -0.1056 -0.1470
   56MOL    H89 6799   2.539   1.509   1.119  0.1311  0.0389 -0.1165
   56MOL    H90 6800   2.659   1.566   0.993  0.5641  1.3679  0.5118
   56MOL    H91 6801   2.831   1.423   1.138  0.2596 -1.5436 -0.7536
   56MOL    C92 6802   2.690   1.283   1.049 -0.0067 -0.8351 -0.1248
   56MOL    C93 6803   2.701   1.312   0.896 -0.1857 -0.3594  0.3054
   56MOL    F94 6804   2.826   1.339   0.869  0.3404  0.3815 -0.2583
   56MOL    H95 6805   2.757   1.204   1.084  0.1069 -1.0015 -0.7004
   56MOL    H96 6806   2.596   1.234   1.073  0.7729 -2.0444  0.5146
   56MOL    H97 6807   2.644   1.399   0.864 -0.2286 -0.1531  0.9379
   56MOL    C98 6808   2.653   1.194   0.815  0.3644 -0.1067 -0.3948
   56MOL    C99 6809   2.498   1.183   0.814 -0.0487 -0.0234  0.7457
   56MOL   F100 6810   2.459   1.307   0.780 -0.8626  0.2759  0.2313
   56MOL   H101 6811   2.679   1.199   0.709  0.8896  0.7291 -0.2298
   56MOL   H102 6812   2.686   1.097   0.850 -0.3617  0.4271  1.8203
   56MOL   H103 6813   2.466   1.167   0.917 -2.8292 -1.0407 -0.2271
   56MOL   C104 6814   2.440   1.094   0.706 -0.2048  0.2793  0.5596
   56MOL   C105 6815   2.287   1.086   0.707 -0.5165  0.0308  0.1683
   56MOL   F106 6816   2.249   1.057   0.825 -0.4913 -0.0369  0.0645
   56MOL   H107 6817   2.475   1.117   0.605  0.1170  1.9662  1.0448
   56MOL   H108 6818   2.478   0.996   0.734  2.7906  1.1557 -0.2416
   56MOL   H109 6819   2.253   1.001   0.648  1.1072 -0.9562  0.6152
   56MOL   C110 6820   2.209   1.210   0.652  0.4467  0.6332 -0.2215
   56MOL   C111 6821   2.054   1.206   0.641  0.1893  0.5050 -0.6177
   56MOL   F112 6822   2.012   1.328   0.635  0.0785 -0.0105 -0.4606
   56MOL   H113 6823   2.235   1.291   0.719 -0.8399 -0.4057  1.5722
   56MOL   H114 6824   2.260   1.213   0.555  1.3668 -0.6362  0.2026
   56MOL   H115 6825   2.006   1.168   0.731  1.3989 -0.8427 -0.5318
   56MOL   C116 6826   2.015   1.125   0.514 -0.6758 -0.1705 -1.0777
   56MOL   C117 6827   1.864   1.125   0.480  0.7804 -0.0718  0.8480
   56MOL   F118 6828   1.851   1.049   0.363 -0.3374 -0.2334  0.0847
   56MOL   H119 6829   2.078   1.163   0.434 -0.8703  1.2243 -0.5887
   56MOL   H120 6830   2.032   1.018   0.529  2.6159  0.5656  1.1414
   56MOL   H121 6831   1.817   1.216   0.444 -2.7216 -1.3739  1.9443
   56MOL   H122 6832   1.805   1.096   0.567  0.7005  0.5657  1.0086
   57MOL     C1 6833   5.897   5.942   6.616 -0.6456 -0.2842 -0.7858
   57MOL     C2 6834   5.967   5.811   6.651  0.1155 -0.0579  0.2377
   57MOL     F3 6835   5.878   5.740   6.726  0.1264 -0.1483 -0.1782
   57MOL     H4 6836   5.965   5.996   6.549  0.3259 -1.1640 -0.5232
   57MOL     H5 6837   5.895   6.003   6.706  0.2254 -1.3888  0.0015
   57MOL     H6 6838   6.058   5.835   6.707  0.4162  0.2419 -0.3804
   57MOL     H7 6839   5.797   5.945   6.573 -0.1803 -2.1958 -2.0911
   57MOL     C8 6840   6.011   5.740   6.521 -0.2832  0.4251 -0.0172
   57MOL     C9 6841   6.081   5.606   6.536 -0.2817 -0.3318 -0.1947
   57MOL    F10 6842   6.129   5.571   6.419 -0.5375  0.4372 -0.1889
   57MOL    H11 6843   5.925   5.723   6.455  0.9363 -0.6877 -1.3672
   57MOL    H12 6844   6.072   5.808   6.463 -0.8994 -1.7231 -3.3330
   57MOL    H13 6845   6.003   5.537   6.567 -1.5051  1.2582  0.3639
   57MOL    C14 6846   6.184   5.594   6.645 -0.0502 -0.4465 -0.0358
   57MOL    C15 6847   6.260   5.459   6.647  0.6904 -0.3056  0.3539
   57MOL    F16 6848   6.382   5.476   6.705  0.0667  0.1136  0.2306
   57MOL    H17 6849   6.258   5.673   6.636 -0.3325 -0.2934 -1.0732
   57MOL    H18 6850   6.134   5.605   6.741  0.4304 -0.0275  0.1680
   57MOL    H19 6851   6.283   5.431   6.544 -0.5954  0.3116 -0.1137
   57MOL    C20 6852   6.191   5.338   6.718  0.4326  0.5315 -0.3555
   57MOL    C21 6853   6.265   5.206   6.742 -0.0407 -0.0010  0.2959
   57MOL    F22 6854   6.334   5.229   6.845 -0.2427 -0.6876 -0.0512
   57MOL    H23 6855   6.172   5.366   6.821  1.0688 -1.5731  0.3808
   57MOL    H24 6856   6.091   5.325   6.677 -0.4466  1.0853  1.6018
   57MOL    H25 6857   6.328   5.196   6.654  0.4146  2.3003  0.3252
   57MOL    C26 6858   6.174   5.082   6.769  1.3307 -0.1965  1.0408
   57MOL    C27 6859   6.125   5.017   6.643  0.0117 -0.0744 -0.5296
   57MOL    F28 6860   6.231   4.985   6.563 -0.1599  0.4891  0.0774
   57MOL    H29 6861   6.239   5.015   6.826  0.5506 -1.2402  0.7106
   57MOL    H30 6862   6.094   5.099   6.841  0.0924 -2.1510  0.1645
   57MOL    H31 6863   6.062   5.078   6.578 -0.5074 -1.0374 -0.9391
   57MOL    C32 6864   6.045   4.877   6.658 -0.1931 -0.9378  0.3396
   57MOL    C33 6865   5.929   4.862   6.758 -0.0369 -0.4188 -0.1884
   57MOL    F34 6866   5.829   4.945   6.720 -0.0168 -0.1275 -0.8322
   57MOL    H35 6867   6.016   4.847   6.557 -0.6397 -1.0182  0.4930
   57MOL    H36 6868   6.126   4.810   6.689 -0.1549 -1.4966 -0.9342
   57MOL    H37 6869   5.977   4.901   6.848  5.0159 -4.8055 -0.7749
   57MOL    C38 6870   5.874   4.715   6.773 -0.0871 -0.6222  0.0914
   57MOL    C39 6871   5.982   4.616   6.822 -0.5905 -0.5206 -0.4578
   57MOL    F40 6872   5.994   4.659   6.948 -0.3270 -0.8472 -0.2859
   57MOL    H41 6873   5.784   4.717   6.836 -1.7273  2.3473 -2.2191
   57MOL    H42 6874   5.841   4.688   6.673  2.1428 -1.6205 -0.4004
   57MOL    H43 6875   6.078   4.628   6.772 -0.7774 -0.0787 -0.7135
   57MOL    C44 6876   5.938   4.468   6.825 -0.1771 -0.9070 -0.0477
   57MOL    C45 6877   5.917   4.404   6.684 -0.8990  0.0692 -0.6051
   57MOL    F46 6878   6.041   4.409   6.635 -0.2846 -0.4024 -0.0748
   57MOL    H47 6879   6.019   4.424   6.884  0.4352 -0.5964 -0.6506
   57MOL    H48 6880   5.849   4.464   6.888  0.7183  0.2733  1.3524
   57MOL    H49 6881   5.849   4.461   6.621 -0.0384  2.1040  0.2403
   57MOL    C50 6882   5.869   4.262   6.688 -0.2551  0.6893  0.1845
   57MOL    C51 6883   5.723   4.250   6.737 -0.3007 -0.0096  0.4113
   57MOL    F52 6884   5.643   4.311   6.656  0.3631  0.2032  0.3326
   57MOL    H53 6885   5.878   4.225   6.586 -2.2185  0.6230  0.0106
   57MOL    H54 6886   5.935   4.203   6.750 -2.1266 -1.9885 -0.3001
   57MOL    H55 6887   5.695   4.290   6.834 -1.4515  1.3772 -0.4806
   57MOL    C56 6888   5.674   4.101   6.722  0.7037  0.1570 -0.3609
   57MOL    C57 6889   5.715   4.011   6.838  0.0149 -0.0048  0.1967
   57MOL    F58 6890   5.664   4.073   6.944 -0.1486  0.3749 -0.2422
   57MOL    H59 6891   5.567   4.101   6.699  0.9153 -0.0158 -1.3585
   57MOL    H60 6892   5.712   4.062   6.628  0.0598 -2.6265  0.4876
   57MOL    H61 6893   5.823   4.007   6.851 -0.1771  0.0913  1.9299
   57MOL    C62 6894   5.658   3.871   6.835  0.3056  0.2562  0.1136
   57MOL    C63 6895   5.754   3.764   6.793  0.1654 -0.2367  0.0519
   57MOL    F64 6896   5.855   3.770   6.883  0.3639  0.3131  0.1970
   57MOL    H65 6897   5.628   3.848   6.938  1.5455  1.9647  0.8941
   57MOL    H66 6898   5.563   3.872   6.781 -0.0224 -1.1174  0.6573
   57MOL    H67 6899   5.805   3.803   6.704  1.3757  0.4179  1.0222
   57MOL    C68 6900   5.695   3.623   6.766  0.6106  0.9870 -0.2875
   57MOL    C69 6901   5.566   3.600   6.694 -0.3742  0.3854  0.3102
   57MOL    F70 6902   5.588   3.658   6.575  0.1548 -0.3056  0.3832
   57MOL    H71 6903   5.773   3.564   6.717 -0.0772  1.1219 -1.5807
   57MOL    H72 6904   5.678   3.578   6.864  0.2914 -0.1316 -0.8421
   57MOL    H73 6905   5.486   3.658   6.739 -1.2427 -0.7927  0.2884
   57MOL    C74 6906   5.530   3.446   6.662 -0.1465  0.1411  0.0384
   57MOL    C75 6907   5.528   3.356   6.784  1.1658  0.8995  0.1313
   57MOL    F76 6908   5.453   3.417   6.875 -0.6711 -0.9094  0.0180
   57MOL    H77 6909   5.431   3.450   6.617 -0.0212  1.0161 -0.1667
   57MOL    H78 6910   5.592   3.410   6.580  1.1990 -2.5884  2.1748
   57MOL    H79 6911   5.630   3.346   6.823  1.0076  0.0794  0.3483
   57MOL    C80 6912   5.462   3.220   6.761  0.0680  0.1625 -0.0668
   57MOL    C81 6913   5.531   3.128   6.667  0.2457 -0.0532  0.0820
   57MOL    F82 6914   5.638   3.094   6.732  0.3462 -0.8236  0.5419
   57MOL    H83 6915   5.450   3.169   6.857  0.9920 -0.0110 -0.0382
   57MOL    H84 6916   5.363   3.242   6.722  0.6621  2.5409 -0.2664
   57MOL    H85 6917   5.567   3.178   6.577  0.4022 -0.9298 -0.3414
   57MOL    C86 6918   5.443   3.005   6.624 -0.2666 -0.5486 -0.4371
   57MOL    C87 6919   5.322   3.040   6.528 -0.4192 -0.5073  0.1056
   57MOL    F88 6920   5.365   3.095   6.413  0.3544 -0.8883  0.4995
   57MOL    H89 6921   5.505   2.939   6.564  2.4918  0.0544  1.6540
   57MOL    H90 6922   5.408   2.952   6.713  0.1569 -0.3244 -0.1356
   57MOL    H91 6923   5.258   3.117   6.571 -1.5032 -0.2897 -1.8348
   57MOL    C92 6924   5.225   2.925   6.504 -0.0096  0.0315  0.7014
   57MOL    C93 6925   5.126   2.894   6.610 -0.1580 -0.1384 -0.1793
   57MOL    F94 6926   5.039   3.002   6.594 -0.1050 -0.2421 -0.4798
   57MOL    H95 6927   5.174   2.938   6.409  0.8587 -0.7783  0.1024
   57MOL    H96 6928   5.279   2.831   6.488 -0.8304 -0.0368 -2.0118
   57MOL    H97 6929   5.170   2.888   6.710  2.3365  0.5200 -1.2045
   57MOL    C98 6930   5.048   2.765   6.580 -0.0494  0.1018 -0.1612
   57MOL    C99 6931   4.941   2.732   6.677 -0.6205  0.5859 -0.0818
   57MOL   F100 6932   4.836   2.811   6.651 -0.2793 -0.4433  0.1508
   57MOL   H101 6933   5.020   2.757   6.475 -1.6602  1.3830  0.1560
   57MOL   H102 6934   5.126   2.690   6.594  2.0453  2.1434 -0.4566
   57MOL   H103 6935   4.981   2.758   6.775 -0.0578 -1.5477  0.2782
   57MOL   C104 6936   4.894   2.587   6.667 -0.0048 -0.2275 -0.1358
   57MOL   C105 6937   4.775   2.552   6.759  0.4746  0.1002 -0.4364
   57MOL   F106 6938   4.659   2.597   6.698 -0.6127 -0.2020  0.2074
   57MOL   H107 6939   4.869   2.577   6.562 -0.9508 -1.8467  0.2335
   57MOL   H108 6940   4.980   2.526   6.693  1.2116  0.1774 -3.0753
   57MOL   H109 6941   4.785   2.603   6.855  0.6712  0.7314 -0.7954
   57MOL   C110 6942   4.763   2.397   6.767 -0.7811  0.6205 -0.6723
   57MOL   C111 6943   4.857   2.336   6.871  0.0375 -0.1218  0.1563
   57MOL   F112 6944   4.812   2.394   6.983  0.7739  0.1595  0.6910
   57MOL   H113 6945   4.658   2.374   6.786 -0.5933  2.1402  2.4586
   57MOL   H114 6946   4.796   2.352   6.673 -0.1119 -2.4235  0.9299
   57MOL   H115 6947   4.963   2.355   6.850  0.1969 -0.1556  0.9080
   57MOL   C116 6948   4.845   2.187   6.884 -0.1418  0.3501 -0.0985
   57MOL   C117 6949   4.960   2.096   6.940 -0.3115 -1.1424 -0.2702
   57MOL   F118 6950   4.918   1.972   6.961 -0.3986 -0.4589 -0.1442
   57MOL   H119 6951   4.755   2.164   6.941 -1.9396  2.3383 -2.0697
   57MOL   H120 6952   4.816   2.153   6.785 -0.0630 -0.1546  0.0496
   57MOL   H121 6953   5.005   2.134   7.032 -3.2687 -0.4485  0.9289
   57MOL   H122 6954   5.041   2.082   6.869 -0.2324  0.8456 -0.6039
   58MOL     C1 6955   1.922   5.667   5.492  0.5827 -0.4061 -0.2486
   58MOL     C2 6956   1.845   5.777   5.423 -0.0189 -0.1265  0.1972
   58MOL     F3 6957   1.872   5.893   5.484 -0.1412  0.0822 -0.2982
   58MOL     H4 6958   2.030   5.672   5.481  0.5962 -3.7968 -2.0964
   58MOL     H5 6959   1.892   5.570   5.454 -0.0681 -1.0568  1.8420
   58MOL     H6 6960   1.736   5.765   5.422  0.1610 -2.0293  0.9762
   58MOL     H7 6961   1.913   5.665   5.601  4.3825  0.3195  0.1389
   58MOL     C8 6962   1.884   5.796   5.277  0.3930  0.2174 -0.3868
   58MOL     C9 6963   1.869   5.663   5.196 -0.5081 -0.4551 -0.1150
   58MOL    F10 6964   1.746   5.620   5.220 -0.4805  0.3893 -0.1416
   58MOL    H11 6965   1.828   5.879   5.233  0.8458  0.7657  0.0749
   58MOL    H12 6966   1.985   5.832   5.261 -0.1978  1.1459 -2.2601
   58MOL    H13 6967   1.933   5.588   5.244  2.1858  0.8641 -1.5396
   58MOL    C14 6968   1.892   5.662   5.045 -0.1490 -0.0530 -0.3248
   58MOL    C15 6969   2.046   5.690   4.996  0.4813  1.0258  0.2651
   58MOL    F16 6970   2.115   5.584   5.037 -0.2759  0.1609  0.3836
   58MOL    H17 6971   1.872   5.561   5.008  0.2693 -0.3379  0.2186
   58MOL    H18 6972   1.824   5.732   4.997 -0.5630 -2.7854 -3.9736
   58MOL    H19 6973   2.085   5.772   5.056  0.6587  0.1086  1.4227
   58MOL    C20 6974   2.054   5.716   4.845 -0.0630  0.8750 -0.5816
   58MOL    C21 6975   2.003   5.861   4.797  0.6000  0.6676 -0.2751
   58MOL    F22 6976   2.089   5.948   4.846 -0.6785 -0.2059 -0.0466
   58MOL    H23 6977   2.153   5.716   4.799 -0.5649 -0.0407 -1.6786
   58MOL    H24 6978   2.004   5.633   4.795  1.9721 -0.9359  0.3079
   58MOL    H25 6979   1.910   5.882   4.849  0.9438 -2.3074  1.6941
   58MOL    C26 6980   1.979   5.894   4.649  1.3685 -0.3456  0.2893
   58MOL    C27 6981   1.861   5.826   4.584 -1.1777  0.0432 -0.1206
   58MOL    F28 6982   1.749   5.853   4.651  0.1609 -0.3411 -0.0949
   58MOL    H29 6983   1.952   6.000   4.653 -1.6249 -1.0561 -0.0680
   58MOL    H30 6984   2.065   5.881   4.583  0.9897 -0.2779 -0.2149
   58MOL    H31 6985   1.867   5.720   4.607 -2.2979  0.0631  0.2852
   58MOL    C32 6986   1.832   5.848   4.437  0.3290  0.1976  0.2939
   58MOL    C33 6987   1.853   5.723   4.347  0.0863 -0.4151  0.0586
   58MOL    F34 6988   1.970   5.666   4.388  0.2310 -0.2212 -0.0546
   58MOL    H35 6989   1.737   5.899   4.424  0.9535  1.0143 -1.2434
   58MOL    H36 6990   1.912   5.916   4.407 -0.0677 -0.0826 -1.4942
   58MOL    H37 6991   1.870   5.744   4.241 -0.7010  1.2054  0.2382
   58MOL    C38 6992   1.739   5.625   4.361  0.3481  0.0544  0.4991
   58MOL    C39 6993   1.728   5.516   4.250 -0.0488  0.6944 -0.6680
   58MOL    F40 6994   1.670   5.560   4.130  0.3012  0.3163  0.2144
   58MOL    H41 6995   1.754   5.568   4.453  1.9646 -1.6754 -0.7901
   58MOL    H42 6996   1.642   5.673   4.371  1.6786  2.4036  2.8902
   58MOL    H43 6997   1.660   5.442   4.291  2.5637 -2.2227 -1.3779
   58MOL    C44 6998   1.851   5.438   4.217 -0.6488 -0.4039  0.0170
   58MOL    C45 6999   1.812   5.306   4.153  0.2703  0.4697 -0.2179
   58MOL    F46 7000   1.767   5.328   4.031 -0.0746 -0.2809 -0.5158
   58MOL    H47 7001   1.920   5.498   4.158 -2.9448  0.9845 -1.3605
   58MOL    H48 7002   1.909   5.419   4.307  0.3276  0.3517 -0.4497
   58MOL    H49 7003   1.725   5.266   4.204 -0.1983  1.4702 -0.2246
   58MOL    C50 7004   1.921   5.200   4.127 -0.7035 -0.7796 -0.1143
   58MOL    C51 7005   1.990   5.133   4.245 -0.0748  0.5624 -0.0151
   58MOL    F52 7006   1.899   5.075   4.318  0.1022  0.0473  0.1630
   58MOL    H53 7007   1.880   5.124   4.060  0.2794 -0.7397 -0.7728
   58MOL    H54 7008   2.001   5.238   4.064 -0.0861 -1.2297  0.3988
   58MOL    H55 7009   2.051   5.200   4.306  0.0979  0.0707  0.3505
   58MOL    C56 7010   2.078   5.014   4.195 -0.4787 -0.4261 -1.0455
   58MOL    C57 7011   2.162   4.957   4.309  0.5462  0.7768  0.0923
   58MOL    F58 7012   2.220   5.061   4.361 -0.3754 -0.1718  0.0083
   58MOL    H59 7013   2.020   4.936   4.145 -0.2109 -0.6549 -0.9974
   58MOL    H60 7014   2.154   5.051   4.126 -0.0752 -0.4772 -0.6299
   58MOL    H61 7015   2.246   4.900   4.270 -1.9125 -2.6692 -0.3748
   58MOL    C62 7016   2.103   4.876   4.422  0.7307 -0.1574  0.9942
   58MOL    C63 7017   2.016   4.754   4.371  0.5487 -0.6207 -0.4267
   58MOL    F64 7018   2.091   4.693   4.275 -0.2209  0.5883  0.3539
   58MOL    H65 7019   2.183   4.843   4.488  1.1502 -1.5101 -0.1782
   58MOL    H66 7020   2.028   4.935   4.477 -0.7417 -1.1440  0.0745
   58MOL    H67 7021   1.928   4.785   4.315  0.9549  1.2276 -0.0847
   58MOL    C68 7022   1.960   4.661   4.483 -0.4351 -0.8872  0.5626
   58MOL    C69 7023   1.854   4.731   4.567  0.6387 -0.5830 -0.5573
   58MOL    F70 7024   1.742   4.752   4.497 -0.0579  0.4833 -0.4645
   58MOL    H71 7025   1.915   4.574   4.436 -2.2830  0.6196 -0.5075
   58MOL    H72 7026   2.049   4.640   4.543  0.5553 -0.2327 -0.6303
   58MOL    H73 7027   1.894   4.830   4.589  1.1379 -0.6723 -1.0460
   58MOL    C74 7028   1.814   4.656   4.699 -0.1835  0.5083 -0.8848
   58MOL    C75 7029   1.934   4.649   4.796  0.1211  0.0310  1.1179
   58MOL    F76 7030   1.992   4.772   4.812 -0.3091  0.3259 -0.0355
   58MOL    H77 7031   1.737   4.717   4.747  0.8748  1.3043 -0.1716
   58MOL    H78 7032   1.780   4.554   4.680 -1.1463  0.3965  1.3784
   58MOL    H79 7033   2.008   4.582   4.753 -2.0451 -0.4437 -2.0218
   58MOL    C80 7034   1.901   4.602   4.942  0.6775  0.2889  0.1224
   58MOL    C81 7035   1.830   4.460   4.957 -0.4214  0.4347  0.6188
   58MOL    F82 7036   1.915   4.362   4.924  0.4525 -0.1635  0.1519
   58MOL    H83 7037   1.989   4.602   5.006  0.3561 -2.6268  0.6285
   58MOL    H84 7038   1.834   4.673   4.991  0.8259  1.3115 -1.1210
   58MOL    H85 7039   1.745   4.443   4.891  0.1078 -1.0187  0.2910
   58MOL    C86 7040   1.789   4.427   5.105  1.0001 -0.4069  0.0519
   58MOL    C87 7041   1.718   4.287   5.123 -0.1539  0.6949 -0.2206
   58MOL    F88 7042   1.700   4.291   5.255 -0.4070  0.2048 -0.3171
   58MOL    H89 7043   1.879   4.441   5.165 -0.4266 -0.5117  2.2599
   58MOL    H90 7044   1.721   4.502   5.145  1.5093 -0.5722  1.2490
   58MOL    H91 7045   1.802   4.222   5.098  0.7986  1.8114 -0.0037
   58MOL    C92 7046   1.590   4.258   5.047 -0.7473 -0.2380  0.4194
   58MOL    C93 7047   1.513   4.135   5.090 -0.3768 -0.0977 -0.0591
   58MOL    F94 7048   1.410   4.125   5.003  0.7119 -0.4320 -0.4061
   58MOL    H95 7049   1.530   4.347   5.062  0.2667  0.5250  0.0263
   58MOL    H96 7050   1.612   4.260   4.940 -0.1493  1.0657  0.5621
   58MOL    H97 7051   1.474   4.153   5.190 -0.2069 -1.0548  0.1794
   58MOL    C98 7052   1.593   4.008   5.086 -0.3330  0.1700 -0.0748
   58MOL    C99 7053   1.517   3.878   5.131  1.4077 -0.5942  0.5212
   58MOL   F100 7054   1.430   3.853   5.034  0.5241  0.6719  0.1750
   58MOL   H101 7055   1.628   3.994   4.984 -0.7962  0.1125 -0.2272
   58MOL   H102 7056   1.679   4.023   5.151  0.1034 -0.4011 -0.5131
   58MOL   H103 7057   1.461   3.906   5.220  0.5557  0.0043 -0.1953
   58MOL   C104 7058   1.602   3.757   5.157  0.2872 -0.0530 -0.5180
   58MOL   C105 7059   1.529   3.633   5.207 -0.3619 -0.5606 -0.7537
   58MOL   F106 7060   1.478   3.562   5.107  0.5755  0.2973 -0.0202
   58MOL   H107 7061   1.657   3.718   5.072 -2.8070  0.6730 -2.9262
   58MOL   H108 7062   1.667   3.787   5.240  2.5282 -0.3498 -2.1398
   58MOL   H109 7063   1.451   3.665   5.276  1.2775  1.1595  0.3257
   58MOL   C110 7064   1.626   3.534   5.264  0.3500 -0.2460 -0.6725
   58MOL   C111 7065   1.573   3.398   5.314  0.9461 -0.2692  0.0755
   58MOL   F112 7066   1.554   3.306   5.215 -0.1144 -0.3583  0.1851
   58MOL   H113 7067   1.699   3.514   5.185  0.6768 -0.4376 -0.3297
   58MOL   H114 7068   1.681   3.585   5.344  0.3062 -1.7314  0.3423
   58MOL   H115 7069   1.478   3.406   5.367  0.3662  0.2013 -1.0215
   58MOL   C116 7070   1.676   3.340   5.417 -0.2733 -0.4592  0.1368
   58MOL   C117 7071   1.647   3.193   5.461 -0.0538 -0.2154  0.7839
   58MOL   F118 7072   1.659   3.112   5.358 -0.0413  0.2399 -0.5463
   58MOL   H119 7073   1.782   3.332   5.389 -0.7132 -5.8404 -0.5442
   58MOL   H120 7074   1.674   3.402   5.506 -0.3044 -0.2163 -0.0327
   58MOL   H121 7075   1.546   3.174   5.497 -0.8698  1.6754 -0.4325
   58MOL   H122 7076   1.717   3.166   5.541 -0.3402  2.7190  2.1000
   59MOL     C1 7077   4.865   5.148   7.817  0.1860 -1.0077 -0.4231
   59MOL     C2 7078   4.894   5.065   7.938 -0.9325  0.4480 -0.0872
   59MOL     F3 7079   4.846   5.135   0.036 -0.0953  0.2631 -0.1009
   59MOL     H4 7080   4.918   5.110   7.730  0.8921  0.1599 -0.5192
   59MOL     H5 7081   4.902   5.250   7.828  0.7704 -1.3588  0.9741
   59MOL     H6 7082   5.003   5.059   7.947 -1.0870 -2.7852  0.1146
   59MOL     H7 7083   4.759   5.156   7.790  0.2337  1.4550 -0.0358
   59MOL     C8 7084   4.823   4.932   7.944  0.0838 -0.3178 -0.1048
   59MOL     C9 7085   4.880   4.823   7.849 -0.3212  0.0151 -0.3302
   59MOL    F10 7086   4.998   4.777   7.888  0.0837  0.4453  0.0945
   59MOL    H11 7087   4.825   4.901   0.045 -0.7413  2.4195  0.7959
   59MOL    H12 7088   4.715   4.950   7.943 -0.0082 -0.7325  1.2980
   59MOL    H13 7089   4.884   4.859   7.746  2.1385  1.7474  0.3265
   59MOL    C14 7090   4.792   4.700   7.837  0.0279 -0.1695 -0.1864
   59MOL    C15 7091   4.766   4.609   7.961 -0.1931  0.8448 -0.2839
   59MOL    F16 7092   4.684   4.660   0.043 -0.3202 -0.3126 -0.2147
   59MOL    H17 7093   4.695   4.737   7.802  0.3630  0.8732 -0.0371
   59MOL    H18 7094   4.835   4.644   7.754  0.9535  0.8952 -0.4477
   59MOL    H19 7095   4.854   4.610   0.022 -0.2397  1.1497 -0.2251
   59MOL    C20 7096   4.729   4.462   7.925 -0.3620  0.8425  0.4960
   59MOL    C21 7097   4.654   4.386   0.037 -0.2079 -0.0735 -0.3425
   59MOL    F22 7098   4.624   4.269   7.993 -0.0120  0.2272 -0.1055
   59MOL    H23 7099   4.666   4.468   7.836 -0.9211 -0.2977  0.8100
   59MOL    H24 7100   4.819   4.406   7.898 -1.6893 -1.0095 -0.1563
   59MOL    H25 7101   4.559   4.436   0.057  0.6585  0.9056  1.5277
   59MOL    C26 7102   4.741   4.366   0.165  0.1805 -0.2035  0.2676
   59MOL    C27 7103   4.698   4.259   0.258  0.6311 -0.2018  0.3570
   59MOL    F28 7104   4.780   4.246   0.365 -0.0843  0.2750 -0.6479
   59MOL    H29 7105   4.838   4.339   0.123  0.8022  1.9222  0.2480
   59MOL    H30 7106   4.746   4.463   0.215 -2.4082  0.3644 -0.5279
   59MOL    H31 7107   4.713   4.163   0.211  0.7834 -0.3623  0.7257
   59MOL    C32 7108   4.549   4.279   0.311 -0.1757 -0.0400  0.5273
   59MOL    C33 7109   4.519   4.234   0.457 -0.6196  0.0353  0.5806
   59MOL    F34 7110   4.392   4.257   0.486 -0.1552  0.5066  0.0139
   59MOL    H35 7111   4.547   4.388   0.309  0.1824 -0.0366  0.3353
   59MOL    H36 7112   4.476   4.238   0.241 -0.1426  1.1052 -0.2077
   59MOL    H37 7113   4.584   4.288   0.526  0.7135 -0.1413 -0.5127
   59MOL    C38 7114   4.547   4.079   0.460  0.1333 -0.1599  0.1513
   59MOL    C39 7115   4.544   4.007   0.596 -0.0694  0.3022 -0.1714
   59MOL    F40 7116   4.574   3.878   0.588  0.1043  0.0422  0.0359
   59MOL    H41 7117   4.469   4.029   0.403 -1.3073 -0.2403  2.1337
   59MOL    H42 7118   4.644   4.058   0.417 -0.7795  0.0959 -2.0858
   59MOL    H43 7119   4.444   4.016   0.637 -0.5028 -1.9136 -0.7054
   59MOL    C44 7120   4.652   4.058   0.693  0.5868  0.3528 -0.6737
   59MOL    C45 7121   4.652   3.996   0.830 -0.8034  0.0449  0.0194
   59MOL    F46 7122   4.762   4.020   0.898 -0.1014  0.6480  0.3078
   59MOL    H47 7123   4.747   4.042   0.642 -0.1046  0.4974 -2.0334
   59MOL    H48 7124   4.638   4.164   0.715  1.1692  0.2530  0.1998
   59MOL    H49 7125   4.659   3.888   0.813  2.6476  0.4425 -1.6099
   59MOL    C50 7126   4.531   4.050   0.915 -0.6561  0.0566 -0.1886
   59MOL    C51 7127   4.520   3.997   1.063  0.1356 -0.3994  0.1843
   59MOL    F52 7128   4.612   4.064   1.121 -0.2199  0.4436 -0.1185
   59MOL    H53 7129   4.540   4.158   0.921 -0.8278  0.1151 -0.8745
   59MOL    H54 7130   4.435   4.030   0.867  0.2662 -1.2958 -1.5235
   59MOL    H55 7131   4.552   3.893   1.070  1.5495  0.0038 -0.1815
   59MOL    C56 7132   4.392   4.030   1.133  0.0936 -0.6667  0.1962
   59MOL    C57 7133   4.286   3.930   1.074 -0.4811 -0.0701 -0.1009
   59MOL    F58 7134   4.327   3.803   1.097 -0.0878  0.0956 -0.0622
   59MOL    H59 7135   4.404   3.997   1.236  2.3252 -1.7099 -0.3813
   59MOL    H60 7136   4.365   4.134   1.114  0.8537 -0.5644 -0.3258
   59MOL    H61 7137   4.275   3.920   0.966 -0.1953  0.9732 -0.2255
   59MOL    C62 7138   4.150   3.962   1.131 -0.1416 -0.4592 -0.3864
   59MOL    C63 7139   4.028   3.885   1.080  0.0395  0.0333  0.0459
   59MOL    F64 7140   3.926   3.903   1.159  0.0754 -0.3382  0.5893
   59MOL    H65 7141   4.151   3.936   1.237  0.0653 -1.3503 -0.6034
   59MOL    H66 7142   4.132   4.068   1.111 -1.6328 -0.3509  1.3734
   59MOL    H67 7143   4.053   3.779   1.073 -0.7447 -0.0206 -2.6923
   59MOL    C68 7144   3.974   3.924   0.942  0.3048 -1.0998  0.2143
   59MOL    C69 7145   3.854   3.827   0.900  0.2190  0.7867 -0.2653
   59MOL    F70 7146   3.739   3.874   0.946 -0.1094 -0.0860 -0.0502
   59MOL    H71 7147   3.932   4.024   0.929  1.4714 -0.3425  2.0054
   59MOL    H72 7148   4.057   3.929   0.872  0.1467  1.0945  0.1314
   59MOL    H73 7149   3.872   3.730   0.946  0.7875  2.2271  2.6864
   59MOL    C74 7150   3.842   3.809   0.748  0.4405 -0.2573 -0.6223
   59MOL    C75 7151   3.735   3.694   0.724  0.5284 -0.0281  0.2588
   59MOL    F76 7152   3.611   3.748   0.747 -0.3222  0.0668  0.3773
   59MOL    H77 7153   3.806   3.899   0.698  0.1051 -1.2334 -2.1596
   59MOL    H78 7154   3.940   3.795   0.701  0.5226  1.2110 -0.9215
   59MOL    H79 7155   3.746   3.605   0.786  1.1331 -1.1494 -1.4285
   59MOL    C80 7156   3.736   3.645   0.575 -0.2264  0.1804  0.5182
   59MOL    C81 7157   3.873   3.585   0.537 -0.0440  0.0327 -0.4753
   59MOL    F82 7158   3.928   3.506   0.631  0.3150 -0.4839 -0.0361
   59MOL    H83 7159   3.652   3.576   0.569  0.1462 -0.2163 -0.1884
   59MOL    H84 7160   3.709   3.727   0.509 -2.5293 -0.3477  0.7872
   59MOL    H85 7161   3.940   3.670   0.524  0.6880 -0.0756  2.3682
   59MOL    C86 7162   3.864   3.505   0.401  0.0642 -0.0416  0.3540
   59MOL    C87 7163   3.996   3.517   0.314  0.4000 -0.6060 -0.5454
   59MOL    F88 7164   4.096   3.478   0.394 -0.5587  0.1764  0.1714
   59MOL    H89 7165   3.844   3.403   0.431 -1.1087 -0.7222 -2.5601
   59MOL    H90 7166   3.779   3.548   0.347  1.5086  1.8858 -0.4482
   59MOL    H91 7167   4.009   3.622   0.290  0.9309 -0.3498  0.8099
   59MOL    C92 7168   3.983   3.434   0.188 -1.0739 -0.0936  0.1203
   59MOL    C93 7169   3.989   3.285   0.194 -0.3715  0.3765 -0.2095
   59MOL    F94 7170   3.878   3.233   0.246 -0.1370  0.0301 -0.0612
   59MOL    H95 7171   3.900   3.475   0.130 -1.4105 -2.8576 -1.4282
   59MOL    H96 7172   4.071   3.466   0.132  0.0494 -2.2624  0.5980
   59MOL    H97 7173   4.070   3.245   0.255 -2.6872 -3.5953  0.4531
   59MOL    C98 7174   4.021   3.209   0.061 -0.2202 -0.0050  0.2781
   59MOL    C99 7175   3.902   3.230   7.965 -0.1524  0.0423  0.8924
   59MOL   F100 7176   3.928   3.341   7.900 -0.1610  0.0039  0.1292
   59MOL   H101 7177   4.121   3.232   0.027 -0.4412 -1.6930 -1.6149
   59MOL   H102 7178   4.028   3.105   0.092  3.1136  0.2897  0.6788
   59MOL   H103 7179   3.803   3.229   0.006 -0.5144  1.7716  0.1422
   59MOL   C104 7180   3.907   3.121   7.850  0.3371 -0.0787  0.3372
   59MOL   C105 7181   3.806   3.140   7.735 -0.4788  0.0019  0.4713
   59MOL   F106 7182   3.848   3.058   7.643 -0.5672 -0.0073  0.4459
   59MOL   H107 7183   4.008   3.133   7.810  0.3866 -3.1677 -0.5721
   59MOL   H108 7184   3.901   3.016   7.877 -2.4762  0.0342  0.2581
   59MOL   H109 7185   3.807   3.239   7.689 -3.9706  0.1526  0.6056
   59MOL   C110 7186   3.664   3.092   7.768 -0.4792  0.1448  0.7104
   59MOL   C111 7187   3.555   3.070   7.663 -0.0156  0.7433  0.1256
   59MOL   F112 7188   3.595   2.973   7.585 -0.8798  0.3083  0.4068
   59MOL   H113 7189   3.678   3.000   7.825 -1.7528 -1.7385 -1.9031
   59MOL   H114 7190   3.627   3.154   7.850 -1.9959  1.5923 -1.0298
   59MOL   H115 7191   3.545   3.157   7.598 -1.9844  0.3560 -0.1144
   59MOL   C116 7192   3.418   3.031   7.703  0.9384  0.4000 -0.2877
   59MOL   C117 7193   3.314   3.043   7.584 -0.2264  0.3049  0.0676
   59MOL   F118 7194   3.191   3.012   7.616  0.2217  0.0678 -0.2153
   59MOL   H119 7195   3.426   2.927   7.735  0.6531  0.1873 -0.8937
   59MOL   H120 7196   3.381   3.091   7.786  2.7376  0.5384  0.4376
   59MOL   H121 7197   3.339   2.993   7.491  0.5833  0.5959  0.1198
   59MOL   H122 7198   3.301   3.149   7.561 -2.9648  0.0904  0.5432
   60MOL     C1 7199   0.551   7.046   0.525 -0.1305  0.3932 -0.8018
   60MOL     C2 7200   0.598   7.099   0.658  0.0184 -0.1677 -0.0964
   60MOL     F3 7201   0.662   7.216   0.633  0.3217  0.0842  0.4294
   60MOL     H4 7202   0.630   7.018   0.455  0.4855 -1.0888  0.4556
   60MOL     H5 7203   0.480   7.119   0.487  0.1349  1.0009 -0.1386
   60MOL     H6 7204   0.684   7.036   0.682  0.3172 -0.1753 -1.1843
   60MOL     H7 7205   0.497   6.953   0.546  1.6151  0.2962  3.7864
   60MOL     C8 7206   0.488   7.110   0.770 -0.4576 -0.5470  1.0075
   60MOL     C9 7207   0.543   7.195   0.895 -0.7203  0.2623  0.0433
   60MOL    F10 7208   0.663   7.160   0.947 -0.1188  0.1695 -0.5628
   60MOL    H11 7209   0.398   7.152   0.724  0.6470  2.0131  1.1500
   60MOL    H12 7210   0.451   7.013   0.804  2.4661 -3.2852 -3.1926
   60MOL    H13 7211   0.473   7.169   0.975 -0.6208 -0.3564 -0.0718
   60MOL    C14 7212   0.549   7.347   0.863  0.2008 -0.0380  0.1408
   60MOL    C15 7213   0.565   7.443   0.973  0.0784 -0.0629  0.0753
   60MOL    F16 7214   0.557   7.569   0.925  0.2014 -0.1496 -0.0713
   60MOL    H17 7215   0.626   7.370   0.789  0.1842  0.4507  0.2727
   60MOL    H18 7216   0.455   7.381   0.818 -2.0886 -3.0415  2.4118
   60MOL    H19 7217   0.670   7.430   1.000  0.0132 -2.6085 -0.7962
   60MOL    C20 7218   0.466   7.444   1.090  0.0893  0.3434 -0.2418
   60MOL    C21 7219   0.508   7.541   1.204  0.0521 -0.1442  0.8211
   60MOL    F22 7220   0.409   7.548   1.296  0.4937 -0.0912  0.0274
   60MOL    H23 7221   0.367   7.471   1.054  0.7393  2.0729 -0.8215
   60MOL    H24 7222   0.469   7.342   1.127 -1.2223 -0.7986 -3.1387
   60MOL    H25 7223   0.508   7.641   1.161  1.2426 -0.2683  0.5177
   60MOL    C26 7224   0.637   7.505   1.279  0.4627 -0.4707 -0.2179
   60MOL    C27 7225   0.671   7.574   1.412  0.7071 -0.1497 -0.6159
   60MOL    F28 7226   0.780   7.510   1.445  0.3442  0.0055 -0.0790
   60MOL    H29 7227   0.641   7.397   1.295 -2.7278 -0.9540 -2.2118
   60MOL    H30 7228   0.716   7.526   1.206  0.5301 -0.0910 -0.0367
   60MOL    H31 7229   0.599   7.552   1.490  0.9145  1.4005  0.0317
   60MOL    C32 7230   0.722   7.721   1.402  0.2031  0.5161 -0.6942
   60MOL    C33 7231   0.610   7.826   1.402 -1.0506 -0.4442 -0.3307
   60MOL    F34 7232   0.545   7.831   1.521 -0.2378 -0.3305 -0.3042
   60MOL    H35 7233   0.784   7.736   1.490  1.4942  1.4411 -1.7500
   60MOL    H36 7234   0.784   7.731   1.314  1.0166  0.2592 -0.1510
   60MOL    H37 7235   0.531   7.802   1.331 -3.7734  1.6232  1.8902
   60MOL    C38 7236   0.658   7.973   1.375  0.2445 -0.1739  0.4651
   60MOL    C39 7237   0.743   0.035   1.485 -0.2160  0.1749  0.2226
   60MOL    F40 7238   0.867   7.983   1.481 -1.3292 -0.0505 -0.5345
   60MOL    H41 7239   0.713   7.987   1.282 -0.1005  0.4703  0.3545
   60MOL    H42 7240   0.564   0.023   1.358  0.2313  0.3336  1.9835
   60MOL    H43 7241   0.699   0.010   1.582  2.0917  1.0529  1.5349
   60MOL    C44 7242   0.760   0.188   1.472  0.0627  0.1061 -0.0453
   60MOL    C45 7243   0.629   0.272   1.493 -0.5806  0.5083  1.0659
   60MOL    F46 7244   0.586   0.239   1.614 -0.0283 -0.8948  0.2108
   60MOL    H47 7245   0.822   0.223   1.554  0.0617 -0.2171  0.0958
   60MOL    H48 7246   0.824   0.211   1.386  1.1054 -0.0912  0.6779
   60MOL    H49 7247   0.548   0.245   1.425  0.6656 -1.0139  0.1484
   60MOL    C50 7248   0.663   0.421   1.482  0.0096 -0.2235 -0.6485
   60MOL    C51 7249   0.556   0.525   1.529 -0.5079 -0.3229  0.1968
   60MOL    F52 7250   0.624   0.638   1.533 -0.0153 -0.0169  0.6687
   60MOL    H53 7251   0.743   0.425   1.556 -0.7402 -1.9369  0.2805
   60MOL    H54 7252   0.695   0.444   1.380  3.2393 -0.2855  0.2681
   60MOL    H55 7253   0.508   0.506   1.625 -0.2839  0.3061  0.4315
   60MOL    C56 7254   0.429   0.540   1.429 -1.1410 -0.4861 -0.1918
   60MOL    C57 7255   0.329   0.651   1.471 -0.1950  0.1019 -0.4033
   60MOL    F58 7256   0.249   0.681   1.366 -0.2845 -0.6210  0.4507
   60MOL    H59 7257   0.466   0.583   1.336  1.6083 -1.1834  0.5325
   60MOL    H60 7258   0.378   0.445   1.416  0.7266 -1.5380 -0.0678
   60MOL    H61 7259   0.377   0.742   1.506  0.7267 -1.5654  2.8075
   60MOL    C62 7260   0.226   0.611   1.580 -0.2456 -0.2611  0.0781
   60MOL    C63 7261   0.142   0.724   1.649  0.1133 -0.0772  0.2332
   60MOL    F64 7262   0.220   0.821   1.693 -0.1542 -0.4927  0.1148
   60MOL    H65 7263   0.168   0.524   1.547  0.1282  0.1798 -1.8052
   60MOL    H66 7264   0.280   0.573   1.666 -2.1723 -1.5122  0.7780
   60MOL    H67 7265   0.090   0.697   1.741  0.9699  0.3847  0.8595
   60MOL    C68 7266   0.037   0.785   1.560  0.0680 -0.0793  0.2626
   60MOL    C69 7267   7.921   0.690   1.548 -0.2291  0.9974  0.1522
   60MOL    F70 7268   7.857   0.671   1.656  0.2071 -0.0438 -0.0616
   60MOL    H71 7269   8.003   0.882   1.594  0.5006 -0.2079  1.1244
   60MOL    H72 7270   0.076   0.804   1.460  0.5670 -0.6397  0.3509
   60MOL    H73 7271   7.949   0.591   1.512  0.5020  1.9982 -2.1174
   60MOL    C74 7272   7.805   0.733   1.456 -0.0876 -0.4429  0.4822
   60MOL    C75 7273   7.733   0.612   1.394 -0.3691  0.1932  0.0023
   60MOL    F76 7274   7.813   0.515   1.346  0.1152  0.3171  0.0844
   60MOL    H77 7275   7.738   0.811   1.494 -0.7230 -0.6473 -0.2118
   60MOL    H78 7276   7.853   0.782   1.371 -0.8458 -0.6658 -0.0739
   60MOL    H79 7277   7.679   0.632   1.301  0.5830  4.7892  0.3180
   60MOL    C80 7278   7.634   0.548   1.496  0.1545  0.1853  0.3450
   60MOL    C81 7279   7.506   0.633   1.518 -0.0289  0.3221 -0.1124
   60MOL    F82 7280   7.456   0.671   1.400  0.0366  0.0754 -0.4282
   60MOL    H83 7281   7.611   0.452   1.451 -2.5203  0.0636  1.9004
   60MOL    H84 7282   7.687   0.510   1.584  2.0654 -2.7751 -1.9721
   60MOL    H85 7283   7.534   0.726   1.568  1.2067 -0.0329 -0.1435
   60MOL    C86 7284   7.398   0.562   1.597  0.4702 -0.1527 -0.4266
   60MOL    C87 7285   7.271   0.644   1.626 -0.1947 -0.6180  0.0526
   60MOL    F88 7286   7.198   0.572   1.704 -0.3791 -0.7089 -0.6382
   60MOL    H89 7287   7.364   0.475   1.541  1.4843 -1.1865  0.5270
   60MOL    H90 7288   7.430   0.518   1.691  0.5786  0.5791 -0.1197
   60MOL    H91 7289   7.224   0.667   1.530 -1.4458 -0.2224  0.7376
   60MOL    C92 7290   7.309   0.763   1.710 -0.3350  0.3305  0.1852
   60MOL    C93 7291   7.187   0.846   1.765 -0.7776  0.0826 -0.4536
   60MOL    F94 7292   7.249   0.921   1.858  0.3658  0.3083 -0.0071
   60MOL    H95 7293   7.371   0.733   1.794 -0.4536 -2.7753 -0.7731
   60MOL    H96 7294   7.371   0.825   1.646 -0.1696 -2.5669 -2.5924
   60MOL    H97 7295   7.112   0.789   1.820 -0.3871 -2.2650 -2.3049
   60MOL    C98 7296   7.112   0.932   1.655 -0.3279  0.3727  0.0003
   60MOL    C99 7297   6.976   0.995   1.695 -0.7338  0.4100 -0.1843
   60MOL   F100 7298   6.905   0.913   1.767 -0.3718 -0.0485  0.2978
   60MOL   H101 7299   7.185   1.006   1.623  2.1013 -1.3967  1.2752
   60MOL   H102 7300   7.096   0.862   1.573  0.7054  1.1336 -0.8702
   60MOL   H103 7301   6.926   1.017   1.601 -1.4964  0.8441  0.3061
   60MOL   C104 7302   6.990   1.121   1.781 -0.4983 -0.1358  0.2411
   60MOL   C105 7303   6.856   1.214   1.789 -0.0332 -0.1867  0.1277
   60MOL   F106 7304   6.775   1.169   1.885  0.2320  0.2567 -0.8827
   60MOL   H107 7305   7.006   1.097   1.887 -2.1162  1.3318  0.8388
   60MOL   H108 7306   7.068   1.189   1.746  1.3111 -2.2436  0.0616
   60MOL   H109 7307   6.809   1.205   1.691 -0.4852 -2.7401  0.5448
   60MOL   C110 7308   6.880   1.358   1.834 -0.5340  0.1089  0.8280
   60MOL   C111 7309   6.946   1.439   1.724 -0.8094 -0.2506  0.0580
   60MOL   F112 7310   6.882   1.436   1.604 -0.1025 -0.0563  0.0753
   60MOL   H113 7311   6.785   1.402   1.866  1.5163  4.3965  1.3162
   60MOL   H114 7312   6.946   1.348   1.920 -0.7074  1.7574  1.1582
   60MOL   H115 7313   7.041   1.386   1.716 -0.5726  0.3910 -1.5750
   60MOL   C116 7314   6.971   1.588   1.755  0.6515 -0.5801 -0.4391
   60MOL   C117 7315   7.046   1.657   1.644 -1.1417 -0.1231 -0.1922
   60MOL   F118 7316   6.970   1.685   1.541 -0.3006 -0.6404 -0.1922
   60MOL   H119 7317   6.887   1.639   1.801  3.2052  0.8859  2.7504
   60MOL   H120 7318   7.040   1.577   1.839 -1.6924 -0.9545  1.5125
   60MOL   H121 7319   7.129   1.596   1.609  0.1578  0.6422  1.4713
   60MOL   H122 7320   7.093   1.749   1.679  1.0702 -1.4812  0.5213
   61MOL     C1 7321   2.878   3.896   2.842  0.2996  0.9977  0.1532
   61MOL     C2 7322   2.739   3.864   2.780 -0.9244  0.0465 -0.2209
   61MOL     F3 7323   2.689   3.785   2.876  0.2546  0.2049 -0.1242
   61MOL     H4 7324   2.853   3.964   2.923 -0.2322  1.8068 -0.6774
   61MOL     H5 7325   2.932   3.961   2.773  0.1830  1.7610  0.7854
   61MOL     H6 7326   2.744   3.803   2.690 -0.2137  0.6700 -0.6116
   61MOL     H7 7327   2.932   3.811   2.885 -0.1945  0.0280 -1.1052
   61MOL     C8 7328   2.645   3.982   2.752 -0.0733  0.0433  0.0503
   61MOL     C9 7329   2.520   3.941   2.667  0.3375 -0.4365 -0.8112
   61MOL    F10 7330   2.459   3.850   2.743  0.4109 -0.4193 -0.2920
   61MOL    H11 7331   2.614   4.008   2.853 -1.1739 -2.5068  0.4105
   61MOL    H12 7332   2.697   4.061   2.698  0.5908 -0.0055  0.6127
   61MOL    H13 7333   2.557   3.883   2.583 -0.1984  1.2761 -2.2587
   61MOL    C14 7334   2.424   4.056   2.632  0.4521  0.2819 -0.2677
   61MOL    C15 7335   2.293   4.010   2.562  0.1087  0.0296 -0.0259
   61MOL    F16 7336   2.193   3.973   2.644  0.3515  0.1979  0.1152
   61MOL    H17 7337   2.393   4.113   2.720 -1.9085  0.3492 -1.1181
   61MOL    H18 7338   2.470   4.121   2.557  0.3397 -0.0261 -0.6028
   61MOL    H19 7339   2.312   3.920   2.503  1.4427  1.6301 -2.1267
   61MOL    C20 7340   2.229   4.122   2.469  0.2803  0.5055 -0.9567
   61MOL    C21 7341   2.106   4.070   2.386  0.2138 -0.0893  0.6903
   61MOL    F22 7342   2.004   4.042   2.468 -0.0800 -0.3631  0.0217
   61MOL    H23 7343   2.212   4.206   2.537  1.3877  0.0998 -0.1572
   61MOL    H24 7344   2.312   4.155   2.407  0.5513  2.5247  0.4258
   61MOL    H25 7345   2.136   3.975   2.341 -0.0716  0.1326  0.0316
   61MOL    C26 7346   2.057   4.164   2.269  0.4127 -0.0246  0.3321
   61MOL    C27 7347   2.002   4.296   2.309 -0.1526  0.0972  0.2938
   61MOL    F28 7348   2.108   4.374   2.330 -0.1519  0.4322 -0.3115
   61MOL    H29 7349   2.126   4.175   2.186 -1.4897 -2.2964 -1.6384
   61MOL    H30 7350   1.965   4.121   2.229 -0.5302  0.7226  1.6558
   61MOL    H31 7351   1.950   4.277   2.403 -2.2935 -2.6548 -1.3689
   61MOL    C32 7352   1.905   4.370   2.208  0.1782  0.1939  0.4091
   61MOL    C33 7353   1.972   4.431   2.080 -0.7256 -0.5621  0.0417
   61MOL    F34 7354   2.042   4.337   2.019 -1.0017  0.4095 -0.1481
   61MOL    H35 7355   1.816   4.311   2.182  1.1344 -0.0132 -2.6481
   61MOL    H36 7356   1.861   4.452   2.264 -0.1555  1.9795 -2.3699
   61MOL    H37 7357   2.048   4.503   2.110 -0.0766 -0.9832 -0.5465
   61MOL    C38 7358   1.866   4.478   1.982  0.2954  0.3639  0.4083
   61MOL    C39 7359   1.833   4.622   2.023 -0.1036  0.0694 -0.1415
   61MOL    F40 7360   1.924   4.700   1.972  0.4234  0.4232 -0.0361
   61MOL    H41 7361   1.913   4.482   1.884 -0.8133 -1.0865 -0.2054
   61MOL    H42 7362   1.780   4.410   1.989  0.5125  0.2335  1.9313
   61MOL    H43 7363   1.825   4.633   2.131  1.9418 -0.4621  0.0809
   61MOL    C44 7364   1.702   4.678   1.952 -0.7285  0.6443  0.1852
   61MOL    C45 7365   1.641   4.799   2.014 -0.1348  0.4251 -0.1548
   61MOL    F46 7366   1.593   4.750   2.130 -0.0875  0.4077 -0.1572
   61MOL    H47 7367   1.730   4.692   1.848 -2.0702  1.3663 -0.0854
   61MOL    H48 7368   1.630   4.596   1.946  1.2003 -0.9888 -1.4527
   61MOL    H49 7369   1.544   4.819   1.970 -0.1531  2.6517  0.8344
   61MOL    C50 7370   1.720   4.924   2.032  0.1924 -0.1432  0.3881
   61MOL    C51 7371   1.752   4.989   1.899 -0.7193 -0.5727  0.2912
   61MOL    F52 7372   1.650   4.987   1.809 -0.0268 -0.5040 -0.3662
   61MOL    H53 7373   1.658   4.987   2.096 -1.0258  0.1270 -1.0337
   61MOL    H54 7374   1.815   4.908   2.083  0.0969  0.0439  0.6255
   61MOL    H55 7375   1.826   4.917   1.865 -0.8622 -1.5514  2.0052
   61MOL    C56 7376   1.822   5.130   1.898  0.4391  0.0342 -0.6481
   61MOL    C57 7377   1.975   5.131   1.928 -0.2000 -0.3812  0.6500
   61MOL    F58 7378   2.041   5.026   1.871 -0.1410 -0.2439 -0.0675
   61MOL    H59 7379   1.819   5.149   1.791  0.8821 -0.9272 -0.8434
   61MOL    H60 7380   1.766   5.206   1.952  1.1065 -0.9304  1.4711
   61MOL    H61 7381   1.984   5.114   2.036  0.6792 -2.5181  0.2759
   61MOL    C62 7382   2.038   5.265   1.880  0.4480  0.1230 -0.3923
   61MOL    C63 7383   2.196   5.268   1.874 -0.1090 -1.2412  0.0494
   61MOL    F64 7384   2.232   5.378   1.809  0.2665 -0.4302 -0.1761
   61MOL    H65 7385   1.998   5.291   1.782 -1.2816 -2.6102 -0.4789
   61MOL    H66 7386   2.003   5.343   1.948  0.6851  2.3311 -2.7348
   61MOL    H67 7387   2.232   5.197   1.800  2.4034  0.8695 -0.8421
   61MOL    C68 7388   2.272   5.245   2.013 -0.1685 -0.6546  0.0229
   61MOL    C69 7389   2.270   5.362   2.117 -0.0742  0.0067 -0.0248
   61MOL    F70 7390   2.309   5.322   2.242 -0.0640 -0.3402  0.6742
   61MOL    H71 7391   2.221   5.163   2.064 -0.9611  0.8851  1.7676
   61MOL    H72 7392   2.371   5.206   1.988 -0.0042  0.0063 -0.3511
   61MOL    H73 7393   2.168   5.398   2.135  0.6467  2.3504 -0.5081
   61MOL    C74 7394   2.359   5.484   2.078  0.4322  0.0767 -0.0829
   61MOL    C75 7395   2.356   5.605   2.171  0.4223  0.5749 -0.2688
   61MOL    F76 7396   2.433   5.583   2.278  0.2021  0.1745  0.5465
   61MOL    H77 7397   2.462   5.458   2.056  0.8775  0.1496  1.8448
   61MOL    H78 7398   2.318   5.524   1.985  2.7056  0.0680 -1.1276
   61MOL    H79 7399   2.253   5.608   2.206  0.0075 -2.0315 -1.1583
   61MOL    C80 7400   2.396   5.745   2.110  1.0252  0.5738 -0.3245
   61MOL    C81 7401   2.312   5.794   1.987  0.2407  0.1716  0.2198
   61MOL    F82 7402   2.188   5.783   2.033 -0.3239 -0.2466  0.4069
   61MOL    H83 7403   2.392   5.817   2.192 -1.7422 -1.8451  1.7810
   61MOL    H84 7404   2.497   5.746   2.072  1.3547  0.5755  0.5334
   61MOL    H85 7405   2.320   5.730   1.899  0.2495  0.9837 -0.3764
   61MOL    C86 7406   2.346   5.936   1.940 -0.1330 -0.1979 -0.2569
   61MOL    C87 7407   2.419   5.932   1.806 -0.3777  0.1398  0.2530
   61MOL    F88 7408   2.335   5.887   1.719  0.0177  0.3546 -0.0239
   61MOL    H89 7409   2.252   5.992   1.946  0.0382  0.0801 -0.1427
   61MOL    H90 7410   2.411   5.979   2.016 -1.6215  0.4133  0.7054
   61MOL    H91 7411   2.510   5.877   1.832 -0.0497  2.0426  3.4339
   61MOL    C92 7412   2.447   6.080   1.764  0.6850 -0.4043 -0.2205
   61MOL    C93 7413   2.533   6.100   1.636  1.2604 -0.4566 -0.0980
   61MOL    F94 7414   2.543   6.225   1.591 -0.1198 -0.1685 -0.2792
   61MOL    H95 7415   2.362   6.148   1.764  1.8269  1.0542  0.7004
   61MOL    H96 7416   2.507   6.119   1.846 -0.8800  0.5366  0.5037
   61MOL    H97 7417   2.481   6.055   1.551  0.4584 -0.0241  0.1623
   61MOL    C98 7418   2.679   6.049   1.635 -0.4014  0.6017 -0.2499
   61MOL    C99 7419   2.779   6.122   1.718 -0.4156  0.1474  0.1245
   61MOL   F100 7420   2.741   6.119   1.847 -0.1438 -1.0945  0.0719
   61MOL   H101 7421   2.692   5.943   1.656 -1.7368  0.1806 -1.4694
   61MOL   H102 7422   2.711   6.048   1.531 -3.2799  0.0699 -1.1733
   61MOL   H103 7423   2.777   6.228   1.691  1.5552  0.4673  1.1352
   61MOL   C104 7424   2.921   6.057   1.715 -0.1227 -0.4813  0.1517
   61MOL   C105 7425   3.032   6.124   1.804  0.2020  0.1986  0.3110
   61MOL   F106 7426   3.139   6.042   1.819 -0.1111 -0.1860  0.0279
   61MOL   H107 7427   2.919   5.952   1.741  2.5656 -0.5895  0.0696
   61MOL   H108 7428   2.963   6.053   1.615  0.8406  1.8493  0.4244
   61MOL   H109 7429   2.980   6.119   1.899 -2.5243 -0.5747 -1.1678
   61MOL   C110 7430   3.078   6.264   1.751 -0.1677  0.6152  0.0415
   61MOL   C111 7431   3.169   6.268   1.625 -0.6342 -0.1943  0.5809
   61MOL   F112 7432   3.112   6.222   1.518  0.3861 -0.5135 -0.2847
   61MOL   H113 7433   2.986   6.321   1.737 -2.0649 -2.3480 -0.2451
   61MOL   H114 7434   3.129   6.317   1.831  0.9618  2.7938 -2.0676
   61MOL   H115 7435   3.247   6.198   1.656 -0.4750  0.1025  0.8448
   61MOL   C116 7436   3.214   6.411   1.594 -0.3223  0.0323 -0.5413
   61MOL   C117 7437   3.316   6.417   1.479  0.2026 -0.6362 -0.4642
   61MOL   F118 7438   3.366   6.540   1.459 -0.2704 -0.0340 -0.0384
   61MOL   H119 7439   3.129   6.477   1.575 -1.3687 -1.0201  0.3303
   61MOL   H120 7440   3.269   6.454   1.678 -2.6584 -0.0165  1.0625
   61MOL   H121 7441   3.264   6.388   1.388  2.1632 -2.9140 -0.9095
   61MOL   H122 7442   3.392   6.339   1.491  2.0548  1.1122 -0.5078
   62MOL     C1 7443   2.701   6.878   3.928 -0.4185 -0.5634 -0.4968
   62MOL     C2 7444   2.756   6.897   4.068  0.3941 -0.4525 -0.7724
   62MOL     F3 7445   2.751   6.771   4.121  0.4377  0.1890 -0.0073
   62MOL     H4 7446   2.743   6.797   3.869  0.8856 -2.4940  2.9971
   62MOL     H5 7447   2.723   6.964   3.865  1.8766 -1.1760 -0.5787
   62MOL     H6 7448   2.701   6.975   4.121  2.2869  1.5635 -1.7212
   62MOL     H7 7449   2.594   6.856   3.928 -0.8856  1.5794 -0.3118
   62MOL     C8 7450   2.900   6.941   4.065 -0.2268  0.2620  0.5505
   62MOL     C9 7451   2.981   6.946   4.201  0.0128  0.1533 -0.0736
   62MOL    F10 7452   2.913   7.026   4.286 -0.0712  0.5725  0.3985
   62MOL    H11 7453   2.947   6.877   3.990 -3.0731 -2.3141  0.8687
   62MOL    H12 7454   2.893   7.040   4.020  1.0097 -0.6576 -1.7300
   62MOL    H13 7455   3.079   6.981   4.168 -0.0745 -0.9348 -1.5228
   62MOL    C14 7456   3.006   6.803   4.267 -0.2398 -0.7885  0.0321
   62MOL    C15 7457   3.070   6.702   4.169  0.3276 -0.5239 -0.2507
   62MOL    F16 7458   3.182   6.751   4.122  0.2586  0.0880  0.4411
   62MOL    H17 7459   3.074   6.809   4.352  1.6142  0.8685 -1.5134
   62MOL    H18 7460   2.908   6.761   4.289  0.7523 -3.6655 -0.8389
   62MOL    H19 7461   3.007   6.703   4.080 -2.4313  0.8907  1.6360
   62MOL    C20 7462   3.098   6.558   4.228  0.2548  0.3443  0.1481
   62MOL    C21 7463   3.169   6.453   4.134  0.2714  0.0441 -0.2401
   62MOL    F22 7464   3.196   6.347   4.207  0.3091 -0.0514  0.3456
   62MOL    H23 7465   3.146   6.565   4.325  0.5542 -0.8255  0.0895
   62MOL    H24 7466   3.003   6.520   4.266 -0.4081 -0.3231 -2.1024
   62MOL    H25 7467   3.267   6.492   4.108  0.6509  0.3111  1.4918
   62MOL    C26 7468   3.099   6.415   3.995  0.0481 -0.2280 -0.6538
   62MOL    C27 7469   2.953   6.362   4.008 -0.3723  0.7357 -0.1021
   62MOL    F28 7470   2.868   6.457   4.044 -0.0636  0.3706  0.0300
   62MOL    H29 7471   3.113   6.503   3.932 -1.1616 -0.3942 -1.1553
   62MOL    H30 7472   3.155   6.335   3.946  0.4620 -0.6001  0.4140
   62MOL    H31 7473   2.935   6.280   4.078 -2.1862  1.3836  0.2238
   62MOL    C32 7474   2.899   6.314   3.871 -0.2133  0.3701  0.3416
   62MOL    C33 7475   2.751   6.264   3.872 -0.2012 -0.3875  0.3459
   62MOL    F34 7476   2.707   6.257   3.742 -0.1415  0.4321  0.4624
   62MOL    H35 7477   2.911   6.386   3.790  0.4501 -1.2209 -1.0034
   62MOL    H36 7478   2.957   6.231   3.832 -0.6885 -0.3709  1.1764
   62MOL    H37 7479   2.701   6.349   3.919  1.1380 -0.4700  1.9423
   62MOL    C38 7480   2.713   6.124   3.947  0.2106 -0.0652  0.0277
   62MOL    C39 7481   2.565   6.118   3.971 -0.5191 -0.5452  0.1827
   62MOL    F40 7482   2.540   5.994   4.001 -0.7665  0.2075 -0.2389
   62MOL    H41 7483   2.748   6.044   3.882  0.0576 -2.0615  2.3362
   62MOL    H42 7484   2.755   6.127   4.047 -1.7560 -1.1462  0.9092
   62MOL    H43 7485   2.505   6.130   3.881 -0.2414  2.8866  0.3791
   62MOL    C44 7486   2.515   6.209   4.087  0.7539 -0.7461  0.1516
   62MOL    C45 7487   2.357   6.234   4.101  0.1317 -0.0687 -0.1286
   62MOL    F46 7488   2.315   6.108   4.102 -0.3734  0.0080  0.7128
   62MOL    H47 7489   2.541   6.160   4.181 -2.3952 -3.2040 -0.1864
   62MOL    H48 7490   2.563   6.307   4.083 -1.5436  0.4658  1.1562
   62MOL    H49 7491   2.300   6.287   4.024 -2.0983 -0.8301  0.9302
   62MOL    C50 7492   2.310   6.309   4.223  0.3576  0.1895 -0.4786
   62MOL    C51 7493   2.159   6.302   4.249  0.0524 -0.1346  0.2628
   62MOL    F52 7494   2.125   6.185   4.301  0.2546  0.0197  0.4542
   62MOL    H53 7495   2.353   6.256   4.308 -0.6509 -2.2839 -1.4460
   62MOL    H54 7496   2.349   6.410   4.228  2.5245 -0.6535  0.1194
   62MOL    H55 7497   2.092   6.319   4.165 -0.6115  0.3645  0.8768
   62MOL    C56 7498   2.127   6.407   4.351 -0.4156 -0.1649  0.6974
   62MOL    C57 7499   1.978   6.407   4.386  0.0735 -0.6866 -0.0652
   62MOL    F58 7500   1.974   6.471   4.503  0.5151 -0.0844 -0.2475
   62MOL    H59 7501   2.177   6.394   4.447  0.1979 -0.9573  0.2701
   62MOL    H60 7502   2.159   6.506   4.317 -1.9758  0.6741  1.5568
   62MOL    H61 7503   1.945   6.305   4.404 -1.3355  0.0197  1.4782
   62MOL    C62 7504   1.884   6.470   4.290  0.3053  0.6384  0.3268
   62MOL    C63 7505   1.736   6.466   4.319 -0.1126  0.1181  0.7687
   62MOL    F64 7506   1.684   6.346   4.335 -0.1482  0.2145  0.3750
   62MOL    H65 7507   1.909   6.576   4.287 -0.1471  0.7356 -0.0459
   62MOL    H66 7508   1.897   6.438   4.187 -0.4001 -0.0006  0.4321
   62MOL    H67 7509   1.682   6.488   4.226  0.9067  1.3981  0.4639
   62MOL    C68 7510   1.682   6.555   4.436  0.2728  0.4007  0.1810
   62MOL    C69 7511   1.712   6.705   4.425  0.1202  0.5775 -0.0488
   62MOL    F70 7512   1.678   6.750   4.301  0.5490  0.8087  0.0637
   62MOL    H71 7513   1.575   6.531   4.441 -0.0507  1.7355 -0.0794
   62MOL    H72 7514   1.709   6.523   4.537  0.6908 -0.8220 -0.3176
   62MOL    H73 7515   1.820   6.713   4.433  0.1032  0.6221  0.1300
   62MOL    C74 7516   1.627   6.795   4.519  0.5325  0.6239  0.0454
   62MOL    C75 7517   1.669   6.784   4.669  0.3507 -0.3987 -0.4584
   62MOL    F76 7518   1.793   6.824   4.676  0.0459  0.6607 -0.7527
   62MOL    H77 7519   1.626   6.894   4.475 -2.0880  1.5672  2.0798
   62MOL    H78 7520   1.523   6.764   4.510  1.3317 -2.4259  0.8126
   62MOL    H79 7521   1.659   6.680   4.698  0.6420 -0.2679  0.0967
   62MOL    C80 7522   1.585   6.867   4.770 -0.3359 -0.5890 -0.0229
   62MOL    C81 7523   1.623   6.840   4.920 -0.2458 -0.8691  0.4702
   62MOL    F82 7524   1.566   6.941   4.989  0.3835 -0.3968  0.1096
   62MOL    H83 7525   1.607   6.973   4.761 -0.3229 -0.4972  0.9797
   62MOL    H84 7526   1.480   6.858   4.745 -0.8543  0.7348  1.6543
   62MOL    H85 7527   1.727   6.830   4.950 -0.7480 -2.6184  1.7258
   62MOL    C86 7528   1.550   6.717   4.977 -0.1755 -0.5011 -0.0984
   62MOL    C87 7529   1.555   6.700   5.123 -0.0192 -0.4687 -0.0240
   62MOL    F88 7530   1.487   6.589   5.160  0.3755 -0.3779 -0.2705
   62MOL    H89 7531   1.449   6.741   4.946 -0.2118 -0.1955  0.2625
   62MOL    H90 7532   1.589   6.626   4.931 -0.8286  1.0129 -3.8145
   62MOL    H91 7533   1.494   6.775   5.174 -0.6961 -0.7754 -0.3830
   62MOL    C92 7534   1.690   6.690   5.197  0.0686  0.1955 -0.2140
   62MOL    C93 7535   1.745   6.817   5.258 -0.1817 -0.3181  0.4709
   62MOL    F94 7536   1.669   6.860   5.352  0.7666  0.3067 -0.9837
   62MOL    H95 7537   1.694   6.612   5.273  0.5844 -0.0521 -0.4875
   62MOL    H96 7538   1.759   6.641   5.129  1.0619  0.2618  0.7255
   62MOL    H97 7539   1.747   6.903   5.190 -2.2177 -1.0785 -0.5637
   62MOL    C98 7540   1.889   6.806   5.310 -0.1152 -0.7228 -0.2408
   62MOL    C99 7541   1.988   6.920   5.288  0.0601  0.0830  0.6931
   62MOL   F100 7542   1.997   6.962   5.158  0.3473 -0.2232  0.1496
   62MOL   H101 7543   1.873   6.789   5.417  0.7450  0.7989  0.1560
   62MOL   H102 7544   1.928   6.706   5.291 -3.4208 -1.5977 -2.9563
   62MOL   H103 7545   2.090   6.895   5.319  1.6495  1.3518 -3.1764
   62MOL   C104 7546   1.957   7.043   5.380 -0.1225 -0.1576 -0.2648
   62MOL   C105 7547   2.065   7.150   5.363  0.3097  0.6277 -0.0931
   62MOL   F106 7548   2.006   7.259   5.411 -0.1322 -0.2192 -0.2946
   62MOL   H107 7549   1.862   7.090   5.356  0.9496  2.0345 -0.3135
   62MOL   H108 7550   1.941   7.015   5.484  0.1846 -1.3073 -0.5139
   62MOL   H109 7551   2.086   7.175   5.259 -0.6647 -0.2370 -0.5162
   62MOL   C110 7552   2.183   7.113   5.446 -0.4685 -0.1274 -0.2759
   62MOL   C111 7553   2.300   7.209   5.414 -0.3210  0.4421 -0.3411
   62MOL   F112 7554   2.377   7.228   5.521  0.2374  0.0780 -0.6992
   62MOL   H113 7555   2.159   7.133   5.550  0.1166 -1.5711  0.1531
   62MOL   H114 7556   2.219   7.011   5.443  2.3908  0.8436 -0.6182
   62MOL   H115 7557   2.256   7.308   5.401 -0.2383  0.9580  3.0090
   62MOL   C116 7558   2.379   7.176   5.285 -0.0927  0.0823 -0.3877
   62MOL   C117 7559   2.445   7.039   5.291 -0.3485 -0.0301  0.7301
   62MOL   F118 7560   2.360   6.940   5.256 -0.0688 -0.3616  0.0340
   62MOL   H119 7561   2.331   7.195   5.189  0.1781 -1.9451 -0.9533
   62MOL   H120 7562   2.455   7.253   5.270  0.6797 -0.0980  2.3956
   62MOL   H121 7563   2.487   7.019   5.389  0.3045  1.6015  0.7928
   62MOL   H122 7564   2.527   7.024   5.221 -1.2622 -1.4908 -0.0465
   63MOL     C1 7565   3.091   7.886   1.367  0.2608 -0.4639 -0.6821
   63MOL     C2 7566   3.144   7.841   1.498  0.5736 -0.1262 -0.2295
   63MOL     F3 7567   3.071   7.732   1.531  0.0525 -0.0469  0.1793
   63MOL     H4 7568   2.990   7.927   1.371  1.8489  3.7034 -0.6772
   63MOL     H5 7569   3.079   7.807   1.293 -0.1010  0.2085 -1.3465
   63MOL     H6 7570   3.131   7.920   1.573  3.4898 -0.3501  0.5740
   63MOL     H7 7571   3.155   7.968   1.334 -0.2486  0.3496  0.3298
   63MOL     C8 7572   3.287   7.813   1.492 -0.3574 -0.1897 -0.0183
   63MOL     C9 7573   3.340   7.735   1.618 -0.3744  0.0968  0.9218
   63MOL    F10 7574   3.461   7.699   1.603  0.0961 -0.0630 -0.2066
   63MOL    H11 7575   3.312   7.744   1.412  0.3012 -1.0635  0.9298
   63MOL    H12 7576   3.341   7.905   1.473  1.6146 -0.2329  4.6876
   63MOL    H13 7577   3.287   7.641   1.631  2.7235 -1.7483  0.8058
   63MOL    C14 7578   3.347   7.816   1.746 -0.1655 -0.3509 -0.3016
   63MOL    C15 7579   3.385   7.730   1.870 -0.0469 -0.0508 -0.6968
   63MOL    F16 7580   3.519   7.722   1.869  0.1249  0.1900  0.1894
   63MOL    H17 7581   3.412   7.903   1.735 -0.0137 -0.7171 -2.5387
   63MOL    H18 7582   3.246   7.857   1.756 -0.1384  0.0246 -1.5547
   63MOL    H19 7583   3.340   7.631   1.857  1.1597 -0.9094  1.4088
   63MOL    C20 7584   3.354   7.785   2.005 -0.2363 -0.3156  0.1072
   63MOL    C21 7585   3.407   7.932   2.021  0.0165 -0.6497  0.1117
   63MOL    F22 7586   3.323   0.004   1.953  0.1100  0.1325 -0.1529
   63MOL    H23 7587   3.248   7.788   2.030 -0.0002  0.5149  1.0293
   63MOL    H24 7588   3.397   7.713   2.074  1.1526 -1.0786 -1.5280
   63MOL    H25 7589   3.501   7.948   1.968  0.1086  3.2836  1.2421
   63MOL    C26 7590   3.418   7.963   2.169  0.2297  0.7867  0.0089
   63MOL    C27 7591   3.411   0.114   2.194 -0.0860 -0.0298 -0.4215
   63MOL    F28 7592   3.394   0.136   2.330 -0.2978 -0.0767  0.1229
   63MOL    H29 7593   3.330   7.914   2.211  0.0564  1.5472  0.5515
   63MOL    H30 7594   3.503   7.908   2.209 -0.5607 -2.3574 -2.4621
   63MOL    H31 7595   3.325   0.164   2.150  1.6506 -0.1614 -4.2413
   63MOL    C32 7596   3.531   0.193   2.150  0.1047  0.4984 -0.0229
   63MOL    C33 7597   3.521   0.344   2.171  0.4582  0.5013  0.3265
   63MOL    F34 7598   3.645   0.404   2.176 -0.1325  0.1794  0.7270
   63MOL    H35 7599   3.612   0.160   2.215 -1.1512 -1.9497  0.3601
   63MOL    H36 7600   3.557   0.174   2.046  1.4591 -0.5917  0.5096
   63MOL    H37 7601   3.475   0.359   2.269 -2.5884 -1.1064 -0.8102
   63MOL    C38 7602   3.440   0.422   2.066  0.5396 -0.1299  0.3235
   63MOL    C39 7603   3.406   0.569   2.093 -0.7255  0.4315 -0.0723
   63MOL    F40 7604   3.358   0.612   1.982 -0.7383  0.3269 -0.0858
   63MOL    H41 7605   3.501   0.428   1.976 -0.4243 -0.2000 -0.3421
   63MOL    H42 7606   3.353   0.362   2.040 -0.9118  2.1597 -0.1628
   63MOL    H43 7607   3.493   0.629   2.118 -0.4967  0.8540 -1.8262
   63MOL    C44 7608   3.301   0.590   2.206  0.1093  0.0405 -0.3956
   63MOL    C45 7609   3.268   0.740   2.237  1.5450 -0.7828  0.2359
   63MOL    F46 7610   3.210   0.800   2.128 -0.4654 -0.1536 -0.2519
   63MOL    H47 7611   3.206   0.539   2.191  0.4534 -0.9981  0.8313
   63MOL    H48 7612   3.335   0.541   2.297  0.2894  0.3455 -0.2973
   63MOL    H49 7613   3.358   0.797   2.260 -0.3102  0.9672  3.4532
   63MOL    C50 7614   3.163   0.760   2.347 -0.2314 -0.6720  0.2813
   63MOL    C51 7615   3.203   0.724   2.491  0.4214  0.8211  0.3799
   63MOL    F52 7616   3.318   0.784   2.518 -0.2765  0.4826  0.4447
   63MOL    H53 7617   3.146   0.868   2.352  0.2901 -0.5724 -0.0757
   63MOL    H54 7618   3.069   0.713   2.320  0.4867 -1.6406 -0.5884
   63MOL    H55 7619   3.218   0.618   2.513  1.8609  1.1149  0.8500
   63MOL    C56 7620   3.093   0.783   2.586  0.4542  0.0442 -0.1307
   63MOL    C57 7621   3.108   0.744   2.729  0.4869 -0.1027  0.5016
   63MOL    F58 7622   3.115   0.617   2.738 -0.1074 -0.4273  0.0230
   63MOL    H59 7623   3.083   0.891   2.576  1.6555  0.2273  0.6255
   63MOL    H60 7624   2.998   0.753   2.541 -0.4322 -1.6829  2.7542
   63MOL    H61 7625   3.024   0.765   2.794  0.4912 -0.3049  0.5703
   63MOL    C62 7626   3.235   0.802   2.801  0.6284  0.1525 -0.0444
   63MOL    C63 7627   3.273   0.764   2.939 -0.0366 -0.1502  0.2846
   63MOL    F64 7628   3.364   0.851   2.982 -0.2833  0.1003  0.8333
   63MOL    H65 7629   3.327   0.775   2.748  1.7537 -0.0903  1.9933
   63MOL    H66 7630   3.228   0.911   2.802 -1.0751  0.1332 -3.2602
   63MOL    H67 7631   3.318   0.665   2.942 -1.5619 -0.9485 -1.9373
   63MOL    C68 7632   3.161   0.755   3.048  0.2218  0.2995  1.0056
   63MOL    C69 7633   3.199   0.765   3.196  0.1699 -0.1061  0.5088
   63MOL    F70 7634   3.093   0.735   3.267  0.0710 -0.2881  0.3267
   63MOL    H71 7635   3.081   0.827   3.034 -1.6129 -2.0738 -1.2696
   63MOL    H72 7636   3.112   0.660   3.027 -0.8644  1.1649 -0.4276
   63MOL    H73 7637   3.210   0.873   3.214 -2.0188  0.3531 -0.8504
   63MOL    C74 7638   3.322   0.693   3.248 -0.7401  0.1525 -0.3801
   63MOL    C75 7639   3.323   0.543   3.234 -0.2189 -0.5930 -0.7596
   63MOL    F76 7640   3.326   0.503   3.106  0.8429 -0.0250 -0.3480
   63MOL    H77 7641   3.410   0.727   3.193 -0.5104  1.8947  1.0307
   63MOL    H78 7642   3.328   0.725   3.352 -0.0700 -0.4347 -0.2308
   63MOL    H79 7643   3.229   0.510   3.279  0.2121 -0.5354  0.1797
   63MOL    C80 7644   3.447   0.484   3.313  0.3967  0.1910  0.2858
   63MOL    C81 7645   3.465   0.333   3.304 -0.3028 -0.4424  0.4444
   63MOL    F82 7646   3.586   0.313   3.363  0.2536 -0.2580  0.0515
   63MOL    H83 7647   3.532   0.539   3.272 -0.2659  0.4540 -0.7822
   63MOL    H84 7648   3.443   0.512   3.418 -0.0479  0.6304  0.1545
   63MOL    H85 7649   3.479   0.310   3.198 -1.3949  0.6986  0.0297
   63MOL    C86 7650   3.351   0.251   3.371  0.4527  0.3885 -0.0000
   63MOL    C87 7651   3.383   0.100   3.350 -0.1194  0.4599  0.4026
   63MOL    F88 7652   3.309   0.044   3.443 -0.1887 -0.1059  0.1090
   63MOL    H89 7653   3.336   0.278   3.476  0.8944  1.3701 -0.1772
   63MOL    H90 7654   3.252   0.272   3.329 -0.0439 -0.2912  0.8103
   63MOL    H91 7655   3.487   0.078   3.375  0.6596  2.9438 -0.4419
   63MOL    C92 7656   3.338   0.044   3.214 -0.8718  0.6790  0.0425
   63MOL    C93 7657   3.347   7.900   3.197  0.4485 -0.1764 -0.1104
   63MOL    F94 7658   3.277   7.850   3.093 -0.0498 -0.0086  0.3846
   63MOL    H95 7659   3.232   0.071   3.203 -0.9037  2.1130  3.2850
   63MOL    H96 7660   3.390   0.096   3.133 -2.0382  1.1005 -0.4548
   63MOL    H97 7661   3.296   7.845   3.276 -0.5511  0.2371 -0.4565
   63MOL    C98 7662   3.492   7.854   3.200 -0.0242  0.6361  0.1492
   63MOL    C99 7663   3.583   7.904   3.087  0.4299  0.8391 -0.1669
   63MOL   F100 7664   3.628   0.028   3.108 -0.4435  0.4706 -0.0440
   63MOL   H101 7665   3.537   7.875   3.297  0.6742 -0.2279  0.0215
   63MOL   H102 7666   3.479   7.746   3.192  0.6273  0.4375  1.5865
   63MOL   H103 7667   3.527   7.922   2.995 -0.4845 -1.6199 -0.1163
   63MOL   C104 7668   3.711   7.818   3.068 -0.3360  0.4728  0.2718
   63MOL   C105 7669   3.704   7.666   3.015 -0.7313 -0.3311  0.0761
   63MOL   F106 7670   3.631   7.659   2.906  0.4031 -0.2724 -0.1240
   63MOL   H107 7671   3.772   7.875   2.998 -0.8679  0.9909  0.2235
   63MOL   H108 7672   3.769   7.824   3.160 -1.9817 -1.4631  1.4598
   63MOL   H109 7673   3.664   7.605   3.096  0.6787  0.6069  1.5127
   63MOL   C110 7674   3.832   7.597   2.979  0.5015 -0.9477  0.3325
   63MOL   C111 7675   3.808   7.452   2.941 -0.3188  0.8056  0.2369
   63MOL   F112 7676   3.924   7.400   2.902 -0.2840  0.4979  0.2283
   63MOL   H113 7677   3.897   7.646   2.906  1.7027  0.0435  2.0506
   63MOL   H114 7678   3.893   7.595   3.069  0.6563 -2.0549  0.2176
   63MOL   H115 7679   3.754   7.452   2.846 -2.4459 -2.3454  1.3673
   63MOL   C116 7680   3.746   7.347   3.037 -0.3207 -0.5123 -0.1696
   63MOL   C117 7681   3.742   7.208   2.976  0.3094 -0.2859  0.2020
   63MOL   F118 7682   3.716   7.116   3.064 -0.1550 -0.2128 -0.9943
   63MOL   H119 7683   3.811   7.359   3.123 -0.4063  0.9671 -0.2987
   63MOL   H120 7684   3.650   7.382   3.076 -0.5176 -1.4345  0.2000
   63MOL   H121 7685   3.833   7.178   2.924 -0.1634 -1.5701  0.0962
   63MOL   H122 7686   3.663   7.198   2.902 -0.2220  3.9395  0.0662
   64MOL     C1 7687   5.779   6.985   1.488  0.2916  0.6021  0.2740
   64MOL     C2 7688   5.852   6.851   1.520  0.1648  0.4308 -0.1088
   64MOL     F3 7689   5.756   6.766   1.538  0.0925 -0.0517 -0.2203
   64MOL     H4 7690   5.849   7.067   1.503  1.3828 -0.3343  0.3436
   64MOL     H5 7691   5.688   7.014   1.540 -0.5239  1.4446 -1.5488
   64MOL     H6 7692   5.906   6.867   1.613 -0.1161 -0.7264  0.2645
   64MOL     H7 7693   5.748   6.977   1.383  2.5583 -2.1718 -0.2227
   64MOL     C8 7694   5.940   6.789   1.413 -0.1212 -0.4584  0.1677
   64MOL     C9 7695   6.045   6.890   1.358  0.0197  0.7052 -0.2221
   64MOL    F10 7696   6.105   6.948   1.457 -0.3260 -0.3379 -0.3812
   64MOL    H11 7697   5.991   6.703   1.456  0.1286 -0.3899  0.0071
   64MOL    H12 7698   5.887   6.750   1.326  0.7746  0.0126 -0.5992
   64MOL    H13 7699   6.000   6.968   1.296  0.2319  0.4962 -0.6430
   64MOL    C14 7700   6.155   6.808   1.285 -0.3398  0.6616 -0.2839
   64MOL    C15 7701   6.117   6.722   1.165  0.0669  0.0961 -0.1857
   64MOL    F16 7702   6.066   6.799   1.066  0.1810  0.2415  0.4427
   64MOL    H17 7703   6.232   6.876   1.251  0.1515 -0.7565 -2.0521
   64MOL    H18 7704   6.199   6.743   1.361 -3.1558  1.9303  2.5574
   64MOL    H19 7705   6.035   6.652   1.182 -2.4180  2.5668 -1.5775
   64MOL    C20 7706   6.235   6.651   1.097 -0.9641  0.2516  0.2335
   64MOL    C21 7707   6.309   6.548   1.181  0.1767  0.5400  0.1642
   64MOL    F22 7708   6.223   6.463   1.229  0.1818 -0.5503 -0.6853
   64MOL    H23 7709   6.201   6.611   1.001  0.8919 -0.7871 -0.0245
   64MOL    H24 7710   6.304   6.726   1.060  0.7786 -1.7015 -0.5791
   64MOL    H25 7711   6.361   6.592   1.266  1.7292 -0.3255 -0.3047
   64MOL    C26 7712   6.425   6.482   1.102 -0.3177  0.9601 -0.0134
   64MOL    C27 7713   6.538   6.425   1.187  0.1395 -0.6084  0.6416
   64MOL    F28 7714   6.587   6.536   1.238  0.1438 -0.1305 -0.5775
   64MOL    H29 7715   6.394   6.399   1.039  0.6912  0.2741  0.3784
   64MOL    H30 7716   6.473   6.556   1.038  0.3103 -1.1627 -2.0820
   64MOL    H31 7717   6.616   6.370   1.135  0.1326  0.3923 -0.4389
   64MOL    C32 7718   6.488   6.339   1.307  0.2611  0.1060  0.3721
   64MOL    C33 7719   6.430   6.208   1.280 -0.9541  0.0828  0.6201
   64MOL    F34 7720   6.480   6.162   1.168  0.1966  0.1037  0.2628
   64MOL    H35 7721   6.574   6.327   1.372  0.4876  1.1617  0.2648
   64MOL    H36 7722   6.417   6.395   1.368  0.9892  0.6940  0.6862
   64MOL    H37 7723   6.323   6.212   1.260 -0.3008  0.9280 -3.0584
   64MOL    C38 7724   6.450   6.099   1.395  0.6819 -0.5862  0.8636
   64MOL    C39 7725   6.342   5.994   1.390  0.1452  0.3104  0.0872
   64MOL    F40 7726   6.234   6.061   1.422 -0.5197  0.2490 -0.0980
   64MOL    H41 7727   6.546   6.047   1.396 -0.3533 -2.5842 -0.1854
   64MOL    H42 7728   6.442   6.149   1.492  1.1592 -0.4137  0.8151
   64MOL    H43 7729   6.368   5.928   1.473 -0.9344 -0.4259 -0.1465
   64MOL    C44 7730   6.318   5.919   1.253  0.7730 -0.2797 -0.0486
   64MOL    C45 7731   6.444   5.840   1.212 -0.3750  0.1063  0.4484
   64MOL    F46 7732   6.451   5.755   1.325 -0.1473  0.3005  0.2076
   64MOL    H47 7733   6.237   5.850   1.277 -0.7389  1.0747 -1.1739
   64MOL    H48 7734   6.285   5.986   1.173  0.2181  1.0312  1.2588
   64MOL    H49 7735   6.529   5.906   1.200 -2.8505  2.8290 -3.2494
   64MOL    C50 7736   6.404   5.769   1.080 -0.2294  0.5305 -0.1328
   64MOL    C51 7737   6.516   5.662   1.051 -1.0601 -0.1290 -0.5687
   64MOL    F52 7738   6.481   5.582   0.947 -0.6798 -0.1633 -0.3795
   64MOL    H53 7739   6.303   5.726   1.081 -0.3534  0.8190  1.1132
   64MOL    H54 7740   6.398   5.831   0.991 -1.6295  0.6847  0.0475
   64MOL    H55 7741   6.513   5.598   1.140 -2.2547  1.3987  0.5254
   64MOL    C56 7742   6.663   5.710   1.038 -0.0907  0.2584  0.2591
   64MOL    C57 7743   6.697   5.808   0.925  0.6935 -0.2354 -0.7843
   64MOL    F58 7744   6.678   5.935   0.972  0.1363  0.1560 -0.6664
   64MOL    H59 7745   6.698   5.749   1.133 -1.7183 -1.6823  1.6913
   64MOL    H60 7746   6.717   5.616   1.026  0.1725  0.2779  1.2764
   64MOL    H61 7747   6.621   5.795   0.848 -1.2965  1.4538  0.8451
   64MOL    C62 7748   6.830   5.807   0.856 -0.1115  0.2084  0.2515
   64MOL    C63 7749   6.948   5.814   0.961 -0.1143  0.3753  0.8807
   64MOL    F64 7750   6.923   5.716   1.048  0.1863  0.2434 -0.0591
   64MOL    H65 7751   6.846   5.717   0.796  1.4497  0.3766  0.3881
   64MOL    H66 7752   6.848   5.892   0.790  0.1677  0.0664  0.1411
   64MOL    H67 7753   6.945   5.909   1.014 -0.5152  1.2661 -0.6959
   64MOL    C68 7754   7.080   5.784   0.901 -0.4842  0.2188 -0.0428
   64MOL    C69 7755   7.194   5.790   0.996  0.0738  0.6053  0.1412
   64MOL    F70 7756   7.192   5.669   1.057 -0.2039  0.0993 -0.0092
   64MOL    H71 7757   7.074   5.685   0.854  0.0537 -0.6418  1.6831
   64MOL    H72 7758   7.093   5.848   0.813 -1.0475 -1.2987 -1.2665
   64MOL    H73 7759   7.167   5.858   1.078 -0.7807 -1.1811  1.3697
   64MOL    C74 7760   7.330   5.799   0.934 -0.2446 -0.4744 -0.2075
   64MOL    C75 7761   7.445   5.818   1.028  0.5242  0.1299  0.5187
   64MOL    F76 7762   7.453   5.712   1.103  0.3513 -0.1177  0.4055
   64MOL    H77 7763   7.341   5.709   0.874  2.6092 -0.7953  0.6939
   64MOL    H78 7764   7.314   5.889   0.874  0.3408  0.1139  0.5071
   64MOL    H79 7765   7.438   5.908   1.088  2.8823  1.9363 -1.7698
   64MOL    C80 7766   7.574   5.830   0.947  0.1340 -0.2622 -0.0815
   64MOL    C81 7767   7.708   5.860   1.029 -0.5037  0.1973 -0.4475
   64MOL    F82 7768   7.713   5.987   1.071 -0.6107  0.5049  0.3245
   64MOL    H83 7769   7.594   5.739   0.891  0.4196  1.4332 -2.7922
   64MOL    H84 7770   7.567   5.903   0.867 -1.3828  0.6593  0.8573
   64MOL    H85 7771   7.794   5.853   0.962  1.0618 -0.1335  1.5793
   64MOL    C86 7772   7.739   5.772   1.154 -0.1902 -0.0696  0.0521
   64MOL    C87 7773   7.751   5.619   1.138 -0.2489  0.1179  0.6457
   64MOL    F88 7774   7.856   5.585   1.064  0.0911  0.2787 -0.0420
   64MOL    H89 7775   7.823   5.806   1.215  1.4781 -0.8040 -1.7703
   64MOL    H90 7776   7.660   5.782   1.229 -0.2034 -0.5171  0.1006
   64MOL    H91 7777   7.660   5.587   1.086  1.0526 -2.2872 -0.2687
   64MOL    C92 7778   7.765   5.550   1.271  0.3103 -1.0757 -0.2921
   64MOL    C93 7779   7.757   5.392   1.275 -0.5267  1.4799 -0.5394
   64MOL    F94 7780   7.654   5.345   1.204 -0.3790  0.6503 -0.5092
   64MOL    H95 7781   7.850   5.590   1.326  0.2291 -3.2360  1.4950
   64MOL    H96 7782   7.683   5.577   1.337  0.0954  0.5405 -1.2003
   64MOL    H97 7783   7.747   5.367   1.380  2.7076  1.1788 -0.2491
   64MOL    C98 7784   7.879   5.315   1.210  0.0448 -0.3703 -0.0725
   64MOL    C99 7785   7.887   5.165   1.228 -0.3580  0.1285 -0.0205
   64MOL   F100 7786   7.988   5.117   1.158  0.0378 -0.6042 -0.0569
   64MOL   H101 7787   7.875   5.345   1.105  1.1850 -0.3288 -0.1039
   64MOL   H102 7788   7.959   5.363   1.266  0.0618  1.3634 -1.5371
   64MOL   H103 7789   7.800   5.113   1.189  1.3228 -1.2358 -2.0633
   64MOL   C104 7790   7.885   5.111   1.383 -0.2617 -0.3133  0.7841
   64MOL   C105 7791   7.840   4.964   1.406  0.7449  0.0980 -0.3272
   64MOL   F106 7792   7.711   4.944   1.360  0.0730  0.4338  0.1580
   64MOL   H107 7793   7.983   5.132   1.426  0.0089  0.0208  0.0234
   64MOL   H108 7794   7.812   5.169   1.439  0.8353  0.6274  1.2582
   64MOL   H109 7795   7.840   4.929   1.509  0.8878  0.3329 -0.2482
   64MOL   C110 7796   7.922   4.861   1.334 -0.0088  0.0315 -0.0449
   64MOL   C111 7797   0.058   4.849   1.396 -0.1050  0.2643 -0.0648
   64MOL   F112 7798   0.051   4.801   1.518 -0.4596 -0.6801 -0.1872
   64MOL   H113 7799   7.867   4.767   1.348 -0.7532 -0.0174 -2.9081
   64MOL   H114 7800   7.920   4.884   1.227 -0.5062  0.9739  0.1620
   64MOL   H115 7801   0.108   4.946   1.401  0.8720 -0.2734  1.1264
   64MOL   C116 7802   0.165   4.769   1.312  0.1632 -0.5946  0.3573
   64MOL   C117 7803   0.181   4.842   1.182  0.2831 -0.1881  0.5093
   64MOL   F118 7804   0.276   4.785   1.116  0.0811 -0.3104  0.0152
   64MOL   H119 7805   0.265   4.759   1.353  0.2498 -0.6991  0.1234
   64MOL   H120 7806   0.131   4.667   1.295  1.8763 -1.1926  0.4320
   64MOL   H121 7807   0.212   4.947   1.184 -1.5106  0.4145 -1.4836
   64MOL   H122 7808   0.090   4.839   1.122  1.7862 -0.2805 -1.8332
   65MOL     C1 7809   4.018   6.162   0.326  0.5187  0.2130 -0.3219
   65MOL     C2 7810   3.894   6.207   0.244  0.4653 -0.0084  0.7582
   65MOL     F3 7811   3.798   6.237   0.328  0.0494 -0.0016  0.6046
   65MOL     H4 7812   4.007   6.082   0.400 -0.6259 -0.1674 -0.8911
   65MOL     H5 7813   4.060   6.239   0.390  1.9200 -0.2160 -0.7068
   65MOL     H6 7814   3.862   6.128   0.177  0.0954  0.8023 -0.0243
   65MOL     H7 7815   4.099   6.132   0.258  0.3279  1.0118 -0.9129
   65MOL     C8 7816   3.907   6.338   0.161 -0.1728  0.7989  0.6300
   65MOL     C9 7817   3.991   6.316   0.030  0.3129  0.1275 -0.1561
   65MOL    F10 7818   3.922   6.234   7.951  0.2546  0.3833  0.0293
   65MOL    H11 7819   3.810   6.385   0.143 -1.5534 -1.4687  1.9104
   65MOL    H12 7820   3.977   6.401   0.215  0.9311 -0.7039  0.9941
   65MOL    H13 7821   4.079   6.257   0.053  1.3091  1.0839 -1.3524
   65MOL    C14 7822   4.034   6.450   7.962  0.6528 -0.6978 -0.0262
   65MOL    C15 7823   4.155   6.516   0.026  0.0831  0.1218  0.5639
   65MOL    F16 7824   4.258   6.432   0.030  0.1938 -0.2506  0.0974
   65MOL    H17 7825   4.049   6.437   7.854  0.6562  2.1842 -0.4198
   65MOL    H18 7826   3.945   6.513   7.966  1.9586  1.3352 -1.3500
   65MOL    H19 7827   4.133   6.562   0.123  2.8815  1.4048  0.6456
   65MOL    C20 7828   4.214   6.638   7.950 -0.1256  0.0218  0.1394
   65MOL    C21 7829   4.121   6.768   7.967  0.4885 -0.2895  0.6369
   65MOL    F22 7830   4.088   6.800   0.089 -0.0352 -0.4312  0.9874
   65MOL    H23 7831   4.314   6.668   7.982  0.1860 -1.3165  0.4437
   65MOL    H24 7832   4.219   6.610   7.844 -0.0827 -0.0543  0.1616
   65MOL    H25 7833   4.021   6.755   7.926  0.5614 -1.1310  0.7183
   65MOL    C26 7834   4.182   6.888   7.892  0.1448 -0.1261 -0.5725
   65MOL    C27 7835   4.289   6.964   7.983  0.0139 -0.0451 -0.4312
   65MOL    F28 7836   4.392   6.880   0.018  0.2088 -0.0176  0.8785
   65MOL    H29 7837   4.220   6.846   7.798 -2.2491 -1.8101 -0.8393
   65MOL    H30 7838   4.100   6.956   7.868  1.7074  2.0783  0.1956
   65MOL    H31 7839   4.246   6.987   0.077  1.3446  0.1230  0.1259
   65MOL    C32 7840   4.331   7.097   7.910  0.0271 -0.3909  0.1992
   65MOL    C33 7841   4.405   7.063   7.778 -0.1073  0.2563 -0.5212
   65MOL    F34 7842   4.395   7.177   7.718 -0.2040 -0.2417 -0.1098
   65MOL    H35 7843   4.246   7.164   7.908  1.6967  1.7415 -1.1099
   65MOL    H36 7844   4.395   7.147   7.983 -2.0778 -0.6568  2.2798
   65MOL    H37 7845   4.362   6.990   7.709 -0.0600  0.2802 -0.5752
   65MOL    C38 7846   4.556   7.034   7.786 -0.6359 -1.1117  0.1930
   65MOL    C39 7847   4.650   7.137   7.848 -0.1812  0.2589 -0.0489
   65MOL    F40 7848   4.631   7.146   7.977  0.5981  0.3661 -0.2603
   65MOL    H41 7849   4.565   6.942   7.844 -0.5038  0.3071  2.5137
   65MOL    H42 7850   4.597   7.026   7.686 -1.8833  1.9260 -0.6061
   65MOL    H43 7851   4.639   7.236   7.804 -1.0967 -0.2839 -1.0759
   65MOL    C44 7852   4.799   7.080   7.830  0.1632 -0.2407 -0.0879
   65MOL    C45 7853   4.880   7.110   7.699  0.3651  0.5743 -0.4207
   65MOL    F46 7854   4.823   7.037   7.605  0.0561 -0.3147 -0.0137
   65MOL    H47 7855   4.865   7.104   7.913  2.1082 -1.9172 -1.1124
   65MOL    H48 7856   4.794   6.971   7.837  2.0219 -0.5349 -2.4691
   65MOL    H49 7857   4.981   7.073   7.718 -0.2458 -1.1617 -0.5112
   65MOL    C50 7858   4.884   7.269   7.672  0.0435 -0.4101 -0.3756
   65MOL    C51 7859   4.984   7.312   7.556  0.0324 -1.1383  0.1039
   65MOL    F52 7860   4.958   7.443   7.526 -0.1088  0.0251  0.2721
   65MOL    H53 7861   4.782   7.301   7.650  0.1056 -0.6551 -1.0267
   65MOL    H54 7862   4.898   7.328   7.762  1.3509  1.2787 -1.6456
   65MOL    H55 7863   4.971   7.259   7.462 -1.3728 -3.4882  1.5640
   65MOL    C56 7864   5.128   7.305   7.598  0.0795  0.1183 -0.2090
   65MOL    C57 7865   5.245   7.283   7.498  0.7323  0.0976 -0.6046
   65MOL    F58 7866   5.226   7.173   7.431 -0.2925 -0.5981  0.0342
   65MOL    H59 7867   5.148   7.400   7.647  0.7894  0.4155 -1.0607
   65MOL    H60 7868   5.143   7.235   7.680 -0.5754  0.3801  0.1296
   65MOL    H61 7869   5.342   7.267   7.546  1.5123  0.3560 -2.0785
   65MOL    C62 7870   5.269   7.395   7.404  0.1527  0.4229  0.3462
   65MOL    C63 7871   5.312   7.534   7.457  0.1612  0.6873  0.3002
   65MOL    F64 7872   5.429   7.528   7.510 -0.1075  0.1188 -0.0358
   65MOL    H65 7873   5.343   7.355   7.335  0.6136 -1.1037  1.6923
   65MOL    H66 7874   5.175   7.402   7.349 -0.0390 -0.8437  0.5005
   65MOL    H67 7875   5.240   7.563   7.533 -0.8787  1.7201 -1.0524
   65MOL    C68 7876   5.330   7.640   7.354  0.1043 -1.2032  0.5085
   65MOL    C69 7877   5.357   7.781   7.390  0.2929 -0.8142 -0.3355
   65MOL    F70 7878   5.460   7.789   7.474 -0.1845  0.5092 -0.7779
   65MOL    H71 7879   5.410   7.601   7.291 -0.0561  1.5873 -1.5429
   65MOL    H72 7880   5.246   7.640   7.285  0.8302  2.9927 -0.4847
   65MOL    H73 7881   5.272   7.827   7.440 -0.1331 -1.4255 -0.4979
   65MOL    C74 7882   5.396   7.862   7.268  0.2258 -0.4282  0.3008
   65MOL    C75 7883   5.283   7.902   7.171  0.0302 -0.2359 -0.2680
   65MOL    F76 7884   5.212   7.994   7.234  0.3397  0.3357 -0.1323
   65MOL    H77 7885   5.432   7.957   7.310 -1.1447  1.2950 -2.3235
   65MOL    H78 7886   5.486   7.814   7.230  0.7008  1.1935 -0.6897
   65MOL    H79 7887   5.219   7.818   7.144  2.2278 -1.9826 -0.1370
   65MOL    C80 7888   5.340   7.976   7.052  0.0924  0.7286  0.9826
   65MOL    C81 7889   5.234   0.044   6.959 -0.2950 -0.6202 -0.2186
   65MOL    F82 7890   5.207   0.163   7.020 -0.4148 -0.1972 -0.1907
   65MOL    H83 7891   5.416   0.042   7.088  0.4281 -0.5470  2.7779
   65MOL    H84 7892   5.380   7.892   6.995  1.2898  1.0905  1.2882
   65MOL    H85 7893   5.143   7.987   6.960 -0.0749 -0.9565 -0.5616
   65MOL    C86 7894   5.288   0.077   6.822  0.7760 -0.0512  0.3946
   65MOL    C87 7895   5.173   0.112   6.715 -0.0525 -0.1142  0.2258
   65MOL    F88 7896   5.084   0.196   6.770  0.7024 -0.0204  0.6135
   65MOL    H89 7897   5.367   0.151   6.823  0.8892 -0.1704  0.2248
   65MOL    H90 7898   5.334   7.992   6.777 -0.9264 -1.0581  0.5474
   65MOL    H91 7899   5.113   0.025   6.689 -0.8675  0.2972  0.7002
   65MOL    C92 7900   5.214   0.183   6.592 -0.2169  0.3069  0.1266
   65MOL    C93 7901   5.310   0.106   6.500  1.3623 -0.2912  0.0233
   65MOL    F94 7902   5.244   0.001   6.462 -0.2211 -0.0912 -0.6145
   65MOL    H95 7903   5.124   0.215   6.539  0.6606  2.2978 -0.2124
   65MOL    H96 7904   5.261   0.279   6.615 -1.1285  0.2937  2.1018
   65MOL    H97 7905   5.400   0.076   6.555  1.6780 -0.9640 -0.8407
   65MOL    C98 7906   5.356   0.184   6.375 -0.1150  0.2206 -1.3326
   65MOL    C99 7907   5.460   0.111   6.286  0.1820 -0.4108 -0.2930
   65MOL   F100 7908   5.559   0.074   6.356  0.1611  0.3842 -0.3917
   65MOL   H101 7909   5.277   0.220   6.309 -0.7650  1.1247 -0.0971
   65MOL   H102 7910   5.415   0.268   6.412 -2.4992  0.6151  1.8415
   65MOL   H103 7911   5.501   0.175   6.208 -0.4577  0.2932 -0.0471
   65MOL   C104 7912   5.410   7.988   6.219  0.4865  0.9590  0.5674
   65MOL   C105 7913   5.505   7.927   6.113  0.9152  0.0154 -0.5626
   65MOL   F106 7914   5.606   7.871   6.181  0.4469  0.0677 -0.3749
   65MOL   H107 7915   5.376   7.913   6.291  1.6630 -1.1889 -1.0240
   65MOL   H108 7916   5.313   0.003   6.173  1.1529  1.1913 -0.7907
   65MOL   H109 7917   5.554   7.996   6.045 -0.6751  3.1832  1.3728
   65MOL   C110 7918   5.435   7.813   6.031  0.4766 -0.5308  0.2221
   65MOL   C111 7919   5.358   7.851   5.903  0.7551  0.0679 -0.2016
   65MOL   F112 7920   5.251   7.918   5.953 -0.2275  0.0762  0.2128
   65MOL   H113 7921   5.516   7.751   5.991  0.3275  0.9685 -2.5142
   65MOL   H114 7922   5.374   7.753   6.098 -2.2107  0.8972 -0.8853
   65MOL   H115 7923   5.312   7.768   5.850 -0.9784  1.2086 -0.5108
   65MOL   C116 7924   5.437   7.946   5.809  0.7637  0.5987  1.1129
   65MOL   C117 7925   5.527   7.861   5.717 -0.3783  0.3855  0.2459
   65MOL   F118 7926   5.453   7.763   5.672  0.2814 -0.1711 -0.0513
   65MOL   H119 7927   5.373   7.994   5.735 -1.0406 -3.0719  0.1420
   65MOL   H120 7928   5.492   0.024   5.856 -1.3046  1.8002  1.5261
   65MOL   H121 7929   5.612   7.837   5.781  0.5170  0.3988 -0.9131
   65MOL   H122 7930   5.570   7.906   5.627  1.7245 -2.4475 -0.2162
   66MOL     C1 7931   1.623   1.185   5.464 -0.4070 -0.2794  0.1067
   66MOL     C2 7932   1.652   1.059   5.377 -0.2690  0.1687  1.4432
   66MOL     F3 7933   1.541   0.984   5.377  0.4901  0.2724 -0.2463
   66MOL     H4 7934   1.591   1.141   5.558  0.3416 -0.2317  0.3870
   66MOL     H5 7935   1.551   1.257   5.425  1.1532  1.4610  0.3827
   66MOL     H6 7936   1.737   1.001   5.415 -0.2260 -0.1841  0.8142
   66MOL     H7 7937   1.709   1.250   5.482 -0.3738 -0.6391  1.2575
   66MOL     C8 7938   1.692   1.096   5.231 -0.3570 -0.1118 -0.2603
   66MOL     C9 7939   1.836   1.159   5.215 -0.2429 -0.2414 -0.1401
   66MOL    F10 7940   1.928   1.070   5.254 -0.3080 -0.2088  0.2577
   66MOL    H11 7941   1.690   1.010   5.165  1.8930  0.6218 -1.3466
   66MOL    H12 7942   1.614   1.158   5.186  0.8641  2.9955  1.6989
   66MOL    H13 7943   1.854   1.253   5.267  0.5449  0.3623 -1.5015
   66MOL    C14 7944   1.862   1.178   5.066  0.3392  0.2847  0.3347
   66MOL    C15 7945   1.987   1.272   5.037 -0.2739  0.2138 -0.3804
   66MOL    F16 7946   2.065   1.198   4.957 -0.1376 -0.4238  0.0031
   66MOL    H17 7947   1.880   1.078   5.027  1.8661  0.5855  0.2185
   66MOL    H18 7948   1.772   1.213   5.014 -0.5171  0.3294  1.8414
   66MOL    H19 7949   2.044   1.282   5.129 -1.0592  0.3073  0.1040
   66MOL    C20 7950   1.950   1.412   4.986  0.0735 -1.0218  0.8638
   66MOL    C21 7951   1.911   1.503   5.104  0.0054 -0.3763 -0.7734
   66MOL    F22 7952   2.004   1.497   5.196 -0.2444  0.4180  0.1391
   66MOL    H23 7953   2.038   1.447   4.932 -1.2582  0.3636 -0.4674
   66MOL    H24 7954   1.877   1.390   4.909  1.5691 -1.5793 -0.4198
   66MOL    H25 7955   1.819   1.463   5.145  0.4701 -1.0793 -0.4036
   66MOL    C26 7956   1.893   1.655   5.068  0.4589  0.2451 -0.3852
   66MOL    C27 7957   1.874   1.750   5.197  0.9355  0.2814  0.2295
   66MOL    F28 7958   1.990   1.783   5.255 -0.5457 -0.8563  0.0649
   66MOL    H29 7959   1.980   1.698   5.018  0.4584  0.1586 -0.4613
   66MOL    H30 7960   1.805   1.673   5.007 -0.1218  2.4358  1.0607
   66MOL    H31 7961   1.808   1.687   5.257 -2.4879  1.4382 -2.1190
   66MOL    C32 7962   1.799   1.881   5.172 -0.0301 -0.3247 -0.0913
   66MOL    C33 7963   1.647   1.869   5.172  0.2555  0.2529  0.2937
   66MOL    F34 7964   1.627   1.839   5.296 -0.0564 -0.2240 -0.1814
   66MOL    H35 7965   1.826   1.951   5.252  0.6805 -0.8075  0.0913
   66MOL    H36 7966   1.835   1.912   5.074  1.7132  0.5310  0.7983
   66MOL    H37 7967   1.620   1.786   5.107  1.3588 -0.8622  1.2131
   66MOL    C38 7968   1.564   2.000   5.138  0.2438  0.6226 -0.0414
   66MOL    C39 7969   1.409   1.961   5.126  0.4973 -0.3155  0.7186
   66MOL    F40 7970   1.395   1.864   5.033 -0.1000  0.0776  0.4058
   66MOL    H41 7971   1.593   2.081   5.206 -0.2942 -0.7743  1.9070
   66MOL    H42 7972   1.590   2.033   5.038  0.4821 -2.3921 -1.0260
   66MOL    H43 7973   1.350   2.038   5.078 -0.0924 -0.7036  0.8134
   66MOL    C44 7974   1.342   1.918   5.258 -0.2148 -0.1355 -0.4616
   66MOL    C45 7975   1.190   1.892   5.249 -0.1702  0.1084 -0.3306
   66MOL    F46 7976   1.182   1.763   5.219  0.2906 -0.3259  0.4414
   66MOL    H47 7977   1.397   1.828   5.286 -3.2924 -1.3035  2.0979
   66MOL    H48 7978   1.355   1.997   5.332  0.2398  0.5690 -1.2823
   66MOL    H49 7979   1.152   1.947   5.163  1.0272  2.6917  0.7486
   66MOL    C50 7980   1.112   1.921   5.378  0.0435 -0.3861  0.3606
   66MOL    C51 7981   0.963   1.886   5.362 -0.2823 -0.0018  1.0554
   66MOL    F52 7982   0.947   1.755   5.347  0.4248  1.2335  0.4304
   66MOL    H53 7983   1.148   1.871   5.468  0.0592 -1.1428 -0.0581
   66MOL    H54 7984   1.117   2.029   5.391  0.3607 -0.6004  2.1934
   66MOL    H55 7985   0.924   1.931   5.271  0.9910 -1.3383 -0.1891
   66MOL    C56 7986   0.872   1.949   5.472  0.1306  0.0504 -0.0299
   66MOL    C57 7987   0.717   1.925   5.448 -0.1900 -0.2778 -0.2767
   66MOL    F58 7988   0.679   1.805   5.492  0.0622  0.2842  0.0061
   66MOL    H59 7989   0.907   1.900   5.563 -0.4223 -1.6308 -0.7034
   66MOL    H60 7990   0.895   2.054   5.490 -0.8408  0.0243  1.4224
   66MOL    H61 7991   0.693   1.940   5.343  0.0930  0.4871 -0.2295
   66MOL    C62 7992   0.625   2.018   5.529  0.3479 -0.5083  0.1235
   66MOL    C63 7993   0.616   2.169   5.487 -0.0985 -0.5306  0.1253
   66MOL    F64 7994   0.566   2.180   5.361  0.2373  0.3318  0.3003
   66MOL    H65 7995   0.526   1.972   5.517 -0.2690  1.2410 -1.7851
   66MOL    H66 7996   0.651   2.017   5.635  0.2312 -0.6812  0.1507
   66MOL    H67 7997   0.714   2.216   5.484  0.3261 -1.3413  1.0735
   66MOL    C68 7998   0.523   2.258   5.572  0.3624  0.2363 -0.7468
   66MOL    C69 7999   0.586   2.296   5.707  0.0793  0.3499 -0.2733
   66MOL    F70 8000   0.700   2.365   5.692 -0.3108  0.1579  0.4154
   66MOL    H71 8001   0.511   2.351   5.517 -0.2555  0.4193 -0.3104
   66MOL    H72 8002   0.422   2.217   5.577  1.1467 -1.7006 -0.0626
   66MOL    H73 8003   0.605   2.202   5.757  0.2579  1.2225  1.3204
   66MOL    C74 8004   0.483   2.384   5.793  0.5407  0.5547  0.6526
   66MOL    C75 8005   0.532   2.423   5.935  0.7685  0.7840 -0.5852
   66MOL    F76 8006   0.638   2.504   5.925  0.2326  0.1423  0.5404
   66MOL    H77 8007   0.463   2.473   5.734  0.5677 -0.7992 -1.4723
   66MOL    H78 8008   0.383   2.341   5.799  0.5905  0.2723 -0.3208
   66MOL    H79 8009   0.560   2.334   5.991  0.6430  0.9474 -0.2627
   66MOL    C80 8010   0.428   2.503   6.022  0.3609  0.3116  0.2372
   66MOL    C81 8011   0.465   2.548   6.164  0.0592 -0.0414 -0.1197
   66MOL    F82 8012   0.586   2.614   6.169  0.2137 -0.0717  0.2148
   66MOL    H83 8013   0.406   2.593   5.965  1.2219 -0.3643 -1.1863
   66MOL    H84 8014   0.337   2.445   6.030  1.2828 -1.0202  1.4209
   66MOL    H85 8015   0.482   2.465   6.233  1.7159  0.8148  0.5479
   66MOL    C86 8016   0.365   2.652   6.215  0.6962  0.0262  0.0950
   66MOL    C87 8017   0.217   2.608   6.243  0.3203  0.4928 -0.2297
   66MOL    F88 8018   0.229   2.509   6.335  0.4542  0.0190  0.3926
   66MOL    H89 8019   0.401   2.684   6.313  0.0752  1.0862 -0.0221
   66MOL    H90 8020   0.369   2.734   6.144  0.2774 -0.6348 -0.7050
   66MOL    H91 8021   0.172   2.571   6.151  2.2015 -0.6979 -0.7044
   66MOL    C92 8022   0.123   2.715   6.310  0.4395  0.4330  0.3050
   66MOL    C93 8023   7.974   2.659   6.332  0.0913 -0.0357  0.1254
   66MOL    F94 8024   7.986   2.565   6.427 -0.1499 -0.0877 -0.3113
   66MOL    H95 8025   0.159   2.762   6.402 -1.1630  0.0895  1.1177
   66MOL    H96 8026   0.119   2.796   6.238  0.7580 -1.8084 -2.3272
   66MOL    H97 8027   7.953   2.616   6.234 -0.3517 -0.5978  0.4659
   66MOL    C98 8028   7.870   2.764   6.378  0.5479  0.3113  0.7549
   66MOL    C99 8029   7.726   2.713   6.372 -0.5034  0.2975 -0.1836
   66MOL   F100 8030   7.649   2.808   6.435 -0.1071 -0.2503  0.1953
   66MOL   H101 8031   7.892   2.791   6.481 -0.2221 -0.1654  1.0465
   66MOL   H102 8032   7.880   2.851   6.313 -0.1951  0.5546  0.9581
   66MOL   H103 8033   7.722   2.621   6.431  1.4180 -0.2093 -0.8162
   66MOL   C104 8034   7.660   2.665   6.234  0.1517 -0.7024 -0.2769
   66MOL   C105 8035   7.632   2.769   6.129  0.0748  0.5369  0.2831
   66MOL   F106 8036   7.745   2.803   6.082 -0.3960 -0.2434 -0.1321
   66MOL   H107 8037   7.720   2.587   6.187  0.2580 -0.3653 -0.7089
   66MOL   H108 8038   7.561   2.623   6.254 -0.1935 -0.3939 -1.3120
   66MOL   H109 8039   7.610   2.863   6.180  3.6793  1.1072  0.9293
   66MOL   C110 8040   7.542   2.729   6.014 -0.2497 -0.6866 -0.8021
   66MOL   C111 8041   7.507   2.849   5.925 -0.1192 -0.3753  0.2240
   66MOL   F112 8042   7.609   2.886   5.842  0.4594  0.3789  0.4494
   66MOL   H113 8043   7.586   2.647   5.958  0.4705 -0.4552 -0.5763
   66MOL   H114 8044   7.448   2.690   6.052 -0.6542  2.4046  1.5421
   66MOL   H115 8045   7.482   2.933   5.989 -1.5230  2.2235 -3.5701
   66MOL   C116 8046   7.384   2.817   5.842 -0.2237  0.1876 -0.0138
   66MOL   C117 8047   7.401   2.728   5.716  1.4833  0.4163  0.2652
   66MOL   F118 8048   7.402   2.605   5.747  0.2599  0.0056 -0.3320
   66MOL   H119 8049   7.300   2.776   5.898  0.6297 -0.0302  1.1206
   66MOL   H120 8050   7.350   2.906   5.790 -2.9762 -1.2960 -0.8965
   66MOL   H121 8051   7.489   2.764   5.663  0.9259 -0.0856 -1.0098
   66MOL   H122 8052   7.319   2.753   5.648  1.0319  1.9864  1.3528
   67MOL     C1 8053   7.789   7.110   1.343 -0.5821  0.7328  0.1191
   67MOL     C2 8054   7.826   7.054   1.211  0.1722  0.9209 -0.1685
   67MOL     F3 8055   7.779   7.129   1.116  0.0927  0.1264 -0.0852
   67MOL     H4 8056   7.841   7.062   1.425 -0.9621 -0.6731 -0.4620
   67MOL     H5 8057   7.683   7.106   1.369 -0.2472 -1.8028  1.1584
   67MOL     H6 8058   7.773   6.962   1.184 -0.4641  1.0689  0.5798
   67MOL     H7 8059   7.811   7.217   1.340  0.8982  0.4151 -0.4064
   67MOL     C8 8060   7.976   7.043   1.200 -0.9686 -0.1929  0.3502
   67MOL     C9 8061   0.022   6.986   1.070  0.5099 -0.1462  0.7183
   67MOL    F10 8062   7.995   7.066   0.971  0.1463  0.5335 -0.1212
   67MOL    H11 8063   0.000   7.147   1.214 -0.8588 -0.1093 -0.4689
   67MOL    H12 8064   8.001   6.967   1.275 -1.6413  0.0365  0.8032
   67MOL    H13 8065   7.971   6.894   1.048 -0.4444  0.9893 -1.9440
   67MOL    C14 8066   0.173   6.946   1.072  0.3067 -0.0082 -0.1321
   67MOL    C15 8067   0.201   6.815   1.152  0.4427 -0.8821 -0.2568
   67MOL    F16 8068   0.120   6.715   1.125  0.1755 -0.4968 -0.3843
   67MOL    H17 8069   0.203   6.926   0.969  1.0072  2.2008 -0.3724
   67MOL    H18 8070   0.230   7.036   1.092  1.5238 -0.7877 -0.0041
   67MOL    H19 8071   0.200   6.829   1.260  0.0992  1.0930 -0.4917
   67MOL    C20 8072   0.339   6.762   1.125 -0.8195 -0.1295 -0.5148
   67MOL    C21 8073   0.461   6.844   1.164  0.1427  0.6703 -0.4760
   67MOL    F22 8074   0.477   6.949   1.086 -0.3053 -0.0378  0.6072
   67MOL    H23 8075   0.342   6.671   1.186  1.7441 -0.5479 -1.2081
   67MOL    H24 8076   0.343   6.732   1.020 -2.1191  0.2232 -0.6755
   67MOL    H25 8077   0.546   6.782   1.139  0.3383  0.4761  0.6819
   67MOL    C26 8078   0.457   6.896   1.304 -0.2695 -0.0767 -0.6590
   67MOL    C27 8079   0.589   6.969   1.337 -0.5564  0.2618  0.0856
   67MOL    F28 8080   0.581   7.100   1.306  0.3691 -0.1833  0.5800
   67MOL    H29 8081   0.377   6.969   1.319  0.7784  1.3780 -2.0639
   67MOL    H30 8082   0.456   6.814   1.375  2.1168  0.2145 -0.2580
   67MOL    H31 8083   0.667   6.940   1.267  0.1186 -0.8126  1.2616
   67MOL    C32 8084   0.639   6.953   1.485 -0.1141 -0.1962  0.0605
   67MOL    C33 8085   0.784   7.003   1.517  0.3282 -0.3471  0.7471
   67MOL    F34 8086   0.862   6.956   1.416 -0.5888  0.6218 -0.3023
   67MOL    H35 8087   0.569   7.004   1.551  2.0163 -1.5429  3.4829
   67MOL    H36 8088   0.622   6.850   1.515 -0.1687 -0.4129 -0.7105
   67MOL    H37 8089   0.815   6.954   1.610  0.6435 -0.7294  0.4469
   67MOL    C38 8090   0.811   7.153   1.534  0.5664  0.1519  0.3558
   67MOL    C39 8091   0.963   7.187   1.573 -0.0382 -0.1422 -0.4872
   67MOL    F40 8092   1.056   7.164   1.474  0.5057  0.0432  0.2714
   67MOL    H41 8093   0.773   7.195   1.441 -1.5955  0.8105  1.5035
   67MOL    H42 8094   0.754   7.191   1.619  0.6243 -1.0562  0.9438
   67MOL    H43 8095   0.995   7.123   1.655  1.1103  1.1326  0.0786
   67MOL    C44 8096   0.987   7.343   1.623  0.1580  0.2086 -0.1229
   67MOL    C45 8097   0.907   7.383   1.744  0.5321  0.0535  0.1732
   67MOL    F46 8098   0.945   7.301   1.840 -0.3038 -0.3082  0.0843
   67MOL    H47 8099   1.091   7.356   1.655 -0.3411 -2.4957  2.8725
   67MOL    H48 8100   0.981   7.405   1.534  0.8792 -0.9246 -0.9632
   67MOL    H49 8101   0.801   7.371   1.722  0.8250  0.1015 -1.3370
   67MOL    C50 8102   0.936   7.523   1.797  0.5873  0.0669  0.3801
   67MOL    C51 8103   0.886   7.636   1.710  1.3069  0.2246  0.2420
   67MOL    F52 8104   0.755   7.638   1.732 -0.0951 -0.1123  0.0853
   67MOL    H53 8105   0.905   7.537   1.900 -0.4696  1.9591 -0.1625
   67MOL    H54 8106   1.043   7.533   1.809  0.2056  1.8121  2.6580
   67MOL    H55 8107   0.904   7.617   1.604 -0.6274 -2.2038  0.3351
   67MOL    C56 8108   0.952   7.777   1.742  0.5014  0.7014  0.5610
   67MOL    C57 8109   1.103   7.784   1.706  0.2161  0.4756 -0.2995
   67MOL    F58 8110   1.124   7.737   1.583  0.2188 -0.6034  0.2192
   67MOL    H59 8111   0.893   7.855   1.692  0.5356  0.6557  0.4509
   67MOL    H60 8112   0.932   7.797   1.848 -2.3770 -1.5079  0.5083
   67MOL    H61 8113   1.158   7.718   1.773  1.7409  2.3587  0.3398
   67MOL    C62 8114   1.165   7.919   1.723 -0.3140 -0.4824 -0.3227
   67MOL    C63 8115   1.310   7.932   1.695 -0.4900  0.7594  0.6309
   67MOL    F64 8116   1.345   0.058   1.706  0.2561 -0.3433  0.1389
   67MOL    H65 8117   1.112   7.989   1.657  1.6668  1.3726 -0.0060
   67MOL    H66 8118   1.146   7.953   1.825  1.1212  0.1355 -0.2543
   67MOL    H67 8119   1.320   7.909   1.589  0.2898 -2.5927  1.3651
   67MOL    C68 8120   1.401   7.855   1.787 -0.7351  0.9239  0.2061
   67MOL    C69 8121   1.397   7.880   1.937  0.2462 -0.0949  0.1212
   67MOL    F70 8122   1.279   7.843   1.988 -0.0459 -0.1140  0.0170
   67MOL    H71 8123   1.394   7.748   1.770 -0.9107  0.9866 -0.1131
   67MOL    H72 8124   1.504   7.885   1.768 -0.0747 -0.4336  1.5725
   67MOL    H73 8125   1.409   7.987   1.956  0.6626  0.4218 -2.8530
   67MOL    C74 8126   1.513   7.816   2.016  0.3808  0.1990  0.0308
   67MOL    C75 8127   1.483   7.817   2.169 -0.6799  0.1863  1.0806
   67MOL    F76 8128   1.578   7.749   2.235  0.0841  0.0190 -0.1134
   67MOL    H77 8129   1.514   7.714   1.976 -0.1241 -0.4973  1.7679
   67MOL    H78 8130   1.604   7.873   1.996  1.2421 -0.0799  2.9835
   67MOL    H79 8131   1.391   7.763   2.191 -1.2231  1.1470  1.2338
   67MOL    C80 8132   1.468   7.952   2.243 -0.2358  0.2707 -0.5735
   67MOL    C81 8133   1.593   0.037   2.225  0.9974  0.1181  0.3112
   67MOL    F82 8134   1.584   0.115   2.115  0.1958 -0.0083  0.2333
   67MOL    H83 8135   1.379   0.001   2.209  1.2718  0.9205 -3.7001
   67MOL    H84 8136   1.453   7.925   2.348  1.4446  2.2218  0.1937
   67MOL    H85 8137   1.687   7.987   2.220  1.3208  0.9302 -3.5652
   67MOL    C86 8138   1.601   0.141   2.343  0.0064 -0.1598  1.2741
   67MOL    C87 8139   1.732   0.220   2.353  0.2323 -0.1564  0.1288
   67MOL    F88 8140   1.727   0.295   2.244 -0.1318 -0.2964 -0.1218
   67MOL    H89 8141   1.521   0.215   2.335  0.5670  0.2931 -0.4594
   67MOL    H90 8142   1.583   0.084   2.433 -1.0827  1.6726  2.2385
   67MOL    H91 8143   1.815   0.152   2.339 -0.4451 -1.4585  2.2837
   67MOL    C92 8144   1.739   0.307   2.477  0.0632 -0.1818 -0.1813
   67MOL    C93 8145   1.876   0.378   2.477  0.3717 -0.0962 -0.2853
   67MOL    F94 8146   1.874   0.507   2.431  0.1288  0.1553 -0.1633
   67MOL    H95 8147   1.655   0.376   2.484 -1.3845 -2.0828  1.6100
   67MOL    H96 8148   1.746   0.235   2.558  0.7997 -1.5744 -1.4588
   67MOL    H97 8149   1.948   0.325   2.414 -0.7123  0.4495 -2.0138
   67MOL    C98 8150   1.939   0.383   2.617  0.6661  0.7128 -0.3233
   67MOL    C99 8151   2.082   0.436   2.620  0.5359  0.0629  0.8311
   67MOL   F100 8152   2.099   0.486   2.741  0.3369  0.0648 -0.0555
   67MOL   H101 8153   1.885   0.449   2.685 -0.6158  0.4082 -1.0449
   67MOL   H102 8154   1.945   0.284   2.663  0.2818  0.3861 -0.9739
   67MOL   H103 8155   2.090   0.521   2.552  0.1830 -0.3088  0.3235
   67MOL   C104 8156   2.197   0.330   2.585 -0.3390  0.0472 -0.2134
   67MOL   C105 8157   2.342   0.385   2.593  0.0584  0.2327 -1.2787
   67MOL   F106 8158   2.402   0.308   2.679 -0.1130  0.1985  0.1641
   67MOL   H107 8159   2.188   0.244   2.651 -0.6712 -0.1302 -0.4905
   67MOL   H108 8160   2.173   0.297   2.484  1.5289  0.2388 -0.7396
   67MOL   H109 8161   2.347   0.491   2.619 -1.4968  0.0678 -0.1940
   67MOL   C110 8162   2.421   0.376   2.463  0.3018  0.6176 -0.1373
   67MOL   C111 8163   2.373   0.490   2.376  0.5387  0.4489  0.6648
   67MOL   F112 8164   2.413   0.610   2.421  0.8185 -0.1346  0.2013
   67MOL   H113 8165   2.526   0.385   2.490 -0.0210 -0.7369  1.6241
   67MOL   H114 8166   2.410   0.274   2.427 -0.0723  0.7444 -0.3888
   67MOL   H115 8167   2.266   0.503   2.359  0.8848  0.4843 -1.7314
   67MOL   C116 8168   2.439   0.487   2.235  0.0723 -0.0234 -0.6512
   67MOL   C117 8169   2.345   0.547   2.134  0.1405 -0.0984  0.0560
   67MOL   F118 8170   2.409   0.579   2.025  0.2068 -0.0602  0.1862
   67MOL   H119 8171   2.536   0.535   2.231  0.3710 -0.8044 -3.1548
   67MOL   H120 8172   2.459   0.383   2.210  0.5352 -0.3166  0.8295
   67MOL   H121 8173   2.294   0.637   2.167 -0.1621  0.1410 -1.0460
   67MOL   H122 8174   2.260   0.483   2.111 -0.5459  1.2332 -1.1288
   68MOL     C1 8175   4.621   1.935   7.158  0.1654 -0.3076 -0.0876
   68MOL     C2 8176   4.523   1.977   7.268 -0.2901  0.3051 -0.3757
   68MOL     F3 8177   4.491   2.104   7.241 -0.0006 -0.2390 -0.6808
   68MOL     H4 8178   4.709   1.999   7.161  0.0197 -0.1149  0.0475
   68MOL     H5 8179   4.589   1.936   7.054  0.9597  1.4976 -0.3219
   68MOL     H6 8180   4.577   1.982   7.362 -1.7469 -1.4599  0.5931
   68MOL     H7 8181   4.650   1.834   7.189  3.2913  0.9717  1.3303
   68MOL     C8 8182   4.401   1.885   7.282 -0.0978  0.5027 -0.3877
   68MOL     C9 8183   4.324   1.879   7.411 -0.1772  0.2678  0.2963
   68MOL    F10 8184   4.406   1.826   7.500 -0.3123 -0.0696 -0.7024
   68MOL    H11 8185   4.331   1.891   7.198 -0.7027  0.6539  0.1207
   68MOL    H12 8186   4.437   1.783   7.276  0.4483  0.7568 -1.5817
   68MOL    H13 8187   4.253   1.800   7.388  0.2315  0.0117 -0.0907
   68MOL    C14 8188   4.263   2.015   7.455 -0.2864 -0.0554 -0.5448
   68MOL    C15 8189   4.134   2.058   7.379  0.2954  0.3786  0.7288
   68MOL    F16 8190   4.043   1.960   7.396 -0.3290  0.4938 -0.4407
   68MOL    H17 8191   4.248   2.026   7.562 -1.0181  1.2625 -0.7707
   68MOL    H18 8192   4.332   2.094   7.427 -0.5556  0.9300  1.5383
   68MOL    H19 8193   4.138   2.055   7.270  0.4457  0.7275  0.7275
   68MOL    C20 8194   4.072   2.187   7.428  0.3035 -0.4539 -0.2757
   68MOL    C21 8195   4.159   2.314   7.444  0.1328  0.5673 -0.0330
   68MOL    F22 8196   4.251   2.306   7.342 -0.1266 -0.0147  0.5592
   68MOL    H23 8197   4.001   2.209   7.348  0.9905 -1.3209 -1.1289
   68MOL    H24 8198   4.010   2.164   7.514 -0.5081  0.3893 -0.6321
   68MOL    H25 8199   4.215   2.317   7.538  0.0838 -1.5284  0.0923
   68MOL    C26 8200   4.085   2.443   7.442  0.3504  0.4482  0.1441
   68MOL    C27 8201   3.999   2.462   7.568  0.4510  0.8031 -0.4920
   68MOL    F28 8202   4.069   2.468   7.680 -0.1506 -0.3131 -0.2380
   68MOL    H29 8203   4.154   2.527   7.433 -1.3963  2.0202  1.1399
   68MOL    H30 8204   4.019   2.441   7.355  0.5881 -0.9202 -0.0167
   68MOL    H31 8205   3.929   2.379   7.575  0.3185  0.6309 -3.5053
   68MOL    C32 8206   3.908   2.587   7.566 -0.2183  0.3492 -0.4643
   68MOL    C33 8207   3.767   2.566   7.627  0.0266 -0.6010  0.7874
   68MOL    F34 8208   3.704   2.479   7.545  0.3283 -0.2610  0.0122
   68MOL    H35 8209   3.958   2.660   7.629  0.3618  1.4085 -2.1246
   68MOL    H36 8210   3.897   2.626   7.465 -1.3205  0.2757 -0.3748
   68MOL    H37 8211   3.709   2.658   7.630 -0.2985 -0.8284  1.8349
   68MOL    C38 8212   3.759   2.493   7.762 -0.3057  0.1136  0.0124
   68MOL    C39 8213   3.622   2.494   7.843  0.8380  0.0219  0.4608
   68MOL    F40 8214   3.614   2.409   7.941 -0.3599  0.2119  0.3957
   68MOL    H41 8215   3.784   2.387   7.757 -1.5905 -0.1511 -1.0564
   68MOL    H42 8216   3.838   2.531   7.828  0.8872 -0.3109 -1.1455
   68MOL    H43 8217   3.552   2.459   7.767 -0.3778  1.9710  0.6470
   68MOL    C44 8218   3.588   2.631   7.894  0.2247 -0.5312  0.5349
   68MOL    C45 8219   3.669   2.683   0.016 -0.2301 -0.0231 -0.1780
   68MOL    F46 8220   3.795   2.725   7.981  0.3382 -0.2308 -0.0852
   68MOL    H47 8221   3.598   2.705   7.815  4.2755 -2.2948 -0.7107
   68MOL    H48 8222   3.481   2.622   7.914  0.1480 -1.1275 -0.1234
   68MOL    H49 8223   3.687   2.601   0.085  3.4193  2.1527  1.6002
   68MOL    C50 8224   3.603   2.798   0.082 -0.0384 -0.5519  0.2098
   68MOL    C51 8225   3.704   2.893   0.157 -0.3162  0.1284  0.0571
   68MOL    F52 8226   3.761   2.969   0.063  0.0784 -0.2240  0.1761
   68MOL    H53 8227   3.554   2.858   0.006  2.8805  1.8771  0.1507
   68MOL    H54 8228   3.522   2.765   0.147  0.2260  2.4437  2.1894
   68MOL    H55 8229   3.793   2.841   0.194  0.3111  1.3541  0.2882
   68MOL    C56 8230   3.645   2.972   0.274  0.0754  0.5663  0.1040
   68MOL    C57 8231   3.538   3.077   0.232 -0.4248  0.2819 -0.0700
   68MOL    F58 8232   3.448   3.025   0.145 -0.1521 -0.8770 -0.6063
   68MOL    H59 8233   3.598   2.911   0.351  0.0814  1.8677  1.1812
   68MOL    H60 8234   3.732   3.019   0.320  0.4307 -1.3396  1.4005
   68MOL    H61 8235   3.578   3.165   0.180 -0.2422  0.4529  0.3624
   68MOL    C62 8236   3.454   3.137   0.348  0.4458  0.2169 -0.2862
   68MOL    C63 8237   3.539   3.228   0.434  0.1381  0.4518 -0.5420
   68MOL    F64 8238   3.571   3.333   0.358 -0.2732  0.0901 -0.1391
   68MOL    H65 8239   3.378   3.202   0.307 -0.0979 -0.3010 -0.1049
   68MOL    H66 8240   3.406   3.056   0.402 -1.0062 -1.4013 -3.8616
   68MOL    H67 8241   3.629   3.178   0.469 -0.3262  0.7094  1.0619
   68MOL    C68 8242   3.456   3.275   0.554  0.7670  0.1203  0.1865
   68MOL    C69 8243   3.406   3.169   0.648  0.8069 -0.4901  0.6683
   68MOL    F70 8244   3.500   3.078   0.658 -0.4631 -0.4604  0.2616
   68MOL    H71 8245   3.514   3.339   0.620 -0.9580 -0.4451  2.3153
   68MOL    H72 8246   3.372   3.339   0.529  0.2032 -1.5652 -2.3873
   68MOL    H73 8247   3.332   3.098   0.612  0.7411 -0.1742  0.1699
   68MOL    C74 8248   3.373   3.222   0.781  0.7358  0.2337 -0.8334
   68MOL    C75 8249   3.301   3.355   0.795 -1.2109  0.7716 -0.4839
   68MOL    F76 8250   3.193   3.352   0.712  0.2303 -0.5147 -0.1937
   68MOL    H77 8251   3.327   3.142   0.839  0.4634  0.3498 -0.8857
   68MOL    H78 8252   3.465   3.245   0.835 -0.1374  0.8575  0.4145
   68MOL    H79 8253   3.357   3.438   0.754  3.4027 -1.9792 -0.0366
   68MOL    C80 8254   3.252   3.374   0.945 -0.1372  0.2841  0.0772
   68MOL    C81 8255   3.199   3.513   0.976  0.0328 -0.2770  0.3435
   68MOL    F82 8256   3.114   3.488   1.071 -0.0828 -0.4173 -0.1630
   68MOL    H83 8257   3.185   3.293   0.975 -0.9051  1.2755  1.0518
   68MOL    H84 8258   3.339   3.355   1.008  0.5410 -0.3190 -1.0190
   68MOL    H85 8259   3.133   3.539   0.894 -0.7634  0.0792  1.0879
   68MOL    C86 8260   3.296   3.612   1.034 -0.5455 -0.0794  0.2284
   68MOL    C87 8261   3.251   3.757   1.041  0.7410 -0.3005  0.0658
   68MOL    F88 8262   3.190   3.792   0.929 -0.0212 -0.1413  0.0993
   68MOL    H89 8263   3.334   3.575   1.130 -3.0406 -0.2850  1.1762
   68MOL    H90 8264   3.388   3.609   0.976 -2.1227 -3.3685 -2.2096
   68MOL    H91 8265   3.342   3.816   1.053  1.0316 -0.5752 -0.7219
   68MOL    C92 8266   3.163   3.817   1.156  0.1029 -0.4452  0.3888
   68MOL    C93 8267   3.095   3.952   1.121 -0.1146 -0.3112  0.3722
   68MOL    F94 8268   2.991   3.980   1.207 -0.0188 -0.1490 -0.7550
   68MOL    H95 8269   3.085   3.741   1.153 -0.1081 -0.2326  0.5451
   68MOL    H96 8270   3.225   3.824   1.245  0.7218  0.4281 -0.1012
   68MOL    H97 8271   3.036   3.941   1.030  0.5355  1.2575 -0.2544
   68MOL    C98 8272   3.191   4.068   1.129  0.3301 -0.2895  0.2794
   68MOL    C99 8273   3.131   4.202   1.092 -0.2289 -0.5336 -0.4124
   68MOL   F100 8274   3.206   4.307   1.131  0.3550 -0.0782  0.5357
   68MOL   H101 8275   3.224   4.085   1.231  0.1941 -0.3661  0.3365
   68MOL   H102 8276   3.268   4.040   1.057 -1.8861 -0.3009 -2.1696
   68MOL   H103 8277   3.037   4.217   1.146  0.4480  0.6017  0.4617
   68MOL   C104 8278   3.094   4.215   0.942  0.1111 -0.4114 -0.3068
   68MOL   C105 8279   2.995   4.326   0.914  0.1338  0.6279 -0.0693
   68MOL   F106 8280   3.046   4.446   0.952 -0.1496 -0.0898 -0.6368
   68MOL   H107 8281   3.184   4.223   0.881 -0.7186 -2.3620 -1.8199
   68MOL   H108 8282   3.040   4.125   0.914 -1.8904  0.3724  0.9440
   68MOL   H109 8283   2.909   4.317   0.981  0.8939  2.2359  1.1429
   68MOL   C110 8284   2.961   4.327   0.769 -0.0740  0.3231 -0.3007
   68MOL   C111 8285   2.876   4.451   0.723  0.2287  0.0651  0.1307
   68MOL   F112 8286   2.845   4.430   0.595 -0.4347  0.0616 -0.3140
   68MOL   H113 8287   3.052   4.337   0.709 -0.1887  1.9683 -0.2272
   68MOL   H114 8288   2.923   4.230   0.738  1.7707  0.0104 -1.7162
   68MOL   H115 8289   2.942   4.538   0.725  1.3810 -0.5855 -4.6745
   68MOL   C116 8290   2.742   4.461   0.802 -0.0039 -0.2187 -0.0845
   68MOL   C117 8291   2.648   4.574   0.752  0.5033  0.0203  0.4775
   68MOL   F118 8292   2.548   4.564   0.842  0.5237 -0.2012  0.5333
   68MOL   H119 8293   2.678   4.374   0.785  0.5858 -0.3780 -1.6100
   68MOL   H120 8294   2.759   4.471   0.909 -0.1381  1.6059 -0.2205
   68MOL   H121 8295   2.603   4.548   0.656  0.5456  0.0015  0.4630
   68MOL   H122 8296   2.672   4.680   0.751  0.7606 -0.0365 -1.6676
   69MOL     C1 8297   2.851   4.529   7.163 -0.0444 -0.4495 -0.2683
   69MOL     C2 8298   2.771   4.648   7.114  0.1379 -0.2785 -0.1392
   69MOL     F3 8299   2.858   4.716   7.034 -0.1864 -0.2826 -0.1976
   69MOL     H4 8300   2.890   4.466   7.083 -0.1170 -1.6000  0.6009
   69MOL     H5 8301   2.784   4.464   7.219 -1.3809 -0.0068 -1.3178
   69MOL     H6 8302   2.765   4.715   7.200  0.3096 -0.6051  0.1279
   69MOL     H7 8303   2.940   4.556   7.220 -0.1269  0.3335 -0.5020
   69MOL     C8 8304   2.641   4.607   7.044  0.3943 -0.5801  0.2107
   69MOL     C9 8305   2.550   4.724   6.994 -0.5702 -0.3234 -0.3763
   69MOL    F10 8306   2.467   4.663   6.913 -0.3448 -0.1735  0.4945
   69MOL    H11 8307   2.670   4.545   6.959 -2.4119  2.2894 -3.0002
   69MOL    H12 8308   2.593   4.544   7.120  0.7088  1.1728  1.9022
   69MOL    H13 8309   2.603   4.792   6.927  0.5425 -2.8371 -2.1346
   69MOL    C14 8310   2.480   4.791   7.114 -0.5877 -0.0577 -0.6292
   69MOL    C15 8311   2.415   4.926   7.074  0.2160 -0.2191 -0.5204
   69MOL    F16 8312   2.309   4.904   6.998 -0.1553 -0.4152 -0.2742
   69MOL    H17 8313   2.395   4.731   7.144 -0.2668  0.4320  1.3100
   69MOL    H18 8314   2.547   4.796   7.200  0.0578 -0.1304 -1.1192
   69MOL    H19 8315   2.477   4.971   6.996 -0.3849 -1.0932 -1.5181
   69MOL    C20 8316   2.384   5.026   7.186 -0.3794 -0.0687 -0.9612
   69MOL    C21 8317   2.368   5.171   7.140 -0.4397  0.8179  0.6210
   69MOL    F22 8318   2.258   5.158   7.074  0.2108 -0.1624  1.0739
   69MOL    H23 8319   2.302   4.992   7.248  1.0958 -1.7088  0.1266
   69MOL    H24 8320   2.463   4.999   7.255 -0.7894  1.3807  0.1126
   69MOL    H25 8321   2.437   5.202   7.061  1.6620 -1.4395  1.5331
   69MOL    C26 8322   2.357   5.277   7.254 -0.1474  0.0229 -0.1124
   69MOL    C27 8323   2.486   5.314   7.322 -0.3427 -0.6369 -0.6172
   69MOL    F28 8324   2.557   5.389   7.235  0.2714 -0.1992  0.3492
   69MOL    H29 8325   2.299   5.362   7.216 -1.0593 -0.6201 -0.1819
   69MOL    H30 8326   2.294   5.227   7.328 -2.6170 -0.1691 -2.2760
   69MOL    H31 8327   2.542   5.228   7.359 -0.7597  0.1465  1.9438
   69MOL    C32 8328   2.467   5.402   7.446 -0.2887  0.2238  0.6587
   69MOL    C33 8329   2.596   5.455   7.511  0.5368  0.3749  0.3748
   69MOL    F34 8330   2.643   5.558   7.442  0.1245 -0.0954  0.3087
   69MOL    H35 8331   2.409   5.493   7.435  0.3301  0.6467  0.8578
   69MOL    H36 8332   2.405   5.343   7.513 -1.1577 -0.5065 -0.7727
   69MOL    H37 8333   2.673   5.378   7.507  0.4091  0.2615 -0.0029
   69MOL    C38 8334   2.573   5.518   7.642  0.1917 -1.2313  0.1581
   69MOL    C39 8335   2.695   5.545   7.724 -1.0741 -0.3054  0.1799
   69MOL    F40 8336   2.790   5.621   7.671  0.1595  0.0124  0.2967
   69MOL    H41 8337   2.510   5.607   7.644  1.5526 -0.2676  0.9432
   69MOL    H42 8338   2.521   5.446   7.706 -3.4228 -0.6583 -2.0140
   69MOL    H43 8339   2.741   5.448   7.742 -0.1106  0.0452 -0.3885
   69MOL    C44 8340   2.660   5.616   7.857 -0.2601  0.3326  0.0587
   69MOL    C45 8341   2.769   5.615   7.964 -0.3124  0.6017 -0.3550
   69MOL    F46 8342   2.875   5.672   7.909  0.3714 -0.3873  0.0112
   69MOL    H47 8343   2.618   5.715   7.843  3.2477  1.6962 -1.2352
   69MOL    H48 8344   2.572   5.568   7.901  1.1648 -1.4624  1.0666
   69MOL    H49 8345   2.793   5.512   7.988 -0.0294  0.8691  0.5345
   69MOL    C50 8346   2.717   5.684   0.080 -0.2843  0.0774 -0.4023
   69MOL    C51 8347   2.819   5.672   0.193 -0.4057 -0.6988  0.2252
   69MOL    F52 8348   2.799   5.787   0.263  0.4641  0.5446 -0.2069
   69MOL    H53 8349   2.714   5.788   0.049 -1.0495 -0.0175 -0.6530
   69MOL    H54 8350   2.618   5.652   0.113  0.7023 -2.6980  0.0222
   69MOL    H55 8351   2.922   5.676   0.160 -0.3739  0.9009  0.4920
   69MOL    C56 8352   2.782   5.560   0.290 -0.2625  0.5794 -0.1513
   69MOL    C57 8353   2.894   5.537   0.396  0.0932  0.2018 -0.3232
   69MOL    F58 8354   2.858   5.430   0.475 -0.0670  0.7676 -0.0988
   69MOL    H59 8355   2.689   5.594   0.336 -1.1506 -1.0289 -0.7031
   69MOL    H60 8356   2.756   5.473   0.228 -0.0291  0.0567  0.4813
   69MOL    H61 8357   2.900   5.617   0.470  0.5986  0.7890 -0.9885
   69MOL    C62 8358   3.028   5.508   0.338 -0.0624 -0.2579  0.4886
   69MOL    C63 8359   3.037   5.394   0.247 -0.2544  0.3099 -0.4856
   69MOL    F64 8360   2.999   5.434   0.126 -0.3834 -0.8041 -0.2584
   69MOL    H65 8361   3.060   5.599   0.288 -0.3898 -0.1542  0.4688
   69MOL    H66 8362   3.101   5.505   0.419  2.2649 -0.8648 -1.5789
   69MOL    H67 8363   2.958   5.324   0.278  1.0613 -1.3186 -0.7525
   69MOL    C68 8364   3.172   5.323   0.234  0.5434 -0.1017  0.5763
   69MOL    C69 8365   3.286   5.423   0.196  0.3799 -0.2356 -0.0972
   69MOL    F70 8366   3.309   5.503   0.298 -0.1745  0.1873  0.0376
   69MOL    H71 8367   3.200   5.266   0.323  3.6252  0.7428  0.1927
   69MOL    H72 8368   3.170   5.237   0.166 -0.1257 -0.1041  0.5989
   69MOL    H73 8369   3.257   5.498   0.122 -1.6776 -0.1521  0.7615
   69MOL    C74 8370   3.421   5.360   0.164 -0.0576 -0.2162  0.1471
   69MOL    C75 8371   3.537   5.459   0.119 -0.1091 -0.1842 -0.3863
   69MOL    F76 8372   3.604   5.499   0.231 -0.7888 -0.0884 -0.0254
   69MOL    H77 8373   3.452   5.295   0.246 -0.1830  0.6437  0.8876
   69MOL    H78 8374   3.392   5.296   0.080 -0.5681  1.6911 -1.1574
   69MOL    H79 8375   3.502   5.549   0.068 -1.2340 -0.2060  0.3344
   69MOL    C80 8376   3.634   5.382   0.042 -0.6221  0.4483  0.3529
   69MOL    C81 8377   3.603   5.360   7.895  0.2223 -0.5803  0.4855
   69MOL    F82 8378   3.649   5.470   7.829 -0.0057  0.5706  0.2137
   69MOL    H83 8379   3.734   5.423   0.054 -0.4215 -0.3992  1.8129
   69MOL    H84 8380   3.650   5.280   0.077  2.9191  0.6020 -0.5871
   69MOL    H85 8381   3.496   5.362   7.873  0.4432 -1.5179 -0.7206
   69MOL    C86 8382   3.681   5.237   7.837 -0.3770  0.1198 -0.0164
   69MOL    C87 8383   3.633   5.197   7.689  0.7082  0.0795  0.3695
   69MOL    F88 8384   3.519   5.132   7.702 -0.2479  0.6102  0.5851
   69MOL    H89 8385   3.787   5.264   7.840 -0.4845  1.3226 -4.2100
   69MOL    H90 8386   3.664   5.151   7.902 -0.4261  0.8346  0.9320
   69MOL    H91 8387   3.697   5.123   7.642 -2.4590 -2.8981  0.5444
   69MOL    C92 8388   3.629   5.302   7.582  0.2344  0.0418  0.1650
   69MOL    C93 8389   3.771   5.363   7.550 -0.5227  0.4346 -1.0317
   69MOL    F94 8390   3.864   5.262   7.547  0.0895  0.1663 -0.3018
   69MOL    H95 8391   3.590   5.254   7.492 -0.4483  1.1951 -0.1709
   69MOL    H96 8392   3.561   5.383   7.609  0.8768  1.5580 -2.5473
   69MOL    H97 8393   3.819   5.430   7.622  2.2508 -2.1703 -0.3489
   69MOL    C98 8394   3.784   5.426   7.417 -0.3834  0.2755 -1.1805
   69MOL    C99 8395   3.724   5.564   7.395 -0.6408  0.1051  0.3336
   69MOL   F100 8396   3.776   5.646   7.483 -0.2058 -0.6424  0.3320
   69MOL   H101 8397   3.890   5.441   7.398 -0.6041  0.8664 -1.9995
   69MOL   H102 8398   3.737   5.366   7.339 -1.4581 -1.1670  0.5476
   69MOL   H103 8399   3.619   5.554   7.423 -0.8744  0.5807 -0.3681
   69MOL   C104 8400   3.753   5.632   7.262  0.2901 -0.6977 -0.2950
   69MOL   C105 8401   3.636   5.725   7.220  0.6349 -0.2057 -0.3342
   69MOL   F106 8402   3.685   5.814   7.138  0.0434  0.2460 -0.2427
   69MOL   H107 8403   3.850   5.681   7.258  0.0351 -0.3341 -3.6979
   69MOL   H108 8404   3.759   5.559   7.181  2.5382 -1.1149  0.2330
   69MOL   H109 8405   3.613   5.785   7.308 -0.3003  0.1333 -0.8050
   69MOL   C110 8406   3.513   5.648   7.159 -0.0220 -0.7810  0.5467
   69MOL   C111 8407   3.418   5.733   7.078  0.5230  0.9864 -0.5617
   69MOL   F112 8408   3.310   5.650   7.052  0.1032 -0.0176 -0.0246
   69MOL   H113 8409   3.543   5.566   7.094  0.4254  0.7762 -1.2673
   69MOL   H114 8410   3.453   5.605   7.239 -0.8188  0.9378  0.8992
   69MOL   H115 8411   3.453   5.748   6.975  0.9242  1.7804 -0.3093
   69MOL   C116 8412   3.360   5.855   7.146  0.7962 -0.2060  0.4877
   69MOL   C117 8413   3.250   5.925   7.061  0.2251  0.2206 -0.2074
   69MOL   F118 8414   3.208   6.040   7.121 -0.2276  0.5182  1.0561
   69MOL   H119 8415   3.331   5.829   7.248 -0.0853 -0.7147  0.1145
   69MOL   H120 8416   3.435   5.929   7.176 -0.7225  1.6927 -0.2811
   69MOL   H121 8417   3.163   5.859   7.068 -0.1076  0.7089  0.3338
   69MOL   H122 8418   3.281   5.959   6.963  0.7070  1.1922  0.2735
   70MOL     C1 8419   5.502   2.838   6.228  0.3106  0.2992 -0.4813
   70MOL     C2 8420   5.572   2.855   6.091  0.7029  0.6598 -1.1031
   70MOL     F3 8421   5.479   2.901   5.999 -0.3864 -0.4053 -0.4234
   70MOL     H4 8422   5.425   2.763   6.212  0.1049  0.3011  0.4769
   70MOL     H5 8423   5.440   2.921   6.262  0.1148 -0.7665  1.8291
   70MOL     H6 8424   5.605   2.756   6.059 -1.6977 -0.5369 -0.0289
   70MOL     H7 8425   5.568   2.804   6.307  0.9819  1.6443 -0.4465
   70MOL     C8 8426   5.687   2.953   6.103 -0.3185  0.3117 -0.8595
   70MOL     C9 8427   5.761   2.971   5.968 -0.2289 -0.8638  0.3211
   70MOL    F10 8428   5.684   3.005   5.865 -0.2521  0.6317 -0.0312
   70MOL    H11 8429   5.659   3.046   6.151 -0.0519  1.7199 -3.3384
   70MOL    H12 8430   5.756   2.909   6.176 -0.6828  0.5561 -0.3683
   70MOL    H13 8431   5.803   2.877   5.933  2.4551 -0.0134  1.0764
   70MOL    C14 8432   5.877   3.076   5.982  0.6092  0.7009 -0.3611
   70MOL    C15 8433   5.983   3.082   5.868 -0.4260  0.5873  0.0709
   70MOL    F16 8434   6.057   3.182   5.901  0.0516 -0.3995 -0.0582
   70MOL    H17 8435   5.835   3.172   6.010 -1.4170 -0.3236  0.2245
   70MOL    H18 8436   5.921   3.045   6.077  0.9807 -0.2653 -0.8409
   70MOL    H19 8437   5.934   3.115   5.776 -0.3965 -0.2609 -0.2587
   70MOL    C20 8438   6.054   2.953   5.848  0.2017  0.8924 -0.1151
   70MOL    C21 8439   6.174   2.956   5.761  0.3550  0.1580 -0.3633
   70MOL    F22 8440   6.207   2.830   5.741 -0.3306  0.4627  0.0255
   70MOL    H23 8441   6.086   2.907   5.941 -1.2277  0.1734  0.0275
   70MOL    H24 8442   5.982   2.883   5.808 -0.3869  2.1430 -1.2941
   70MOL    H25 8443   6.259   3.005   5.808  1.7239 -1.7015 -0.8538
   70MOL    C26 8444   6.147   3.023   5.621  0.5683  0.2289 -0.7386
   70MOL    C27 8445   6.197   3.165   5.616 -0.5133  0.5705 -0.4376
   70MOL    F28 8446   6.323   3.165   5.666 -0.5847  0.0116 -0.1168
   70MOL    H29 8447   6.185   2.966   5.536 -1.3133 -0.8081 -0.9206
   70MOL    H30 8448   6.039   3.014   5.607  0.2200 -3.6533  3.2726
   70MOL    H31 8449   6.143   3.230   5.684 -0.7029  1.4194 -1.3795
   70MOL    C32 8450   6.185   3.240   5.482 -0.3248  0.3906 -0.8659
   70MOL    C33 8451   6.036   3.248   5.431 -1.0203  0.0420 -0.4511
   70MOL    F34 8452   5.957   3.305   5.529  0.1697  0.1736  0.2610
   70MOL    H35 8453   6.235   3.335   5.496  0.3974 -0.2604  1.1592
   70MOL    H36 8454   6.251   3.183   5.416 -3.5316 -2.3967 -1.8264
   70MOL    H37 8455   5.996   3.147   5.435  2.3725 -1.2889  1.8891
   70MOL    C38 8456   6.012   3.327   5.298  0.1490  0.7756 -0.3304
   70MOL    C39 8457   6.083   3.259   5.189 -0.3663 -0.5978  0.0859
   70MOL    F40 8458   6.028   3.137   5.173  0.0951  0.0464  0.0260
   70MOL    H41 8459   5.908   3.335   5.268  0.3226  0.6053 -0.9958
   70MOL    H42 8460   6.053   3.428   5.298  1.5876  0.2060 -0.1799
   70MOL    H43 8461   6.187   3.231   5.206  0.0940  1.0801  0.1315
   70MOL    C44 8462   6.068   3.335   5.050 -0.2888 -0.2330  0.1907
   70MOL    C45 8463   6.168   3.444   5.013 -0.2245 -0.3177 -0.6951
   70MOL    F46 8464   6.284   3.378   5.004 -0.1389 -0.4067 -0.0163
   70MOL    H47 8465   6.075   3.253   4.978 -0.0578  0.2418 -0.3226
   70MOL    H48 8466   5.966   3.373   5.051 -0.1398  0.1627  2.4328
   70MOL    H49 8467   6.177   3.518   5.092  1.2058 -1.1962 -0.0219
   70MOL    C50 8468   6.136   3.508   4.877  0.9542  0.0645 -0.1536
   70MOL    C51 8469   6.188   3.649   4.843  0.4525  0.1999  0.9592
   70MOL    F52 8470   6.161   3.741   4.940 -0.4549  0.1798  0.3457
   70MOL    H53 8471   6.156   3.438   4.796  0.6160 -0.9766  0.6444
   70MOL    H54 8472   6.027   3.502   4.882  1.0237 -0.2100  1.3228
   70MOL    H55 8473   6.145   3.671   4.746  2.5119 -0.0171 -0.0273
   70MOL    C56 8474   6.343   3.663   4.828 -0.1997  0.5223 -0.2483
   70MOL    C57 8475   6.403   3.577   4.717  0.3655 -0.0633 -0.2474
   70MOL    F58 8476   6.343   3.614   4.604  0.0289 -0.0934  0.3634
   70MOL    H59 8477   6.347   3.768   4.800  1.4184 -0.1420 -2.6465
   70MOL    H60 8478   6.382   3.653   4.929 -0.0274  0.9441 -0.2745
   70MOL    H61 8479   6.368   3.475   4.730 -1.4728  0.7049  1.0103
   70MOL    C62 8480   6.548   3.595   4.710 -0.7533  0.1790 -0.0922
   70MOL    C63 8481   6.613   3.554   4.577 -0.5213 -0.5098 -0.2161
   70MOL    F64 8482   6.744   3.568   4.587 -0.3783 -0.1301 -0.0609
   70MOL    H65 8483   6.568   3.702   4.720 -2.1345  0.3030  1.6473
   70MOL    H66 8484   6.607   3.543   4.784  1.2913 -0.0173 -1.8135
   70MOL    H67 8485   6.563   3.611   4.499 -1.7540 -0.7244  0.4082
   70MOL    C68 8486   6.591   3.408   4.540 -0.5916  0.1030 -0.8840
   70MOL    C69 8487   6.644   3.313   4.650 -0.5356 -0.6384  0.0253
   70MOL    F70 8488   6.567   3.322   4.754  0.1414 -0.3485 -0.7974
   70MOL    H71 8489   6.483   3.397   4.528 -0.6813  0.3002 -0.2360
   70MOL    H72 8490   6.642   3.387   4.445 -0.4608 -1.8524 -0.4125
   70MOL    H73 8491   6.741   3.350   4.681 -0.0251 -2.8005  1.1259
   70MOL    C74 8492   6.657   3.164   4.612 -0.0869 -0.4975 -0.3736
   70MOL    C75 8493   6.725   3.074   4.723 -0.0761 -0.6227 -0.2146
   70MOL    F76 8494   6.731   2.957   4.670  0.5438  0.1275  0.1278
   70MOL    H77 8495   6.557   3.126   4.591 -0.5111  1.2906 -1.6259
   70MOL    H78 8496   6.706   3.158   4.515  2.6576 -0.5532  0.9645
   70MOL    H79 8497   6.654   3.076   4.806 -0.0120  0.2058 -0.1732
   70MOL    C80 8498   6.871   3.116   4.764 -0.2479 -0.3263 -0.4753
   70MOL    C81 8499   6.976   3.115   4.650 -0.7820  0.4304  0.2070
   70MOL    F82 8500   6.973   3.220   4.571  0.7238  0.0339  0.5029
   70MOL    H83 8501   6.880   3.204   4.828  0.4709 -0.8298  0.1192
   70MOL    H84 8502   6.904   3.040   4.834 -0.1021  2.5551  2.7099
   70MOL    H85 8503   6.960   3.027   4.588 -0.5338  1.2234 -0.9921
   70MOL    C86 8504   7.119   3.104   4.718 -0.5750  0.9701 -0.4602
   70MOL    C87 8505   7.236   3.093   4.608 -0.0410 -0.4163 -0.0383
   70MOL    F88 8506   7.272   3.219   4.572  0.3023  0.1518  0.2864
   70MOL    H89 8507   7.126   3.193   4.780 -0.3265  1.1104 -0.6862
   70MOL    H90 8508   7.115   3.017   4.784 -0.1657  1.4822  0.2353
   70MOL    H91 8509   7.208   3.035   4.521 -1.5932 -0.0332  0.1949
   70MOL    C92 8510   7.366   3.023   4.662  0.1879 -0.6597 -0.4663
   70MOL    C93 8511   7.352   2.873   4.676 -0.2191 -0.2951 -0.0650
   70MOL    F94 8512   7.400   2.827   4.561 -0.2049 -0.1202 -1.0795
   70MOL    H95 8513   7.441   3.060   4.592  0.9659 -1.1798  0.0857
   70MOL    H96 8514   7.406   3.067   4.754 -0.3621 -0.2099 -0.4422
   70MOL    H97 8515   7.248   2.842   4.684 -0.0775 -0.9976 -0.8560
   70MOL    C98 8516   7.429   2.814   4.799 -0.2856  0.2960  0.3688
   70MOL    C99 8517   7.355   2.863   4.928 -0.1780 -0.7683 -0.1507
   70MOL   F100 8518   7.247   2.783   4.943 -0.1868 -0.8580 -0.3770
   70MOL   H101 8519   7.434   2.705   4.795 -3.0179  0.1048  0.6914
   70MOL   H102 8520   7.534   2.842   4.792  0.1269 -0.9386  1.4356
   70MOL   H103 8521   7.318   2.965   4.920 -0.1032 -0.6173  1.4497
   70MOL   C104 8522   7.443   2.858   5.054 -0.6082 -0.4568 -0.8948
   70MOL   C105 8523   7.381   2.931   5.170  0.3215  0.5336  0.2747
   70MOL   F106 8524   7.261   2.887   5.202 -0.3223 -0.4029  0.2603
   70MOL   H107 8525   7.468   2.761   5.095  2.7688  0.3375 -0.9224
   70MOL   H108 8526   7.542   2.898   5.031  0.3003 -1.4526  1.1615
   70MOL   H109 8527   7.355   3.025   5.120 -2.0366  0.4398  1.2588
   70MOL   C110 8528   7.468   2.952   5.290  0.4233  0.4356  0.3600
   70MOL   C111 8529   7.409   3.062   5.387  0.0069 -0.4529 -0.3084
   70MOL   F112 8530   7.288   3.009   5.444 -0.3952 -0.1148 -0.4613
   70MOL   H113 8531   7.465   2.860   5.349  1.2519  1.9673  2.8725
   70MOL   H114 8532   7.573   2.976   5.269  0.8730 -1.5383  0.2043
   70MOL   H115 8533   7.372   3.149   5.333 -0.5919 -0.2842  0.3656
   70MOL   C116 8534   7.496   3.094   5.512 -0.1612 -0.4709  0.1371
   70MOL   C117 8535   7.451   3.214   5.606 -0.9891 -0.0437 -1.0796
   70MOL   F118 8536   7.537   3.217   5.709 -0.6133 -0.4455 -0.4395
   70MOL   H119 8537   7.506   3.015   5.587  0.0315  1.6093  2.3878
   70MOL   H120 8538   7.599   3.112   5.481 -0.6440 -0.3571 -1.3955
   70MOL   H121 8539   7.353   3.202   5.652 -0.2068  0.1134  0.6520
   70MOL   H122 8540   7.454   3.307   5.550  2.4170  1.0691  0.7878
   71MOL     C1 8541   6.622   0.223   6.216  0.7519  0.0588  0.3241
   71MOL     C2 8542   6.492   0.297   6.179  0.2707 -0.1745  0.0717
   71MOL     F3 8543   6.515   0.419   6.222 -0.5848  0.3663  0.1944
   71MOL     H4 8544   6.614   0.115   6.212  2.7635 -0.0613 -1.1854
   71MOL     H5 8545   6.648   0.239   6.321  2.7302 -2.1177  0.1904
   71MOL     H6 8546   6.410   0.250   6.234  1.0101 -1.5520  0.0139
   71MOL     H7 8547   6.696   0.260   6.145  1.0150 -1.7254 -0.3521
   71MOL     C8 8548   6.458   0.307   6.030 -0.3404 -0.4143  1.3661
   71MOL     C9 8549   6.439   0.170   5.964  0.1476 -0.4663 -0.1261
   71MOL    F10 8550   6.328   0.124   6.026 -0.2683 -0.1463 -0.2733
   71MOL    H11 8551   6.367   0.366   6.019 -0.0408 -0.6119 -3.0802
   71MOL    H12 8552   6.528   0.361   5.967  0.1509 -0.5897  1.7559
   71MOL    H13 8553   6.521   0.102   5.987 -1.4326 -2.9683 -1.5040
   71MOL    C14 8554   6.405   0.183   5.809 -0.3051  0.2578 -0.8710
   71MOL    C15 8555   6.516   0.243   5.728 -0.6165  0.2909 -0.2938
   71MOL    F16 8556   6.622   0.184   5.778  0.1124 -0.0914 -0.9876
   71MOL    H17 8557   6.390   0.080   5.778  2.7474 -0.6198  0.3658
   71MOL    H18 8558   6.311   0.238   5.804  0.2919  1.2062 -1.8710
   71MOL    H19 8559   6.536   0.350   5.735 -1.4730  0.6318 -2.5248
   71MOL    C20 8560   6.512   0.215   5.578  0.7679  0.8461  0.4603
   71MOL    C21 8561   6.380   0.280   5.512 -0.2131  0.3683 -0.2838
   71MOL    F22 8562   6.399   0.416   5.529  0.2050 -0.1832  0.0223
   71MOL    H23 8563   6.590   0.263   5.519  0.6108  2.9134  1.9125
   71MOL    H24 8564   6.513   0.106   5.573  1.5913  0.8846 -0.5005
   71MOL    H25 8565   6.292   0.250   5.569  0.3754  0.6773  0.8006
   71MOL    C26 8566   6.359   0.247   5.362 -1.0522 -0.0675 -0.0139
   71MOL    C27 8567   6.229   0.305   5.304  0.1454 -1.3789 -0.3379
   71MOL    F28 8568   6.212   0.437   5.328  0.1398 -0.4324  0.0214
   71MOL    H29 8569   6.444   0.284   5.305 -1.6231  0.1249 -0.7444
   71MOL    H30 8570   6.363   0.138   5.354  0.3920  0.0974 -1.8721
   71MOL    H31 8571   6.145   0.266   5.362  1.7689  0.1470  3.1793
   71MOL    C32 8572   6.224   0.282   5.153 -0.9102 -0.2229  1.1513
   71MOL    C33 8573   6.082   0.297   5.089 -0.4265 -0.8330 -0.3902
   71MOL    F34 8574   6.088   0.269   4.957  0.0187 -0.2262 -0.4588
   71MOL    H35 8575   6.301   0.346   5.110 -2.5908  1.7217  0.9891
   71MOL    H36 8576   6.250   0.177   5.138  0.7490  0.3128  0.1671
   71MOL    H37 8577   6.051   0.402   5.091  0.7630 -0.4686 -0.1973
   71MOL    C38 8578   5.972   0.200   5.135  0.2316  0.3386  0.0418
   71MOL    C39 8579   5.830   0.251   5.086  0.4017 -0.1951  0.3957
   71MOL    F40 8580   5.825   0.249   4.953 -0.0775  0.1115 -0.1218
   71MOL    H41 8581   5.998   0.100   5.100 -1.3639  0.2008 -0.8109
   71MOL    H42 8582   5.978   0.197   5.244  2.4759 -0.3196 -0.0853
   71MOL    H43 8583   5.806   0.354   5.111  0.0056 -0.5883  1.7071
   71MOL    C44 8584   5.716   0.159   5.135 -0.0229 -0.0846 -0.1479
   71MOL    C45 8585   5.694   0.145   5.281  0.4338 -0.4037 -0.1414
   71MOL    F46 8586   5.679   0.270   5.329  0.1921 -0.0581  0.0299
   71MOL    H47 8587   5.622   0.194   5.092  0.4845 -0.5459 -1.6611
   71MOL    H48 8588   5.729   0.060   5.091  2.1982  0.4661 -0.7855
   71MOL    H49 8589   5.785   0.111   5.331 -0.0169 -1.3784  0.0325
   71MOL    C50 8590   5.564   0.081   5.323  0.5064  0.0310  0.1701
   71MOL    C51 8591   5.558   7.932   5.286  1.0376 -0.0496  1.1242
   71MOL    F52 8592   5.673   7.885   5.342  0.0958 -0.0201 -0.1630
   71MOL    H53 8593   5.539   0.104   5.427  0.9426 -1.3042  0.5661
   71MOL    H54 8594   5.485   0.130   5.266 -1.2686  1.1549  3.4082
   71MOL    H55 8595   5.582   7.897   5.186  1.5707 -3.3472  2.3553
   71MOL    C56 8596   5.441   7.844   5.347 -0.4831  0.2104  0.5086
   71MOL    C57 8597   5.442   7.692   5.315 -0.3148 -0.0816 -0.6421
   71MOL    F58 8598   5.465   7.684   5.188 -0.2333 -0.2657  0.2229
   71MOL    H59 8599   5.425   7.867   5.453 -2.0693  0.1582  0.2948
   71MOL    H60 8600   5.345   7.877   5.307  0.4116  1.5248 -0.5963
   71MOL    H61 8601   5.344   7.644   5.322 -0.3137 -0.0971 -0.7417
   71MOL    C62 8602   5.541   7.606   5.395 -0.4187 -0.3993 -0.2536
   71MOL    C63 8603   5.502   7.460   5.394  0.3587 -0.4918  0.3672
   71MOL    F64 8604   5.497   7.423   5.268 -0.4335  0.3744 -0.0378
   71MOL    H65 8605   5.638   7.628   5.350 -2.0588  2.4361 -2.5990
   71MOL    H66 8606   5.544   7.644   5.497  0.0472 -0.2830 -0.3095
   71MOL    H67 8607   5.404   7.439   5.435  0.6724  0.5296  1.6701
   71MOL    C68 8608   5.605   7.376   5.471  0.7061 -0.7317 -0.4929
   71MOL    C69 8609   5.626   7.402   5.621 -0.1952 -0.7628  0.2445
   71MOL    F70 8610   5.697   7.515   5.636 -0.2713  0.4279 -0.1075
   71MOL    H71 8611   5.572   7.272   5.477 -0.4285 -0.3090  1.1058
   71MOL    H72 8612   5.699   7.368   5.417  1.4434 -1.2812  0.8664
   71MOL    H73 8613   5.681   7.324   5.675 -0.8764 -1.0612  0.5123
   71MOL    C74 8614   5.494   7.420   5.697  0.1315  0.3403 -0.1403
   71MOL    C75 8615   5.515   7.442   5.848  0.0216  0.1961 -0.2730
   71MOL    F76 8616   5.393   7.437   5.901 -0.4139  0.1322  0.1640
   71MOL    H77 8617   5.441   7.508   5.659 -0.5925 -0.9041 -2.0486
   71MOL    H78 8618   5.426   7.336   5.688  1.9384 -1.1432 -0.1546
   71MOL    H79 8619   5.547   7.545   5.863  1.9295 -0.3096 -0.8507
   71MOL    C80 8620   5.613   7.353   5.932  0.4314  0.2002  0.5616
   71MOL    C81 8621   5.576   7.206   5.927 -0.0213  0.1201 -0.4116
   71MOL    F82 8622   5.574   7.171   5.799 -0.9034 -0.0774  0.1831
   71MOL    H83 8623   5.711   7.377   5.890  1.5244  1.0786  3.4399
   71MOL    H84 8624   5.609   7.392   6.034  0.0839  0.9522  0.2713
   71MOL    H85 8625   5.475   7.194   5.967  0.1342  1.9531  0.5844
   71MOL    C86 8626   5.672   7.117   6.019  0.5846 -0.3403 -0.4028
   71MOL    C87 8627   5.618   6.985   6.076 -0.2596 -0.4313 -0.0827
   71MOL    F88 8628   5.590   6.907   5.976  0.4452 -0.1165 -0.1577
   71MOL    H89 8629   5.764   7.092   5.967  1.0783  0.2468  0.1822
   71MOL    H90 8630   5.714   7.186   6.091 -0.9385  1.8958 -1.6000
   71MOL    H91 8631   5.525   7.003   6.130  0.6034  0.3381  1.1960
   71MOL    C92 8632   5.710   6.904   6.175  0.3045 -0.8761 -0.4045
   71MOL    C93 8633   5.844   6.868   6.130  0.2137  0.3815 -0.3751
   71MOL    F94 8634   5.909   6.974   6.089 -0.1058 -0.1315 -0.6119
   71MOL    H95 8635   5.717   6.960   6.268  0.1909  1.0930 -1.5543
   71MOL    H96 8636   5.659   6.811   6.200  0.4687 -1.0870 -0.8472
   71MOL    H97 8637   5.827   6.810   6.039  0.6177 -1.3860  0.6483
   71MOL    C98 8638   5.933   6.802   6.233 -0.4145  0.1372  0.8247
   71MOL    C99 8639   5.886   6.663   6.279 -0.1792 -0.1014  0.0640
   71MOL   F100 8640   5.880   6.578   6.172  0.4503 -0.2985  0.2466
   71MOL   H101 8641   6.029   6.789   6.184 -0.8330  0.0120  0.0281
   71MOL   H102 8642   5.953   6.871   6.315 -1.9263  1.3115  0.2424
   71MOL   H103 8643   5.782   6.664   6.312 -0.3113 -3.4795 -0.0657
   71MOL   C104 8644   5.977   6.592   6.382  0.7084  0.4987  0.8458
   71MOL   C105 8645   5.975   6.635   6.529 -0.1265 -0.2263  0.1449
   71MOL   F106 8646   5.859   6.604   6.595  0.0038  0.0458  0.5076
   71MOL   H107 8647   5.953   6.485   6.381 -1.8896  0.9784  3.7803
   71MOL   H108 8648   6.080   6.596   6.346  1.1218 -2.6896  1.5134
   71MOL   H109 8649   5.989   6.742   6.544 -0.9255 -0.0853 -0.0829
   71MOL   C110 8650   6.077   6.561   6.621  0.3287 -0.0602  0.2299
   71MOL   C111 8651   6.055   6.409   6.637 -0.0933  0.2278  0.1859
   71MOL   F112 8652   6.079   6.344   6.521 -0.1868 -0.1660  0.0668
   71MOL   H113 8653   6.177   6.564   6.578  0.0966 -1.5743 -0.4425
   71MOL   H114 8654   6.088   6.604   6.720  0.6131  0.4005 -0.0017
   71MOL   H115 8655   5.953   6.390   6.673 -0.1052 -3.2140 -1.4138
   71MOL   C116 8656   6.156   6.334   6.727 -0.1223 -0.7305  0.0824
   71MOL   C117 8657   6.107   6.205   6.776  0.0279 -0.1582  0.6785
   71MOL   F118 8658   6.202   6.147   6.849 -0.2255  0.6462  0.1167
   71MOL   H119 8659   6.252   6.328   6.674  1.0609 -1.6488  2.2580
   71MOL   H120 8660   6.170   6.390   6.819 -4.9349  1.7138 -0.5078
   71MOL   H121 8661   6.102   6.131   6.696 -0.5328 -0.5177  1.0439
   71MOL   H122 8662   6.010   6.211   6.826 -0.8683 -0.2828 -1.0070
   72MOL     C1 8663   7.141   6.320   4.695 -1.0777  0.6341  0.1229
   72MOL     C2 8664   7.104   6.451   4.763 -0.2097 -0.0427 -0.6470
   72MOL     F3 8665   7.203   6.499   4.833 -0.2623 -0.0136 -0.4157
   72MOL     H4 8666   7.176   6.235   4.753 -0.2860  0.7212 -0.2264
   72MOL     H5 8667   7.202   6.341   4.607  0.5078  0.9578  1.2821
   72MOL     H6 8668   7.030   6.435   4.842  0.8593  1.3725  0.6652
   72MOL     H7 8669   7.051   6.280   4.648 -0.5392 -0.3375 -0.1019
   72MOL     C8 8670   7.052   6.560   4.674  0.4564  0.1274 -0.4270
   72MOL     C9 8671   7.011   6.694   4.730 -0.4652 -0.1108 -0.3821
   72MOL    F10 8672   6.985   6.792   4.639 -0.1223 -0.1875 -0.4466
   72MOL    H11 8673   7.129   6.582   4.600 -0.3108  1.0972 -0.9446
   72MOL    H12 8674   6.976   6.519   4.608 -0.9470  2.6967 -0.4711
   72MOL    H13 8675   7.088   6.745   4.789 -0.9006  2.0795 -1.6873
   72MOL    C14 8676   6.888   6.698   4.823 -0.2823  0.1167  0.9220
   72MOL    C15 8677   6.753   6.668   4.750  0.0739  0.5234  0.0535
   72MOL    F16 8678   6.764   6.539   4.707 -0.3003 -0.0392  0.1620
   72MOL    H17 8679   6.908   6.649   4.918  1.2058 -0.7049  0.2001
   72MOL    H18 8680   6.875   6.803   4.851 -0.3958  0.3167  0.1316
   72MOL    H19 8681   6.743   6.734   4.663 -1.3561 -0.4178 -0.5126
   72MOL    C20 8682   6.632   6.687   4.834  0.4498 -0.3254  0.4528
   72MOL    C21 8683   6.505   6.628   4.773 -0.0023 -0.1138 -0.0838
   72MOL    F22 8684   6.404   6.626   4.860  0.2386 -0.6551 -0.0200
   72MOL    H23 8685   6.644   6.640   4.932  2.8846 -1.6211 -0.4116
   72MOL    H24 8686   6.620   6.794   4.852 -1.9315 -0.0079 -2.6776
   72MOL    H25 8687   6.504   6.526   4.736 -0.0467 -1.0912  2.4801
   72MOL    C26 8688   6.448   6.707   4.660 -0.1155 -0.8387  0.8991
   72MOL    C27 8689   6.413   6.857   4.688 -0.4489  0.6923 -0.3078
   72MOL    F28 8690   6.516   6.945   4.678  0.1765 -0.1409 -0.2557
   72MOL    H29 8691   6.501   6.700   4.564 -1.0339 -1.2676  0.4168
   72MOL    H30 8692   6.353   6.658   4.640 -1.0815  1.2123  0.3394
   72MOL    H31 8693   6.386   6.879   4.791  1.3619 -0.1841  0.3619
   72MOL    C32 8694   6.296   6.903   4.600 -0.0429  0.1322 -0.0347
   72MOL    C33 8695   6.245   7.041   4.640 -0.6471 -0.2984  0.9158
   72MOL    F34 8696   6.147   7.060   4.558  0.3105  0.0505 -0.3801
   72MOL    H35 8697   6.333   6.898   4.498 -1.6475 -0.4868 -0.6116
   72MOL    H36 8698   6.212   6.833   4.600 -0.8311  1.0014 -2.9856
   72MOL    H37 8699   6.313   7.124   4.621 -0.4712 -0.6832 -0.1945
   72MOL    C38 8700   6.189   7.050   4.781  0.4901 -0.7275  0.5607
   72MOL    C39 8701   6.118   7.188   4.807  0.0003  0.2955  0.6135
   72MOL    F40 8702   6.000   7.190   4.742  0.2399 -0.0351 -0.2776
   72MOL    H41 8703   6.114   6.977   4.810  0.2197 -0.7009 -0.0642
   72MOL    H42 8704   6.267   7.031   4.855 -0.0036  1.4235  1.6589
   72MOL    H43 8705   6.164   7.271   4.755 -2.1653 -1.3237 -4.2065
   72MOL    C44 8706   6.097   7.223   4.962 -0.0806 -0.4661  0.7241
   72MOL    C45 8707   6.229   7.225   5.040 -0.4444 -0.0122  0.6812
   72MOL    F46 8708   6.318   7.291   4.961  0.1651 -0.5042  0.4805
   72MOL    H47 8709   6.067   7.327   4.964 -0.9292 -0.6900 -0.1585
   72MOL    H48 8710   6.028   7.151   5.006 -0.2862 -0.7775 -0.1050
   72MOL    H49 8711   6.260   7.122   5.056 -0.8514 -0.0525  1.2125
   72MOL    C50 8712   6.236   7.279   5.182  0.1547 -0.1578  0.2591
   72MOL    C51 8713   6.120   7.221   5.266  0.2434  0.0814  0.6054
   72MOL    F52 8714   6.127   7.087   5.257 -0.2463  0.4167 -0.1827
   72MOL    H53 8715   6.332   7.251   5.224  1.1635  0.9728 -1.2285
   72MOL    H54 8716   6.225   7.387   5.185 -1.1834 -0.1185 -2.9801
   72MOL    H55 8717   6.034   7.254   5.208  2.2387  1.9496 -1.4325
   72MOL    C56 8718   6.126   7.277   5.408 -0.0443 -0.2986 -0.2853
   72MOL    C57 8719   6.076   7.419   5.423 -0.4601 -0.1049 -0.6229
   72MOL    F58 8720   5.952   7.420   5.381 -0.1555 -0.4182 -0.0155
   72MOL    H59 8721   6.060   7.221   5.474  1.3640 -0.4321  1.0539
   72MOL    H60 8722   6.227   7.283   5.449 -0.9149 -0.6475  2.0168
   72MOL    H61 8723   6.128   7.486   5.354  1.5644 -2.1956 -1.2064
   72MOL    C62 8724   6.080   7.472   5.567 -0.9499  0.2103 -0.8872
   72MOL    C63 8725   6.028   7.613   5.596 -0.6362 -0.9106 -0.3833
   72MOL    F64 8726   6.048   7.646   5.729  0.4184 -0.0100  0.0136
   72MOL    H65 8727   6.024   7.405   5.632 -1.9022  0.3176 -1.5800
   72MOL    H66 8728   6.186   7.464   5.593 -0.7044  2.3971 -1.0908
   72MOL    H67 8729   5.921   7.596   5.588 -0.5637 -1.3865 -0.3548
   72MOL    C68 8730   6.085   7.721   5.500  0.5623 -0.1471 -0.4563
   72MOL    C69 8731   6.069   7.867   5.551 -0.5504 -0.7693  0.0892
   72MOL    F70 8732   6.131   7.951   5.461  0.2318 -0.5564  0.3529
   72MOL    H71 8733   6.189   7.693   5.488  0.0762 -1.7038 -1.0576
   72MOL    H72 8734   6.052   7.709   5.397 -0.4030 -0.9560 -0.0649
   72MOL    H73 8735   6.124   7.877   5.644  0.4724  0.7231 -0.6489
   72MOL    C74 8736   5.919   7.918   5.560 -0.0559 -0.4991  0.3345
   72MOL    C75 8737   5.910   0.064   5.575 -1.2077  0.0552  0.1654
   72MOL    F76 8738   5.779   0.083   5.565  0.5084  0.2737  0.3078
   72MOL    H77 8739   5.878   7.891   5.463 -0.0130  1.3807 -0.2423
   72MOL    H78 8740   5.864   7.863   5.636  0.1182 -0.4451  0.4998
   72MOL    H79 8741   5.975   0.112   5.502 -1.5940  0.6537  0.2140
   72MOL    C80 8742   5.952   0.126   5.712  0.2819  0.2649  0.5048
   72MOL    C81 8743   5.975   0.281   5.716 -0.5783 -0.5678  0.3563
   72MOL    F82 8744   6.068   0.309   5.625 -0.1048 -0.4247  0.3206
   72MOL    H83 8745   5.885   0.097   5.793  2.4119  0.8291  2.5330
   72MOL    H84 8746   6.046   0.079   5.741  1.0053  1.0228 -0.5575
   72MOL    H85 8747   6.021   0.316   5.808  1.1868 -2.5602  0.2516
   72MOL    C86 8748   5.859   0.371   5.682  1.0454 -0.0212  0.8659
   72MOL    C87 8749   5.730   0.342   5.767 -0.0942  0.6496  0.0935
   72MOL    F88 8750   5.751   0.345   5.899 -0.6836 -0.1218 -0.1869
   72MOL    H89 8751   5.884   0.476   5.689  2.4463 -0.3657  1.2630
   72MOL    H90 8752   5.834   0.350   5.578 -1.0514 -1.6582  1.6516
   72MOL    H91 8753   5.697   0.241   5.740 -2.6233  1.5037 -0.1309
   72MOL    C92 8754   5.608   0.427   5.741  0.9130 -0.4525 -0.7000
   72MOL    C93 8755   5.475   0.370   5.795  0.2034  0.7533  0.4563
   72MOL    F94 8756   5.458   0.405   5.919 -0.1872  0.1053 -0.2596
   72MOL    H95 8757   5.622   0.527   5.782 -1.8554 -0.3660  0.1208
   72MOL    H96 8758   5.602   0.442   5.634  0.0374 -1.4975 -0.8048
   72MOL    H97 8759   5.488   0.262   5.806  1.2144  0.6298 -1.6841
   72MOL    C98 8760   5.345   0.395   5.714 -0.1848 -0.3234  0.9950
   72MOL    C99 8761   5.361   0.320   5.578  0.2844 -0.1763 -0.0878
   72MOL   F100 8762   5.351   0.192   5.607 -0.4936 -0.7185 -0.4784
   72MOL   H101 8763   5.252   0.362   5.762 -0.3539 -1.6894 -0.2482
   72MOL   H102 8764   5.325   0.501   5.697  0.2742 -0.1655  1.4483
   72MOL   H103 8765   5.457   0.324   5.527 -0.9879  0.0660 -2.5325
   72MOL   C104 8766   5.257   0.358   5.477 -0.5479  0.0105  0.1181
   72MOL   C105 8767   5.287   0.475   5.381 -0.3949  0.3998 -0.2059
   72MOL   F106 8768   5.399   0.440   5.312  0.4753 -0.2579 -0.2731
   72MOL   H107 8769   5.236   0.274   5.411  2.4827 -0.1962 -0.6539
   72MOL   H108 8770   5.158   0.364   5.524  0.1606 -0.4648  1.6959
   72MOL   H109 8771   5.304   0.568   5.435 -0.4340  0.0025  0.4959
   72MOL   C110 8772   5.164   0.499   5.294  0.0412  0.2739 -0.4953
   72MOL   C111 8773   5.186   0.598   5.177 -0.1563  0.9064  0.5241
   72MOL   F112 8774   5.286   0.551   5.101 -0.4772  0.2377  0.1883
   72MOL   H113 8775   5.119   0.407   5.258 -1.3514  1.2223 -1.1985
   72MOL   H114 8776   5.080   0.533   5.354  0.0306 -1.2617  0.3945
   72MOL   H115 8777   5.228   0.691   5.214  1.4930  0.3722  0.0172
   72MOL   C116 8778   5.057   0.619   5.098  0.8725  0.3313 -0.0371
   72MOL   C117 8779   5.081   0.726   4.990  1.0275 -0.3489  0.4258
   72MOL   F118 8780   5.074   0.849   5.044 -0.0796  0.7171  0.1969
   72MOL   H119 8781   5.025   0.534   5.038  0.2820 -0.4746  1.3699
   72MOL   H120 8782   4.970   0.640   5.160  2.3089 -0.9520  2.5165
   72MOL   H121 8783   4.996   0.731   4.922  1.5992 -2.1165 -0.4437
   72MOL   H122 8784   5.173   0.727   4.932  1.1525  1.0672  0.6213
   73MOL     C1 8785   0.926   1.476   2.704  0.0842  0.2949  0.0895
   73MOL     C2 8786   0.926   1.401   2.837 -0.7094  0.5064  0.2606
   73MOL     F3 8787   0.800   1.366   2.861 -0.8292  0.0668 -0.1930
   73MOL     H4 8788   1.025   1.519   2.690 -0.1789  0.3591 -1.8144
   73MOL     H5 8789   0.852   1.557   2.704  0.6676  0.8511  1.8813
   73MOL     H6 8790   0.966   1.467   2.914 -0.1422 -0.8789  1.1681
   73MOL     H7 8791   0.897   1.419   2.616 -0.3352 -0.7657  0.9108
   73MOL     C8 8792   0.998   1.268   2.821  0.2154 -0.1457 -0.1832
   73MOL     C9 8793   1.151   1.280   2.781  0.2014 -0.1654  0.1759
   73MOL    F10 8794   1.222   1.333   2.884  0.2741  0.1996 -0.1266
   73MOL    H11 8795   1.000   1.228   2.922  0.4664  1.4537  0.4515
   73MOL    H12 8796   0.940   1.205   2.753 -2.0168  0.5838  1.0060
   73MOL    H13 8797   1.158   1.339   2.689  2.2892 -1.6788 -0.6997
   73MOL    C14 8798   1.226   1.147   2.760  0.3346 -0.1913  0.6036
   73MOL    C15 8799   1.204   1.081   2.625 -0.2926 -0.0348 -0.0344
   73MOL    F16 8800   1.250   1.177   2.543 -0.7429 -0.3415 -0.0808
   73MOL    H17 8801   1.333   1.168   2.760  0.5965 -1.4682 -1.0423
   73MOL    H18 8802   1.209   1.085   2.848 -0.5982 -0.2338  0.4062
   73MOL    H19 8803   1.101   1.078   2.590  0.6630  2.1113 -3.2496
   73MOL    C20 8804   1.270   0.946   2.613  0.5584  0.0877  0.9607
   73MOL    C21 8805   1.216   0.843   2.715 -0.3893  0.0636  0.1739
   73MOL    F22 8806   1.085   0.836   2.711  0.0176  0.2662  0.0286
   73MOL    H23 8807   1.257   0.921   2.508 -0.3243  0.7128  0.9201
   73MOL    H24 8808   1.374   0.967   2.637  0.9302  1.5098 -1.7322
   73MOL    H25 8809   1.246   0.877   2.814  0.6921 -0.8640  0.1810
   73MOL    C26 8810   1.276   0.704   2.708 -1.0986  0.1548  0.3602
   73MOL    C27 8811   1.429   0.693   2.714  0.2922 -0.4614 -0.2914
   73MOL    F28 8812   1.463   0.738   2.829 -0.4289 -0.4928 -0.4563
   73MOL    H29 8813   1.233   0.649   2.792  0.1801  1.3991  1.8670
   73MOL    H30 8814   1.243   0.662   2.613 -1.0860  0.2276  0.3240
   73MOL    H31 8815   1.459   0.750   2.626 -1.8881  1.2887  0.0463
   73MOL    C32 8816   1.485   0.547   2.707 -0.6376  0.4088  0.2323
   73MOL    C33 8817   1.451   0.454   2.832 -0.1442 -0.4891  0.4060
   73MOL    F34 8818   1.320   0.441   2.848 -0.1972 -0.1289  0.1165
   73MOL    H35 8819   1.451   0.499   2.615 -0.0803 -0.0877  0.2802
   73MOL    H36 8820   1.593   0.557   2.706 -0.3719 -1.9902  0.8283
   73MOL    H37 8821   1.481   0.499   2.927  0.0751  1.6825 -0.6691
   73MOL    C38 8822   1.523   0.314   2.830 -0.1391  0.4935 -0.1237
   73MOL    C39 8823   1.476   0.221   2.719 -0.0645 -0.2825 -0.0973
   73MOL    F40 8824   1.561   0.120   2.717  0.0807  0.2204 -0.0088
   73MOL    H41 8825   1.629   0.335   2.816  0.2379 -0.4226  1.2806
   73MOL    H42 8826   1.511   0.264   2.926  0.8102 -1.3062 -0.9253
   73MOL    H43 8827   1.494   0.265   2.620  1.2344  1.1859  0.7701
   73MOL    C44 8828   1.340   0.160   2.722 -0.4711  0.2696  0.4329
   73MOL    C45 8829   1.313   0.063   2.610  0.3254  0.2287  0.2580
   73MOL    F46 8830   1.413   7.973   2.603 -0.1420  0.0253 -0.3149
   73MOL    H47 8831   1.329   0.105   2.816 -0.7227 -1.1212 -0.4026
   73MOL    H48 8832   1.260   0.234   2.728 -1.2251 -0.4469 -0.7439
   73MOL    H49 8833   1.311   0.109   2.512  0.2390 -1.5027 -0.5672
   73MOL    C50 8834   1.173   0.005   2.621 -0.1382  0.2042  0.0132
   73MOL    C51 8835   1.125   7.939   2.494  0.1308  0.7525 -0.5888
   73MOL    F52 8836   1.182   7.819   2.503 -0.0955 -0.0415 -0.2649
   73MOL    H53 8837   1.171   7.933   2.699  0.6579 -1.8238 -1.8621
   73MOL    H54 8838   1.100   0.079   2.655 -0.8965  0.0592 -1.2482
   73MOL    H55 8839   1.152   0.001   2.411  0.0557  0.2232 -1.0313
   73MOL    C56 8840   0.973   7.926   2.487  0.8095 -0.6559  0.5443
   73MOL    C57 8841   0.918   7.862   2.354 -0.2230  0.2222 -0.0946
   73MOL    F58 8842   0.943   7.733   2.347 -0.0137 -0.0132 -0.1014
   73MOL    H59 8843   0.929   7.871   2.571  3.6583 -1.5855  1.4692
   73MOL    H60 8844   0.934   0.023   2.505  1.6919 -0.8134  3.6362
   73MOL    H61 8845   0.976   7.896   2.268 -0.4455  2.7417  0.7006
   73MOL    C62 8846   0.767   7.885   2.319 -0.0769  0.6373 -0.7582
   73MOL    C63 8847   0.711   7.838   2.191  0.3510  0.6659  1.0742
   73MOL    F64 8848   0.577   7.860   2.183  0.3528 -0.4924 -0.3558
   73MOL    H65 8849   0.707   7.851   2.404  1.2266 -1.4711 -0.6221
   73MOL    H66 8850   0.762   7.993   2.313  1.4404  0.9424  2.2179
   73MOL    H67 8851   0.722   7.729   2.190 -1.7132  0.4366  0.3877
   73MOL    C68 8852   0.787   7.888   2.067 -0.8906 -0.0788  0.0438
   73MOL    C69 8853   0.778   0.041   2.034  0.2939 -0.1761  0.3122
   73MOL    F70 8854   0.843   0.101   2.136  0.2027 -0.1199  0.3102
   73MOL    H71 8855   0.890   7.853   2.071 -1.1182 -0.6350  1.3447
   73MOL    H72 8856   0.751   7.833   1.980  0.8393 -0.9985 -0.1024
   73MOL    H73 8857   0.677   0.080   2.037 -0.2406 -1.1970 -2.4289
   73MOL    C74 8858   0.837   0.082   1.900  0.0783  0.4538 -0.2336
   73MOL    C75 8859   0.884   0.224   1.887 -0.1508  0.3246  0.0679
   73MOL    F76 8860   0.975   0.225   1.790 -0.0919  0.2486  0.4035
   73MOL    H77 8861   0.924   0.017   1.908  0.7932  1.4586  0.2872
   73MOL    H78 8862   0.770   0.057   1.817  0.3365  1.3836 -0.7314
   73MOL    H79 8863   0.935   0.253   1.978  0.7446  0.9049 -0.6130
   73MOL    C80 8864   0.778   0.332   1.864  0.4086  0.4189 -0.2895
   73MOL    C81 8865   0.827   0.475   1.849 -0.2534  0.4834  0.5002
   73MOL    F82 8866   0.715   0.550   1.824  0.1572 -0.1035 -0.7684
   73MOL    H83 8867   0.709   0.301   1.786 -1.8262  0.5804  1.5674
   73MOL    H84 8868   0.710   0.335   1.949 -0.5532  0.3107 -1.0433
   73MOL    H85 8869   0.892   0.476   1.761  0.6225  0.5880  1.1350
   73MOL    C86 8870   0.912   0.530   1.968 -0.0602 -0.4186  0.7828
   73MOL    C87 8871   0.908   0.691   1.981 -0.1253 -0.5546 -0.1463
   73MOL    F88 8872   0.931   0.730   2.109  0.3921  0.1436  0.1078
   73MOL    H89 8873   0.870   0.490   2.060  0.5651  0.1745  1.3358
   73MOL    H90 8874   1.015   0.495   1.959 -0.1558 -0.3058 -0.8152
   73MOL    H91 8875   0.811   0.738   1.973  0.2518  0.4445  0.9388
   73MOL    C92 8876   1.007   0.760   1.884 -0.3227  0.1659  0.1381
   73MOL    C93 8877   0.968   0.763   1.730  0.7833 -0.2293 -0.3707
   73MOL    F94 8878   0.843   0.809   1.707  0.2252 -0.6840 -0.5681
   73MOL    H95 8879   1.018   0.866   1.907  1.9985 -0.3774  1.6553
   73MOL    H96 8880   1.107   0.724   1.904 -1.1420 -2.1173  0.2501
   73MOL    H97 8881   0.968   0.662   1.688  1.9291 -0.9116  1.2355
   73MOL    C98 8882   1.071   0.858   1.659 -0.5966  0.3915 -0.2435
   73MOL    C99 8883   1.066   0.867   1.503 -0.0656  0.1601 -0.2060
   73MOL   F100 8884   0.957   0.936   1.459 -0.0507  0.6548  0.6782
   73MOL   H101 8885   1.051   0.959   1.696 -0.6983  0.1911  0.2457
   73MOL   H102 8886   1.173   0.836   1.691  0.5635  1.4581 -3.0459
   73MOL   H103 8887   1.056   0.767   1.463 -3.4696  0.3203  0.1170
   73MOL   C104 8888   1.190   0.936   1.444 -0.7044  0.3799  0.4870
   73MOL   C105 8889   1.200   0.937   1.287  0.5771 -0.3314 -0.3199
   73MOL   F106 8890   1.285   1.034   1.252  0.3053  0.5798 -0.3548
   73MOL   H107 8891   1.199   1.034   1.490 -1.1406  0.4509  0.4233
   73MOL   H108 8892   1.279   0.886   1.482 -0.1064  1.9986  1.2397
   73MOL   H109 8893   1.102   0.969   1.253  0.7642  0.7265  0.1027
   73MOL   C110 8894   1.238   0.801   1.225  0.0508  0.2236  0.1817
   73MOL   C111 8895   1.383   0.754   1.234  0.8896 -0.2166  0.2782
   73MOL   F112 8896   1.419   0.717   1.358  0.7744 -0.2019  0.6636
   73MOL   H113 8897   1.173   0.724   1.267  0.7970 -0.0316  0.8758
   73MOL   H114 8898   1.206   0.813   1.121  0.5011  0.8794  0.1199
   73MOL   H115 8899   1.452   0.835   1.213 -2.2653  2.1504 -1.3765
   73MOL   C116 8900   1.416   0.631   1.139 -0.1232 -0.3206 -0.3848
   73MOL   C117 8901   1.415   0.683   0.997 -0.0020  0.4464  0.3755
   73MOL   F118 8902   1.493   0.790   0.983 -0.1260  0.6172  0.4317
   73MOL   H119 8903   1.510   0.588   1.173 -0.0656  0.0612 -0.0568
   73MOL   H120 8904   1.346   0.547   1.137  1.0197 -1.3235  0.9586
   73MOL   H121 8905   1.313   0.704   0.964 -0.1834 -0.5083  0.3105
   73MOL   H122 8906   1.450   0.608   0.926  0.8889  2.3222 -1.2052
   74MOL     C1 8907   4.260   0.797   3.928  0.3231  0.1407  0.7682
   74MOL     C2 8908   4.133   0.735   3.986 -0.2771  0.0168 -0.0345
   74MOL     F3 8909   4.178   0.636   4.064  0.1128  0.0225 -0.0124
   74MOL     H4 8910   4.322   0.729   3.868  0.9430  1.0423  0.3665
   74MOL     H5 8911   4.325   0.842   4.003 -0.4802  3.6920 -0.5244
   74MOL     H6 8912   4.072   0.691   3.908  0.3262  2.1320 -1.7323
   74MOL     H7 8913   4.225   0.883   3.871 -3.6702 -2.4372 -0.8245
   74MOL     C8 8914   4.049   0.838   4.068  0.8099  0.3652 -0.0102
   74MOL     C9 8915   3.909   0.788   4.111 -0.3169  0.1104 -0.4965
   74MOL    F10 8916   3.927   0.671   4.169 -0.4107 -0.1160 -0.5934
   74MOL    H11 8917   4.117   0.858   4.150  0.1952  3.0792 -0.1219
   74MOL    H12 8918   4.039   0.923   4.000  0.1038 -1.6397 -2.4892
   74MOL    H13 8919   3.843   0.768   4.027 -1.6420  1.8308  0.1109
   74MOL    C14 8920   3.845   0.883   4.215  0.4383 -0.2458 -0.0667
   74MOL    C15 8921   3.709   0.845   4.261 -0.1690  0.3436 -0.0103
   74MOL    F16 8922   3.670   0.924   4.363 -0.1684 -0.3158 -0.5167
   74MOL    H17 8923   3.915   0.896   4.297 -0.0450 -1.6160  0.5793
   74MOL    H18 8924   3.837   0.984   4.174 -3.3202 -1.4308 -2.5333
   74MOL    H19 8925   3.719   0.743   4.299  3.1833  0.0348 -1.5341
   74MOL    C20 8926   3.597   0.859   4.161 -0.0631 -0.2022  0.5180
   74MOL    C21 8927   3.592   0.998   4.093 -0.1170 -0.2988 -0.0267
   74MOL    F22 8928   3.685   0.993   3.997  0.3789 -0.0746  0.2557
   74MOL    H23 8929   3.610   0.789   4.078  0.7902  0.4575  0.0939
   74MOL    H24 8930   3.496   0.835   4.195  0.3761  0.6449  2.4549
   74MOL    H25 8931   3.619   1.068   4.172  1.5352 -0.6002 -0.3015
   74MOL    C26 8932   3.458   1.032   4.029 -0.0508 -0.0731 -0.4380
   74MOL    C27 8933   3.459   1.173   3.964 -0.0132  0.1997 -0.2629
   74MOL    F28 8934   3.344   1.179   3.897 -0.2475 -0.1341 -0.0351
   74MOL    H29 8935   3.436   0.949   3.961 -2.0029  0.2721 -0.2436
   74MOL    H30 8936   3.371   1.022   4.093  1.1355 -0.3385  1.1542
   74MOL    H31 8937   3.532   1.189   3.885 -0.2620 -1.4897 -0.8479
   74MOL    C32 8938   3.472   1.279   4.070 -0.9851 -0.2322 -0.1383
   74MOL    C33 8939   3.455   1.419   4.026  0.2385  0.4541  0.5037
   74MOL    F34 8940   3.350   1.446   3.956  0.4697 -0.1753 -0.3004
   74MOL    H35 8941   3.396   1.253   4.143 -1.7205  0.8877 -0.4985
   74MOL    H36 8942   3.569   1.281   4.120  0.0711 -2.0102 -2.0375
   74MOL    H37 8943   3.538   1.439   3.958 -0.3933 -1.6376 -0.9367
   74MOL    C38 8944   3.470   1.526   4.132  0.5667 -0.3457 -0.5846
   74MOL    C39 8945   3.473   1.678   4.095  0.1717  0.1428 -0.1659
   74MOL    F40 8946   3.447   1.759   4.196 -0.2423  0.1584 -0.2131
   74MOL    H41 8947   3.384   1.512   4.198  1.4600  0.6662  0.8315
   74MOL    H42 8948   3.555   1.502   4.197  1.4821  1.2274 -1.1848
   74MOL    H43 8949   3.390   1.682   4.024 -0.6309  0.6117  0.7915
   74MOL    C44 8950   3.599   1.723   4.026  0.9162  0.3356 -0.0508
   74MOL    C45 8951   3.609   1.860   3.960 -0.2115  0.0256  0.5868
   74MOL    F46 8952   3.553   1.846   3.838  0.7993  0.3790 -0.5369
   74MOL    H47 8953   3.672   1.715   4.107  0.0957 -2.5885  0.4485
   74MOL    H48 8954   3.616   1.645   3.953 -0.0392  0.3388 -0.2839
   74MOL    H49 8955   3.715   1.868   3.939 -0.1673  0.0123  0.8080
   74MOL    C50 8956   3.553   1.980   4.046  0.0669 -0.0737 -0.4536
   74MOL    C51 8957   3.629   2.004   4.175  0.1150  0.0923  0.3125
   74MOL    F52 8958   3.761   2.010   4.162  0.0171 -0.9144 -0.0911
   74MOL    H53 8959   3.562   2.074   3.991 -0.7562  1.3014  1.6735
   74MOL    H54 8960   3.446   1.969   4.068  0.2821 -0.4856  0.3893
   74MOL    H55 8961   3.617   1.923   4.247 -1.7051  0.7142  0.7490
   74MOL    C56 8962   3.583   2.143   4.238  0.3046 -0.4665 -1.1577
   74MOL    C57 8963   3.644   2.174   4.378  0.3732  0.2876  0.4350
   74MOL    F58 8964   3.774   2.184   4.368 -0.2830 -0.1848 -0.0301
   74MOL    H59 8965   3.589   2.214   4.156  1.2573 -0.1060 -0.7967
   74MOL    H60 8966   3.475   2.144   4.247  0.4365 -2.3729  1.1162
   74MOL    H61 8967   3.629   2.085   4.439 -0.7365 -1.1680 -1.8863
   74MOL    C62 8968   3.575   2.292   4.450  0.8455  0.6777  0.0592
   74MOL    C63 8969   3.611   2.314   4.598 -0.7988  0.4449 -0.1139
   74MOL    F64 8970   3.553   2.428   4.629 -0.7096  0.0693  0.0063
   74MOL    H65 8971   3.600   2.373   4.383 -0.1008  2.2237  1.5214
   74MOL    H66 8972   3.468   2.289   4.426  1.0286  1.2515 -0.8159
   74MOL    H67 8973   3.720   2.315   4.607 -0.9608  0.0216  2.1387
   74MOL    C68 8974   3.565   2.199   4.684 -0.7250 -0.0635 -0.5169
   74MOL    C69 8975   3.608   2.215   4.835 -0.4465 -0.3438 -0.6883
   74MOL    F70 8976   3.523   2.291   4.896  0.7910 -0.0626 -0.0007
   74MOL    H71 8977   3.459   2.174   4.676 -0.2019 -2.5555 -0.0727
   74MOL    H72 8978   3.616   2.112   4.644 -0.5462  0.2766 -1.0382
   74MOL    H73 8979   3.702   2.268   4.843 -0.9777  0.3066  1.7033
   74MOL    C74 8980   3.618   2.087   4.918 -0.3660 -0.1165  0.3176
   74MOL    C75 8981   3.755   2.027   4.878 -0.5704  0.3717 -0.4207
   74MOL    F76 8982   3.845   2.116   4.917  0.3518  1.0462 -0.1745
   74MOL    H77 8983   3.621   2.109   5.025  0.6637  2.1618 -0.1432
   74MOL    H78 8984   3.533   2.021   4.904 -0.6734  0.6309 -1.4913
   74MOL    H79 8985   3.765   2.018   4.770  2.2940  0.6287 -0.2039
   74MOL    C80 8986   3.768   1.887   4.938  0.0496  0.6733 -0.0436
   74MOL    C81 8987   3.908   1.825   4.907  0.1001  0.2034  0.2193
   74MOL    F82 8988   4.003   1.893   4.977  0.1160 -0.0236 -0.5207
   74MOL    H83 8989   3.749   1.881   5.045  0.9954  0.6403  0.1309
   74MOL    H84 8990   3.694   1.821   4.893 -0.1551  2.1560 -1.9413
   74MOL    H85 8991   3.924   1.845   4.801 -0.5458 -3.2329 -0.6012
   74MOL    C86 8992   3.910   1.673   4.935  0.1223  0.5380 -0.8417
   74MOL    C87 8993   4.021   1.595   4.865 -0.1417 -0.2006 -0.2187
   74MOL    F88 8994   3.987   1.593   4.737  0.5339 -0.4096 -0.4598
   74MOL    H89 8995   3.911   1.655   5.042  2.8221  0.5988 -0.8183
   74MOL    H90 8996   3.815   1.628   4.907 -0.5380 -0.7217  3.1967
   74MOL    H91 8997   4.020   1.497   4.911 -1.5323 -0.9024 -1.7418
   74MOL    C92 8998   4.156   1.665   4.865 -0.0359 -0.0999 -0.5046
   74MOL    C93 8999   4.261   1.579   4.783 -0.9386 -0.0529 -0.1676
   74MOL    F94 9000   4.221   1.573   4.652 -0.6802  0.4521 -0.3387
   74MOL    H95 9001   4.151   1.760   4.811  1.9206  1.1110  1.3300
   74MOL    H96 9002   4.200   1.673   4.965  0.4620 -0.0878 -0.7254
   74MOL    H97 9003   4.264   1.478   4.822  0.6889  0.1289  0.2026
   74MOL    C98 9004   4.409   1.638   4.788  0.2198 -0.3664 -0.3530
   74MOL    C99 9005   4.448   1.781   4.739 -0.1906 -0.5864  0.5373
   74MOL   F100 9006   4.390   1.872   4.823  0.5675 -0.5923  0.3470
   74MOL   H101 9007   4.434   1.631   4.894  0.7888 -1.8905 -0.5759
   74MOL   H102 9008   4.468   1.559   4.741  0.0093 -2.1888  2.3316
   74MOL   H103 9009   4.391   1.793   4.646 -1.1323  1.4472  1.3489
   74MOL   C104 9010   4.601   1.818   4.735  0.0526  0.0608  0.4671
   74MOL   C105 9011   4.667   1.824   4.877  0.3493  0.8919 -0.2632
   74MOL   F106 9012   4.667   1.701   4.936  0.1623 -0.2607  0.4081
   74MOL   H107 9013   4.651   1.737   4.682  0.1878  1.7912 -2.1226
   74MOL   H108 9014   4.621   1.904   4.671  2.3967 -0.4647  0.4557
   74MOL   H109 9015   4.598   1.885   4.935 -1.6366  1.3378 -3.0106
   74MOL   C110 9016   4.813   1.872   4.874  0.2468  0.3403 -0.7491
   74MOL   C111 9017   4.870   1.886   5.018  0.0280 -0.8602 -0.3432
   74MOL   F112 9018   4.869   1.777   5.089  0.0332  0.0745 -0.7623
   74MOL   H113 9019   4.857   1.789   4.820 -0.1877 -0.4702  0.1373
   74MOL   H114 9020   4.824   1.961   4.812  1.0491  0.3880 -0.5450
   74MOL   H115 9021   4.797   1.952   5.065 -0.8824  0.4863 -3.5022
   74MOL   C116 9022   5.008   1.960   5.014  0.1895 -0.3669  0.2941
   74MOL   C117 9023   5.021   2.052   5.139  0.4370 -0.2980 -0.4649
   74MOL   F118 9024   5.151   2.100   5.137 -0.1921 -0.5394 -0.2102
   74MOL   H119 9025   5.089   1.888   5.004 -1.3194 -1.8040 -2.4684
   74MOL   H120 9026   5.014   2.033   4.933 -1.9481 -0.8147 -0.3220
   74MOL   H121 9027   5.011   2.003   5.236  1.5087  0.1777 -0.1035
   74MOL   H122 9028   4.956   2.138   5.127  1.7945  0.6036 -1.4651
   75MOL     C1 9029   4.607   1.580   5.310 -0.0271 -0.2610  0.1419
   75MOL     C2 9030   4.624   1.428   5.282  0.5884 -0.6056 -0.4600
   75MOL     F3 9031   4.686   1.372   5.391 -0.4566 -0.0984 -0.5258
   75MOL     H4 9032   4.563   1.640   5.230 -1.1213  0.7218  1.4452
   75MOL     H5 9033   4.702   1.622   5.343 -0.0265 -0.7174  0.7106
   75MOL     H6 9034   4.680   1.418   5.189 -0.4548  2.9283 -1.5302
   75MOL     H7 9035   4.543   1.588   5.398 -0.5470 -0.1030 -0.2406
   75MOL     C8 9036   4.485   1.357   5.272 -0.5268 -0.0302 -0.2275
   75MOL     C9 9037   4.394   1.408   5.148  0.8594 -0.3856  0.2334
   75MOL    F10 9038   4.443   1.346   5.044 -0.0820  0.0279  0.2818
   75MOL    H11 9039   4.498   1.251   5.252 -1.9832 -0.3218  0.2935
   75MOL    H12 9040   4.437   1.353   5.370  0.0913  2.3478  0.2114
   75MOL    H13 9041   4.407   1.514   5.125 -1.5771 -0.1928 -0.4810
   75MOL    C14 9042   4.249   1.373   5.146  0.0678 -0.7324 -0.1295
   75MOL    C15 9043   4.167   1.436   5.261  0.1042  0.5395  0.0271
   75MOL    F16 9044   4.191   1.568   5.258  0.5901 -0.0071 -0.3097
   75MOL    H17 9045   4.209   1.406   5.050  1.7131 -2.0998 -1.3148
   75MOL    H18 9046   4.236   1.265   5.147  0.5030 -0.7889 -0.3180
   75MOL    H19 9047   4.216   1.396   5.350 -1.9201 -0.2262  0.8312
   75MOL    C20 9048   4.016   1.405   5.252 -0.5027 -0.3122  0.6378
   75MOL    C21 9049   3.919   1.432   5.366 -0.4135 -1.1980  0.5756
   75MOL    F22 9050   3.931   1.566   5.386 -0.1797 -0.1040 -0.5536
   75MOL    H23 9051   3.977   1.444   5.158  0.5519  0.6972  0.6044
   75MOL    H24 9052   4.007   1.298   5.237  0.8678 -0.2738 -0.5055
   75MOL    H25 9053   3.960   1.379   5.452  1.2540 -1.4236 -0.3333
   75MOL    C26 9054   3.771   1.410   5.333 -0.7290 -0.0457 -0.1295
   75MOL    C27 9055   3.678   1.402   5.462 -0.2055  0.3255 -0.0740
   75MOL    F28 9056   3.738   1.325   5.552  0.2628 -0.0760  0.3497
   75MOL    H29 9057   3.742   1.486   5.260 -2.6647 -0.1428  0.5154
   75MOL    H30 9058   3.763   1.312   5.285 -0.4172  0.2795 -0.8618
   75MOL    H31 9059   3.586   1.358   5.426  1.6740 -1.6812 -2.6267
   75MOL    C32 9060   3.652   1.536   5.529 -0.2659  0.1179 -1.0090
   75MOL    C33 9061   3.540   1.534   5.633  0.5856  0.4272 -0.0325
   75MOL    F34 9062   3.433   1.502   5.563 -0.1538 -0.3025  0.5208
   75MOL    H35 9063   3.733   1.577   5.590 -1.6137  3.8722 -1.5840
   75MOL    H36 9064   3.632   1.604   5.445 -1.6607  1.2324  0.2034
   75MOL    H37 9065   3.517   1.632   5.675  0.3550 -0.5102  2.0415
   75MOL    C38 9066   3.561   1.450   5.757 -0.0480  0.3776 -0.6409
   75MOL    C39 9067   3.686   1.480   5.837  0.2464 -0.4956  0.1011
   75MOL    F40 9068   3.680   1.612   5.875  0.5563  0.3098  0.3991
   75MOL    H41 9069   3.467   1.461   5.811 -0.9279 -1.2050 -1.7745
   75MOL    H42 9070   3.562   1.344   5.731  1.5504  0.6882 -1.9542
   75MOL    H43 9071   3.779   1.459   5.785 -0.4341  1.2505 -1.8900
   75MOL    C44 9072   3.705   1.403   5.973  0.8186  0.3162 -0.3662
   75MOL    C45 9073   3.844   1.417   6.036  0.6627  0.1516  0.2375
   75MOL    F46 9074   3.926   1.345   5.960 -0.2020  0.4959 -0.2349
   75MOL    H47 9075   3.635   1.439   6.048  0.0485 -2.0593  0.0618
   75MOL    H48 9076   3.686   1.297   5.960  1.3078 -0.2435  2.9428
   75MOL    H49 9077   3.849   1.363   6.130  0.2242  0.0949  0.2298
   75MOL    C50 9078   3.891   1.560   6.065 -0.1965 -0.2673 -0.0746
   75MOL    C51 9079   3.992   1.571   6.184 -0.1389 -0.3593  0.4863
   75MOL    F52 9080   4.106   1.510   6.144 -0.4467  0.2355  0.3220
   75MOL    H53 9081   3.926   1.616   5.979  1.7209  0.9185  1.4325
   75MOL    H54 9082   3.808   1.622   6.098  0.1578  1.0376 -1.5810
   75MOL    H55 9083   3.949   1.510   6.263  1.2424 -2.5494 -0.3894
   75MOL    C56 9084   4.025   1.713   6.237  0.1452 -0.2795 -0.3542
   75MOL    C57 9085   4.125   1.712   6.354  0.0680  0.4753 -0.0551
   75MOL    F58 9086   4.188   1.830   6.385  0.1783 -0.1983  0.1886
   75MOL    H59 9087   4.061   1.773   6.153 -1.6884  1.3949  0.0299
   75MOL    H60 9088   3.938   1.772   6.266 -0.4102 -1.5585  0.6661
   75MOL    H61 9089   4.212   1.653   6.324  0.4403 -0.2904  2.4190
   75MOL    C62 9090   4.074   1.644   6.491  0.2763 -0.3762  0.1117
   75MOL    C63 9091   4.000   1.746   6.585  0.3858  0.6525 -0.7275
   75MOL    F64 9092   3.882   1.766   6.532  0.4896  0.2160  0.9693
   75MOL    H65 9093   4.010   1.555   6.483 -1.6892  1.2889 -3.7160
   75MOL    H66 9094   4.165   1.609   6.539  1.4749  0.3016 -1.6162
   75MOL    H67 9095   4.053   1.840   6.570  2.2665  0.3888  3.4993
   75MOL    C68 9096   3.979   1.707   6.738 -0.2231 -0.4898  0.7852
   75MOL    C69 9097   4.104   1.656   6.807 -0.6963  0.2323  0.2297
   75MOL    F70 9098   4.198   1.750   6.786 -0.0136 -0.4824  0.1522
   75MOL    H71 9099   3.938   1.800   6.778  2.3505  0.8758  0.3186
   75MOL    H72 9100   3.900   1.635   6.760 -1.0822 -0.0321 -0.7376
   75MOL    H73 9101   4.146   1.561   6.771  1.4907  1.5674 -0.8487
   75MOL    C74 9102   4.085   1.642   6.957 -0.0964  0.4976  0.3163
   75MOL    C75 9103   4.190   1.563   7.041 -0.1415 -0.2382  0.1084
   75MOL    F76 9104   4.295   1.640   7.054 -0.3728  0.0095 -0.6216
   75MOL    H77 9105   4.075   1.744   6.996 -2.1731 -0.3668  2.1375
   75MOL    H78 9106   3.991   1.589   6.967 -0.6946  1.5248  0.1998
   75MOL    H79 9107   4.210   1.472   6.984 -0.9167 -0.1932 -0.2400
   75MOL    C80 9108   4.142   1.525   7.183  0.6238 -0.1566  0.3557
   75MOL    C81 9109   4.025   1.430   7.199  0.0648 -0.1505 -0.0031
   75MOL    F82 9110   4.063   1.310   7.160 -0.5517  0.3053 -0.3999
   75MOL    H83 9111   4.220   1.477   7.241  1.5382  0.5705 -0.2565
   75MOL    H84 9112   4.110   1.621   7.225  0.5010  0.5366 -1.2629
   75MOL    H85 9113   3.945   1.449   7.128  0.9117  0.7807 -0.7189
   75MOL    C86 9114   3.977   1.415   7.339 -0.3595 -0.0470  0.1290
   75MOL    C87 9115   3.853   1.502   7.381  0.0991  0.0861 -0.1392
   75MOL    F88 9116   3.880   1.625   7.346  0.0995 -0.0680 -0.6743
   75MOL    H89 9117   3.941   1.314   7.359 -1.1596  0.4067  1.0069
   75MOL    H90 9118   4.058   1.432   7.410 -1.5439  1.4937  1.1418
   75MOL    H91 9119   3.843   1.496   7.489  0.5467 -1.3039 -0.1601
   75MOL    C92 9120   3.720   1.444   7.314  0.7060 -0.4424  0.3548
   75MOL    C93 9121   3.589   1.514   7.367  0.0037 -0.0876 -0.0462
   75MOL    F94 9122   3.595   1.510   7.497 -0.6438  0.0912  0.5775
   75MOL    H95 9123   3.719   1.463   7.207  1.6841 -3.5620 -0.2386
   75MOL    H96 9124   3.722   1.336   7.328 -0.4708 -0.6162 -0.6598
   75MOL    H97 9125   3.500   1.456   7.341  0.0702 -0.2966  0.1964
   75MOL    C98 9126   3.563   1.661   7.320  0.0136 -0.0955 -0.1250
   75MOL    C99 9127   3.514   1.656   7.170 -0.8103  1.0932 -0.5683
   75MOL   F100 9128   3.379   1.649   7.176  0.0929  0.3524  0.1558
   75MOL   H101 9129   3.483   1.705   7.379  1.2633  0.6412  1.0368
   75MOL   H102 9130   3.650   1.723   7.338 -1.0704  1.7835 -1.1505
   75MOL   H103 9131   3.550   1.569   7.115  0.0668  0.3782  1.0981
   75MOL   C104 9132   3.543   1.779   7.085 -0.1419 -0.3556  0.6297
   75MOL   C105 9133   3.697   1.799   7.047 -0.4093 -0.0864 -0.2620
   75MOL   F106 9134   3.756   1.700   6.975 -0.3017 -0.3169  0.9569
   75MOL   H107 9135   3.490   1.776   6.990 -0.6411  1.8277  0.8141
   75MOL   H108 9136   3.500   1.868   7.133 -1.4645 -1.7979  2.1771
   75MOL   H109 9137   3.752   1.800   7.142  1.8423 -1.5902 -1.5056
   75MOL   C110 9138   3.719   1.934   6.976 -0.6967 -0.2208  0.0222
   75MOL   C111 9139   3.769   2.050   7.064 -0.1451 -0.3489  0.4401
   75MOL   F112 9140   3.905   2.034   7.077 -0.0835  0.2610  0.0552
   75MOL   H113 9141   3.796   1.920   6.901 -0.5160 -2.0804  0.5332
   75MOL   H114 9142   3.625   1.953   6.923 -0.3389  1.8003  0.0688
   75MOL   H115 9143   3.730   2.044   7.165 -1.3583 -3.1654 -0.1611
   75MOL   C116 9144   3.732   2.194   7.007  0.2044  0.0068  0.2077
   75MOL   C117 9145   3.786   2.307   7.097 -0.3983  0.3464  0.8472
   75MOL   F118 9146   3.792   2.415   7.028 -0.4842 -0.4928 -0.4086
   75MOL   H119 9147   3.798   2.205   6.921  3.0130 -1.9548  2.0473
   75MOL   H120 9148   3.628   2.211   6.977  0.1626  0.1614  0.4304
   75MOL   H121 9149   3.886   2.286   7.134 -0.3676 -0.6900  0.1950
   75MOL   H122 9150   3.734   2.344   7.185 -1.6923  1.4100 -0.3379
   76MOL     C1 9151   5.775   0.819   0.407 -0.4101  0.0355 -0.2041
   76MOL     C2 9152   5.797   0.931   0.518 -0.0813 -0.1984  0.0354
   76MOL     F3 9153   5.678   0.948   0.574  0.1482 -0.3820 -0.0553
   76MOL     H4 9154   5.858   0.790   0.343 -1.1712  1.8743 -2.0657
   76MOL     H5 9155   5.701   0.846   0.332 -0.2971  2.2031  0.4295
   76MOL     H6 9156   5.831   1.021   0.467  0.4359 -0.3776  0.0551
   76MOL     H7 9157   5.736   0.734   0.463 -2.3628  1.9757  1.5040
   76MOL     C8 9158   5.889   0.895   0.636 -0.2844 -0.9195 -0.0981
   76MOL     C9 9159   5.879   0.989   0.757  0.0547  0.0351 -0.2128
   76MOL    F10 9160   5.948   0.922   0.843  0.5551 -0.1100  0.2473
   76MOL    H11 9161   5.861   0.792   0.660 -2.0241 -0.2654  0.8147
   76MOL    H12 9162   5.987   0.905   0.590 -1.2532 -0.7995 -2.1717
   76MOL    H13 9163   5.776   0.990   0.793 -0.9805 -1.3716 -2.9388
   76MOL    C14 9164   5.943   1.125   0.733  0.9086 -0.1683  0.2454
   76MOL    C15 9165   5.930   1.224   0.851 -0.5086  0.2064  0.3692
   76MOL    F16 9166   6.027   1.210   0.936  0.1050  0.3283 -0.1422
   76MOL    H17 9167   6.049   1.102   0.727  0.6502 -0.5910 -4.9728
   76MOL    H18 9168   5.913   1.166   0.636 -0.2065  0.5007  0.8583
   76MOL    H19 9169   5.845   1.210   0.917 -0.9482 -0.6565 -0.3538
   76MOL    C20 9170   5.938   1.370   0.794  0.6269 -0.0237 -0.6152
   76MOL    C21 9171   5.814   1.425   0.722 -0.4771 -0.9450 -0.3349
   76MOL    F22 9172   5.709   1.379   0.792 -0.2758 -0.1984  0.0277
   76MOL    H23 9173   5.945   1.434   0.883  0.9826  0.9261 -1.3129
   76MOL    H24 9174   6.036   1.391   0.750  2.8133 -2.4988  2.8200
   76MOL    H25 9175   5.809   1.380   0.622  0.9468 -1.7556 -0.0537
   76MOL    C26 9176   5.808   1.579   0.708  0.2697  0.6816 -0.0754
   76MOL    C27 9177   5.930   1.651   0.649 -0.5333  0.1695  0.0268
   76MOL    F28 9178   5.929   1.612   0.524 -0.0950 -0.2957 -0.3328
   76MOL    H29 9179   5.710   1.606   0.669  0.2583  0.7157 -0.0207
   76MOL    H30 9180   5.804   1.614   0.811 -0.1148  0.3760  0.0144
   76MOL    H31 9181   6.027   1.638   0.697 -0.3382 -0.8519 -0.6359
   76MOL    C32 9182   5.913   1.805   0.667 -0.1614 -0.1060 -0.0207
   76MOL    C33 9183   6.023   1.902   0.610  0.1592 -0.0226  0.0279
   76MOL    F34 9184   5.972   2.024   0.622  0.0514  0.2367 -0.0739
   76MOL    H35 9185   5.819   1.834   0.619  0.1925  2.4871  0.7946
   76MOL    H36 9186   5.895   1.840   0.769 -0.6631 -1.3763  0.3356
   76MOL    H37 9187   6.030   1.895   0.501 -1.9387 -0.4885 -0.0989
   76MOL    C38 9188   6.158   1.901   0.694 -0.0323 -0.3205  0.5288
   76MOL    C39 9189   6.251   2.018   0.665 -0.0734 -0.5761  0.2876
   76MOL    F40 9190   6.191   2.135   0.719 -0.1931  0.7813 -0.4778
   76MOL    H41 9191   6.139   1.894   0.801 -2.2173  0.1024  0.1863
   76MOL    H42 9192   6.201   1.803   0.674 -2.2240 -0.7776 -2.3055
   76MOL    H43 9193   6.260   2.042   0.559 -1.7987 -2.4832 -0.3192
   76MOL    C44 9194   6.384   2.011   0.741 -0.1297  0.3778 -0.7308
   76MOL    C45 9195   6.488   1.909   0.696 -0.3787  0.1980  0.6081
   76MOL    F46 9196   6.517   1.895   0.574  0.1097 -0.2796 -0.7893
   76MOL    H47 9197   6.424   2.112   0.743  1.3217 -0.2030  1.3466
   76MOL    H48 9198   6.360   1.989   0.845 -1.3285  0.5716 -0.9635
   76MOL    H49 9199   6.457   1.810   0.730  0.3604 -0.6659 -1.1525
   76MOL    C50 9200   6.619   1.934   0.777  0.2338  0.6156 -0.0792
   76MOL    C51 9201   6.739   1.839   0.766 -0.2119 -0.0307 -0.3941
   76MOL    F52 9202   6.796   1.839   0.644  0.6768 -0.7779 -0.0212
   76MOL    H53 9203   6.646   2.035   0.748  3.0575 -0.5082 -1.5812
   76MOL    H54 9204   6.597   1.937   0.883 -2.3210  0.1955 -0.5643
   76MOL    H55 9205   6.717   1.739   0.804  3.1761 -0.1720  1.3740
   76MOL    C56 9206   6.857   1.880   0.862  0.0110 -0.0805 -0.2613
   76MOL    C57 9207   6.969   1.776   0.872  1.0246  0.4346  0.2022
   76MOL    F58 9208   7.076   1.850   0.899 -0.0117  0.1014 -0.5552
   76MOL    H59 9209   6.899   1.976   0.832  0.3912 -0.6369 -1.5107
   76MOL    H60 9210   6.815   1.908   0.959  0.9983  1.8352 -0.3777
   76MOL    H61 9211   6.991   1.723   0.780  3.4812 -1.0803  1.5847
   76MOL    C62 9212   6.942   1.652   0.960 -0.0906  0.7131  0.1041
   76MOL    C63 9213   6.943   1.671   1.109 -0.3732  0.0544 -0.3600
   76MOL    F64 9214   6.831   1.741   1.150 -0.1789 -0.5951 -0.1053
   76MOL    H65 9215   6.844   1.616   0.928 -0.7705  2.9030 -0.4167
   76MOL    H66 9216   7.020   1.582   0.932 -2.8897 -3.2193  1.7821
   76MOL    H67 9217   7.025   1.734   1.144 -0.8727  1.0286 -0.9283
   76MOL    C68 9218   6.952   1.544   1.197  0.4663  0.0704  0.5855
   76MOL    C69 9219   7.073   1.455   1.179  0.3745  0.5710 -0.2302
   76MOL    F70 9220   7.175   1.521   1.218 -0.9095  0.0770 -0.1687
   76MOL    H71 9221   6.956   1.565   1.304 -0.4180 -1.5628  0.9460
   76MOL    H72 9222   6.858   1.491   1.180 -0.0892  0.9149  1.0152
   76MOL    H73 9223   7.090   1.421   1.077 -1.5350  1.0473 -0.7269
   76MOL    C74 9224   7.068   1.314   1.247 -0.6716 -0.4493 -0.1409
   76MOL    C75 9225   7.187   1.221   1.212  0.3632  0.0427  0.0608
   76MOL    F76 9226   7.305   1.263   1.238  0.2316  0.2578  0.2452
   76MOL    H77 9227   7.072   1.335   1.354 -0.5343 -2.2816  0.2435
   76MOL    H78 9228   6.968   1.271   1.235 -0.8810 -0.5781  1.8308
   76MOL    H79 9229   7.179   1.206   1.105  2.4217 -2.0173  0.1425
   76MOL    C80 9230   7.170   1.084   1.277 -0.5491 -0.1959 -0.1273
   76MOL    C81 9231   7.256   0.972   1.207  0.0726 -0.5478  0.2204
   76MOL    F82 9232   7.374   0.965   1.269  0.1600  0.1479  0.4391
   76MOL    H83 9233   7.199   1.101   1.381  3.3091 -1.2860 -0.9427
   76MOL    H84 9234   7.068   1.046   1.273 -0.7440  0.1046  1.5926
   76MOL    H85 9235   7.274   0.996   1.102  0.5794 -0.1153  0.4006
   76MOL    C86 9236   7.198   0.830   1.235 -0.6538  0.5912  0.2485
   76MOL    C87 9237   7.073   0.810   1.153 -0.5980 -0.3901 -0.3164
   76MOL    F88 9238   7.114   0.817   1.028 -0.3686  0.4523  0.4981
   76MOL    H89 9239   7.278   0.760   1.213  1.0079  2.5276 -0.0613
   76MOL    H90 9240   7.181   0.808   1.340  2.2079 -0.3724  0.5614
   76MOL    H91 9241   7.004   0.893   1.170  0.6499  0.4697  0.6998
   76MOL    C92 9242   6.989   0.681   1.175 -0.1929  0.5989  0.8248
   76MOL    C93 9243   6.925   0.683   1.313  0.4601  0.1276  0.1861
   76MOL    F94 9244   6.849   0.793   1.333 -0.8147 -0.1636 -0.2588
   76MOL    H95 9245   6.908   0.691   1.102 -0.6100  0.3906  1.2510
   76MOL    H96 9246   7.050   0.592   1.163  1.1467  1.5427  0.6022
   76MOL    H97 9247   6.998   0.691   1.394 -1.1570 -1.5331  1.8573
   76MOL    C98 9248   6.837   0.567   1.330  0.2724 -0.1245 -0.4620
   76MOL    C99 9249   6.912   0.431   1.357 -0.1478 -0.4459  0.0847
   76MOL   F100 9250   6.989   0.457   1.462  0.1869  0.2743 -0.4689
   76MOL   H101 9251   6.771   0.583   1.416  2.2552 -0.1965  1.1276
   76MOL   H102 9252   6.769   0.565   1.245 -0.4888 -0.5050  0.1482
   76MOL   H103 9253   6.982   0.408   1.277 -1.1494  0.6214 -1.1407
   76MOL   C104 9254   6.809   0.318   1.386 -0.1914 -0.9107  0.5606
   76MOL   C105 9255   6.864   0.185   1.433 -0.0117 -0.7584 -0.5500
   76MOL   F106 9256   6.940   0.144   1.329 -0.1963  0.1067 -0.1157
   76MOL   H107 9257   6.742   0.361   1.461  0.4324 -0.1704  0.7008
   76MOL   H108 9258   6.746   0.294   1.300  0.1537  1.1427 -0.2971
   76MOL   H109 9259   6.782   0.114   1.450  0.3113 -0.3870  2.8501
   76MOL   C110 9260   6.956   0.189   1.560 -0.1480 -0.6688 -0.4375
   76MOL   C111 9261   6.881   0.228   1.685 -0.0662  0.2433 -0.1719
   76MOL   F112 9262   6.869   0.118   1.756 -0.2791  0.2356 -0.3949
   76MOL   H113 9263   7.002   0.093   1.578 -1.7121 -1.1768  1.0136
   76MOL   H114 9264   7.042   0.253   1.541  0.9874 -1.6592  1.2810
   76MOL   H115 9265   6.776   0.252   1.665  0.5805  2.8845 -0.5561
   76MOL   C116 9266   6.943   0.346   1.763 -0.0086  0.0415  0.0775
   76MOL   C117 9267   6.856   0.419   1.854 -0.2675 -0.3082  0.7603
   76MOL   F118 9268   6.747   0.475   1.787 -0.0663  0.1587  0.1738
   76MOL   H119 9269   7.027   0.306   1.820  0.3523  0.3755 -0.2120
   76MOL   H120 9270   6.990   0.415   1.693 -0.4663  2.6677  2.2247
   76MOL   H121 9271   6.902   0.499   1.912 -0.2655 -0.6867  1.2826
   76MOL   H122 9272   6.814   0.361   1.937  0.7443 -1.8850  0.1753
   77MOL     C1 9273   3.113   7.949   2.597 -0.2427  0.5838  0.3461
   77MOL     C2 9274   3.000   7.929   2.700  0.0006  0.2185  0.3455
   77MOL     F3 9275   2.898   7.909   2.615  0.1012 -0.2586 -0.1776
   77MOL     H4 9276   3.092   0.036   2.538  2.9089  0.6918 -0.6895
   77MOL     H5 9277   3.118   7.866   2.527 -2.4533  0.5602  0.1720
   77MOL     H6 9278   2.973   0.022   2.744  0.5933 -0.4120  2.1295
   77MOL     H7 9279   3.207   7.961   2.651 -0.8084 -1.1981  1.7597
   77MOL     C8 9280   3.042   7.823   2.809  0.4879  0.0379 -0.7738
   77MOL     C9 9281   2.943   7.787   2.924  0.6199 -0.4181 -0.3814
   77MOL    F10 9282   2.909   7.889   3.005 -0.4605 -0.3837 -0.0768
   77MOL    H11 9283   3.057   7.732   2.751  1.2577  0.5958 -1.4522
   77MOL    H12 9284   3.132   7.857   2.858 -0.6298  1.7899  0.1202
   77MOL    H13 9285   3.004   7.717   2.981 -0.4687 -2.2249 -1.3993
   77MOL    C14 9286   2.816   7.713   2.877  0.7459 -0.6076 -0.6154
   77MOL    C15 9287   2.733   7.642   2.988  0.3361 -0.1064 -0.6506
   77MOL    F16 9288   2.710   7.728   3.088 -0.3707  0.3265 -0.0617
   77MOL    H17 9289   2.751   7.773   2.815 -0.3944  1.2003  2.2560
   77MOL    H18 9290   2.841   7.632   2.808 -1.3630 -0.0169 -2.1002
   77MOL    H19 9291   2.787   7.554   3.021 -0.2377  0.5946  2.3224
   77MOL    C20 9292   2.598   7.600   2.936  0.3453 -0.5623 -0.2518
   77MOL    C21 9293   2.511   7.526   3.040 -0.0576 -0.1084  0.5352
   77MOL    F22 9294   2.401   7.507   2.967  0.5256  0.0187 -0.3329
   77MOL    H23 9295   2.544   7.684   2.891  1.6551  0.1234 -0.5573
   77MOL    H24 9296   2.609   7.534   2.849 -1.5046  0.3592 -1.2136
   77MOL    H25 9297   2.489   7.592   3.125  0.6974  0.8027  0.0318
   77MOL    C26 9298   2.562   7.388   3.080  0.3981  0.2827 -0.0367
   77MOL    C27 9299   2.473   7.328   3.190  0.2105  0.3843  0.4155
   77MOL    F28 9300   2.500   7.196   3.204 -0.5037 -0.5754  0.2643
   77MOL    H29 9301   2.567   7.318   2.997  0.5399  1.8328 -1.3732
   77MOL    H30 9302   2.663   7.389   3.120  0.1019 -0.5619  0.7451
   77MOL    H31 9303   2.366   7.333   3.170 -0.0375  2.4041  2.0843
   77MOL    C32 9304   2.491   7.397   3.327  0.8572 -0.7895 -0.1907
   77MOL    C33 9305   2.374   7.347   3.420 -0.3645 -0.2266 -0.4693
   77MOL    F34 9306   2.403   7.233   3.473 -0.2903 -0.4234  0.2623
   77MOL    H35 9307   2.583   7.366   3.376  0.1363 -1.1256  0.9790
   77MOL    H36 9308   2.490   7.505   3.325 -2.2526 -0.7650 -0.3975
   77MOL    H37 9309   2.282   7.342   3.362  0.1392  1.0628 -1.4021
   77MOL    C38 9310   2.358   7.442   3.545 -0.4444 -0.3861 -0.0683
   77MOL    C39 9311   2.224   7.442   3.610  0.2851  0.1172  0.6759
   77MOL    F40 9312   2.195   7.321   3.647  0.3863 -0.2467 -0.5120
   77MOL    H41 9313   2.415   7.398   3.627 -0.3967  1.3881  0.8927
   77MOL    H42 9314   2.378   7.548   3.525 -1.0819 -0.3393 -0.4968
   77MOL    H43 9315   2.152   7.462   3.530  0.9863 -0.1227 -0.0229
   77MOL    C44 9316   2.224   7.537   3.734 -0.4446  0.3299 -0.1567
   77MOL    C45 9317   2.084   7.555   3.791 -0.0651  0.3496 -0.1764
   77MOL    F46 9318   2.092   7.611   3.915 -0.1538 -0.5109  0.5388
   77MOL    H47 9319   2.285   7.506   3.819  1.1370 -1.6069 -1.9469
   77MOL    H48 9320   2.269   7.635   3.720 -2.0272  1.2050  0.6653
   77MOL    H49 9321   2.028   7.463   3.804 -0.3867  0.6195  0.3588
   77MOL    C50 9322   1.992   7.631   3.702 -0.5268  0.5139  0.9952
   77MOL    C51 9323   1.875   7.700   3.779 -0.4323 -0.3364  0.2717
   77MOL    F52 9324   1.822   7.775   3.682 -0.6113 -0.2602  0.6507
   77MOL    H53 9325   2.049   7.710   3.653 -1.0719 -0.1888 -0.8371
   77MOL    H54 9326   1.958   7.563   3.623  1.8677  0.6592 -0.2060
   77MOL    H55 9327   1.914   7.774   3.849 -1.1135  0.3028 -0.0145
   77MOL    C56 9328   1.771   7.607   3.843  0.5813  0.0455  0.4952
   77MOL    C57 9329   1.685   7.694   3.940  0.5499 -0.2265  0.5273
   77MOL    F58 9330   1.577   7.616   3.954 -0.0670  0.2041 -0.4602
   77MOL    H59 9331   1.709   7.551   3.773  0.7967  0.5347 -0.0868
   77MOL    H60 9332   1.823   7.530   3.900 -0.1891 -1.0323 -0.2325
   77MOL    H61 9333   1.644   7.781   3.889  1.2320 -0.5019 -0.5122
   77MOL    C62 9334   1.744   7.732   4.077 -0.4821 -0.2210  0.4921
   77MOL    C63 9335   1.703   7.648   4.193  0.3155 -0.2181  0.4814
   77MOL    F64 9336   1.750   7.520   4.177  0.2540 -0.0548 -0.4442
   77MOL    H65 9337   1.853   7.732   4.072 -0.5755 -2.7009 -4.3457
   77MOL    H66 9338   1.720   7.838   4.088 -0.1753  0.0146 -0.9102
   77MOL    H67 9339   1.596   7.631   4.182  0.7274 -2.3287 -0.4040
   77MOL    C68 9340   1.753   7.707   4.328 -0.0545  0.5116  0.0661
   77MOL    C69 9341   1.696   7.850   4.366 -0.6378 -0.1515  0.1853
   77MOL    F70 9342   1.565   7.853   4.352  0.3080 -0.1062  0.5181
   77MOL    H71 9343   1.738   7.631   4.404  2.8317 -0.7099 -0.5062
   77MOL    H72 9344   1.861   7.717   4.321 -0.0817  1.3076  0.6630
   77MOL    H73 9345   1.739   7.927   4.302  2.7367  0.9084  3.4866
   77MOL    C74 9346   1.731   7.895   4.513 -0.8965  0.2509  0.1998
   77MOL    C75 9347   1.887   7.937   4.536  0.2136  0.2308  0.0666
   77MOL    F76 9348   1.916   0.047   4.469 -0.2785  0.1201 -0.0977
   77MOL    H77 9349   1.666   7.980   4.537 -0.1493  0.4650  1.5362
   77MOL    H78 9350   1.705   7.804   4.568 -0.0215  0.1021  0.3657
   77MOL    H79 9351   1.956   7.865   4.492 -2.5535 -3.0084  0.8084
   77MOL    C80 9352   1.911   7.972   4.683 -0.0088  0.0143 -0.4323
   77MOL    C81 9353   1.894   7.857   4.777  0.2142  0.6970 -0.1296
   77MOL    F82 9354   1.963   7.752   4.727 -0.3704 -0.8106 -0.5881
   77MOL    H83 9355   2.012   0.008   4.695 -0.6014  0.9261  1.9534
   77MOL    H84 9356   1.849   0.051   4.720 -2.3276 -2.0736  0.4994
   77MOL    H85 9357   1.789   7.828   4.775  0.2581  0.5260  0.1306
   77MOL    C86 9358   1.940   7.879   4.919 -0.2421 -0.3099 -0.4019
   77MOL    C87 9359   1.854   7.983   4.996 -0.6630  0.4583 -0.3338
   77MOL    F88 9360   1.720   7.955   4.977  0.3545  0.1551  0.4562
   77MOL    H89 9361   1.949   7.785   4.974  1.1877  0.8346  1.4198
   77MOL    H90 9362   2.044   7.911   4.920 -0.0771 -0.8641  1.0018
   77MOL    H91 9363   1.855   0.075   4.942 -1.1049  0.8002  0.2562
   77MOL    C92 9364   1.897   0.011   5.144 -1.2067 -0.3705 -0.2468
   77MOL    C93 9365   2.042   0.055   5.156  0.0788 -0.0124  0.2299
   77MOL    F94 9366   2.082   0.132   5.057 -0.1420 -0.6787  0.0646
   77MOL    H95 9367   1.845   0.102   5.175  1.3050  0.7046  1.0415
   77MOL    H96 9368   1.879   7.936   5.218 -0.9094 -0.6534 -0.4694
   77MOL    H97 9369   2.102   7.968   5.147 -1.3847 -0.9120 -0.6344
   77MOL    C98 9370   2.064   0.116   5.294  0.2795 -0.3825  0.0798
   77MOL    C99 9371   2.204   0.099   5.361 -0.0214 -0.2108 -0.2961
   77MOL   F100 9372   2.238   7.974   5.376 -0.3089  0.1027 -0.1653
   77MOL   H101 9373   2.035   0.220   5.283  1.2619 -0.2578 -1.5418
   77MOL   H102 9374   2.001   0.074   5.373  0.9245 -0.9836  0.2775
   77MOL   H103 9375   2.206   0.126   5.467 -1.7921 -0.3785 -0.2166
   77MOL   C104 9376   2.324   0.162   5.291  1.0583  0.0127 -0.7128
   77MOL   C105 9377   2.325   0.312   5.294  0.1042  0.0025  0.0056
   77MOL   F106 9378   2.346   0.342   5.418  0.0776  0.0380 -0.2833
   77MOL   H107 9379   2.418   0.129   5.335 -0.3206 -1.4483  1.1830
   77MOL   H108 9380   2.308   0.136   5.186 -0.0677 -0.9646 -0.3024
   77MOL   H109 9381   2.224   0.340   5.262 -1.0856 -0.8344  2.8862
   77MOL   C110 9382   2.433   0.379   5.206  0.5522 -0.2199  0.0254
   77MOL   C111 9383   2.433   0.343   5.056  0.0978  0.3457  0.1548
   77MOL   F112 9384   2.310   0.334   5.009  0.1763 -0.0268 -0.0574
   77MOL   H113 9385   2.416   0.487   5.211  0.4011 -0.1022 -2.3274
   77MOL   H114 9386   2.534   0.372   5.248 -0.0923 -1.2786  1.4301
   77MOL   H115 9387   2.462   0.237   5.051 -1.2274 -0.0063 -0.1155
   77MOL   C116 9388   2.519   0.421   4.956 -0.2874 -0.4805  0.1681
   77MOL   C117 9389   2.487   0.570   4.958  0.4512  0.0569 -0.0610
   77MOL   F118 9390   2.559   0.642   4.872 -0.3741 -0.1347 -0.1206
   77MOL   H119 9391   2.625   0.408   4.979  0.0981  1.7057 -0.2016
   77MOL   H120 9392   2.493   0.381   4.858 -0.5236  1.1648 -0.4545
   77MOL   H121 9393   2.517   0.607   5.057 -1.6717  0.0528  0.6094
   77MOL   H122 9394   2.380   0.581   4.942  0.2701  2.5011  2.4479
   78MOL     C1 9395   4.131   1.656   5.658  0.0059  0.2494  0.1091
   78MOL     C2 9396   4.181   1.524   5.703  0.2039  0.2194  0.4098
   78MOL     F3 9397   4.226   1.469   5.596  0.1414  0.5487  0.3861
   78MOL     H4 9398   4.109   1.713   5.748  1.2135  0.4564  0.2727
   78MOL     H5 9399   4.037   1.652   5.603 -0.0145  0.7458  0.1099
   78MOL     H6 9400   4.092   1.469   5.736  0.7366 -1.6813 -1.2238
   78MOL     H7 9401   4.210   1.701   5.598  1.4475  0.0075  1.8039
   78MOL     C8 9402   4.278   1.531   5.820  0.0079  0.1490 -0.2489
   78MOL     C9 9403   4.316   1.404   5.877  0.2890 -0.1671  0.2811
   78MOL    F10 9404   4.202   1.340   5.897  0.6782  0.1111 -0.0523
   78MOL    H11 9405   4.361   1.596   5.792  0.2621  0.2590  0.7175
   78MOL    H12 9406   4.225   1.581   5.902 -1.5776 -0.9168 -0.5959
   78MOL    H13 9407   4.365   1.409   5.975 -1.5453  1.4660  1.1713
   78MOL    C14 9408   4.409   1.319   5.784 -0.3227  0.5167  0.4465
   78MOL    C15 9409   4.480   1.207   5.867  0.0862 -0.1910 -0.3338
   78MOL    F16 9410   4.402   1.114   5.919  0.2190  0.4186 -0.1256
   78MOL    H17 9411   4.364   1.277   5.694 -0.5450  0.4355  0.5939
   78MOL    H18 9412   4.481   1.388   5.741 -1.4454  0.8514 -0.9371
   78MOL    H19 9413   4.538   1.258   5.943  2.2564 -0.0847 -1.9951
   78MOL    C20 9414   4.579   1.134   5.777 -0.2428 -0.6555  0.0298
   78MOL    C21 9415   4.664   1.034   5.856 -0.1361  0.5485  0.4196
   78MOL    F22 9416   4.722   0.972   5.750  0.2422  0.3045  0.4495
   78MOL    H23 9417   4.527   1.085   5.694 -3.0295 -1.0243  1.9160
   78MOL    H24 9418   4.649   1.207   5.738  1.5015 -1.9915  0.5968
   78MOL    H25 9419   4.604   0.953   5.898  1.5896  0.0332  1.9756
   78MOL    C26 9420   4.764   1.102   5.944  0.7948  0.1219 -0.0911
   78MOL    C27 9421   4.861   1.003   6.010 -1.1955 -0.0865  0.1554
   78MOL    F28 9422   4.926   1.079   6.100  0.4190 -0.5763 -0.0991
   78MOL    H29 9423   4.823   1.165   5.877  0.4923  0.3665 -0.1253
   78MOL    H30 9424   4.712   1.162   6.018 -1.9535 -1.1711 -0.9023
   78MOL    H31 9425   4.932   0.957   5.941  0.2988 -0.6908  2.0487
   78MOL    C32 9426   4.799   0.891   6.097 -0.3511  0.1666 -0.1130
   78MOL    C33 9427   4.706   0.948   6.203  0.0960 -0.2087 -0.1892
   78MOL    F34 9428   4.584   0.984   6.149  0.6350  0.4107  0.0194
   78MOL    H35 9429   4.742   0.824   6.033 -1.9275  2.0792 -0.7529
   78MOL    H36 9430   4.887   0.839   6.134 -0.5279  1.6348  2.4803
   78MOL    H37 9431   4.752   1.036   6.249 -3.5858 -0.0933  3.5377
   78MOL    C38 9432   4.675   0.854   6.321 -0.5366  0.0745  0.7154
   78MOL    C39 9433   4.609   0.915   6.445  0.4325 -0.1781  0.1401
   78MOL    F40 9434   4.491   0.961   6.409  0.7792  0.0833 -0.0946
   78MOL    H41 9435   4.612   0.776   6.280  0.4075  0.3306 -1.2588
   78MOL    H42 9436   4.770   0.803   6.341 -0.0186  0.8091  0.1769
   78MOL    H43 9437   4.667   0.995   6.488 -1.3433  0.9992  0.3893
   78MOL    C44 9438   4.591   0.812   6.556 -0.0482 -0.3247  0.1934
   78MOL    C45 9439   4.722   0.756   6.626 -0.9399  0.2277 -0.4240
   78MOL    F46 9440   4.776   0.856   6.695  0.0173 -0.6246  0.0616
   78MOL    H47 9441   4.532   0.866   6.630  0.0416  1.3203 -0.9199
   78MOL    H48 9442   4.547   0.728   6.503 -0.3140  0.5546 -0.9786
   78MOL    H49 9443   4.795   0.719   6.554 -0.0325  0.5208  0.3226
   78MOL    C50 9444   4.699   0.641   6.729  0.4223  0.6994 -0.4460
   78MOL    C51 9445   4.606   0.685   6.846  0.0621 -0.3756 -0.5135
   78MOL    F52 9446   4.478   0.678   6.807  0.0370  0.2182  0.1536
   78MOL    H53 9447   4.649   0.560   6.676 -0.4633  0.3250  0.9374
   78MOL    H54 9448   4.798   0.621   6.769 -0.8855 -1.8316  1.7782
   78MOL    H55 9449   4.621   0.787   6.882 -1.6178 -0.0920 -0.5604
   78MOL    C56 9450   4.639   0.602   6.975  0.3880  0.4426  0.7759
   78MOL    C57 9451   4.552   0.658   7.092 -0.7384  0.1574  0.3457
   78MOL    F58 9452   4.552   0.566   7.192  0.1269  0.0387 -0.4752
   78MOL    H59 9453   4.615   0.497   6.961  0.6772  0.7345 -2.2465
   78MOL    H60 9454   4.743   0.613   7.006  0.6221  0.4604 -0.0074
   78MOL    H61 9455   4.450   0.661   7.055 -0.0354  2.0527 -1.5041
   78MOL    C62 9456   4.604   0.793   7.150 -0.4485 -0.8909  0.4533
   78MOL    C63 9457   4.752   0.788   7.183 -0.0009 -0.1961 -0.1276
   78MOL    F64 9458   4.819   0.827   7.073  0.5930 -0.1057 -0.3488
   78MOL    H65 9459   4.571   0.882   7.097  1.0205  0.4524  1.7277
   78MOL    H66 9460   4.552   0.812   7.244  1.6381 -1.0994  1.6881
   78MOL    H67 9461   4.791   0.688   7.199 -0.3791 -0.0088  2.1334
   78MOL    C68 9462   4.779   0.880   7.300  0.2566  0.1529  0.0554
   78MOL    C69 9463   4.776   0.818   7.446 -1.0975  0.7344 -0.4279
   78MOL    F70 9464   4.878   0.727   7.451 -0.2892 -0.0038 -0.1423
   78MOL    H71 9465   4.879   0.922   7.293 -0.6540  2.6768  1.6111
   78MOL    H72 9466   4.711   0.966   7.301 -1.9199 -1.5280 -0.1931
   78MOL    H73 9467   4.685   0.767   7.476 -1.4761  0.9439 -1.2102
   78MOL    C74 9468   4.804   0.930   7.545 -0.0965 -0.3363 -0.8070
   78MOL    C75 9469   4.758   0.914   7.696  0.1761  0.6631  0.1197
   78MOL    F76 9470   4.826   0.806   7.746 -0.2227 -0.1909 -0.5021
   78MOL    H77 9471   4.903   0.975   7.543 -0.3751  0.2407 -1.5638
   78MOL    H78 9472   4.738   1.011   7.513  1.1137  0.0692 -2.3040
   78MOL    H79 9473   4.650   0.899   7.703  0.1273  0.7446 -0.4035
   78MOL    C80 9474   4.785   1.043   7.769  0.3114  0.0257  0.7108
   78MOL    C81 9475   4.773   1.037   7.925 -0.1319 -0.3273  0.1314
   78MOL    F82 9476   4.890   0.996   7.972  0.2026  0.0938  0.4478
   78MOL    H83 9477   4.891   1.069   7.763  0.0846  1.2809  1.7680
   78MOL    H84 9478   4.729   1.124   7.722  2.7373  1.0259 -0.5529
   78MOL    H85 9479   4.697   0.964   7.954 -0.2448 -1.1144 -2.0490
   78MOL    C86 9480   4.744   1.175   7.986 -0.1415 -0.0269  0.5132
   78MOL    C87 9481   4.603   1.237   7.967 -0.6934 -0.2880  0.1417
   78MOL    F88 9482   4.591   1.280   7.841 -0.0907 -0.2522 -0.1841
   78MOL    H89 9483   4.767   1.164   0.089  0.4511  0.5764  0.4501
   78MOL    H90 9484   4.811   1.254   7.950 -0.9833  0.4159 -0.0880
   78MOL    H91 9485   4.588   1.327   0.024  0.6660 -0.4455  0.7554
   78MOL    C92 9486   4.483   1.146   0.003 -0.6940 -0.0725  0.4463
   78MOL    C93 9487   4.485   1.098   0.153  0.5880  0.5814  0.1508
   78MOL    F94 9488   4.585   1.018   0.170 -0.6857 -0.1586  0.0915
   78MOL    H95 9489   4.388   1.198   7.991 -1.3868 -1.6858 -0.9436
   78MOL    H96 9490   4.479   1.067   7.931  3.0464 -1.1967  1.3285
   78MOL    H97 9491   4.394   1.040   0.169 -0.3635  2.0748  0.2433
   78MOL    C98 9492   4.480   1.207   0.261  0.0988 -0.0950  0.7168
   78MOL    C99 9493   4.363   1.302   0.271 -0.1009  0.3444 -0.0524
   78MOL   F100 9494   4.254   1.235   0.294  0.1346 -0.0027 -0.2851
   78MOL   H101 9495   4.496   1.154   0.355 -0.9174 -0.6087  0.5944
   78MOL   H102 9496   4.561   1.280   0.249 -0.4379  0.4438  0.3355
   78MOL   H103 9497   4.335   1.355   0.180 -1.1296  2.6222  1.5582
   78MOL   C104 9498   4.387   1.406   0.388  0.2802 -0.5329 -0.5292
   78MOL   C105 9499   4.271   1.491   0.436  0.2022  0.7989  0.0667
   78MOL   F106 9500   4.313   1.564   0.535  0.1414 -0.2498 -0.0128
   78MOL   H107 9501   4.420   1.355   0.478  1.6835  2.0103  0.4687
   78MOL   H108 9502   4.470   1.475   0.371 -0.5343  1.4922  3.1471
   78MOL   H109 9503   4.198   1.419   0.474 -0.6192  0.6516 -1.7352
   78MOL   C110 9504   4.201   1.581   0.332  0.1702 -0.1047 -0.1518
   78MOL   C111 9505   4.289   1.694   0.280  0.4417  0.8041 -0.4428
   78MOL   F112 9506   4.384   1.641   0.204  0.0196 -0.0759  0.5372
   78MOL   H113 9507   4.170   1.520   0.248 -1.2705  2.1931 -1.3478
   78MOL   H114 9508   4.106   1.612   0.374  0.8881  0.8348  0.8190
   78MOL   H115 9509   4.355   1.740   0.353 -0.6197  0.4777  0.7503
   78MOL   C116 9510   4.218   1.798   0.197 -0.3404  0.0752 -0.5636
   78MOL   C117 9511   4.150   1.914   0.259 -0.3871 -0.5313 -0.7405
   78MOL   F118 9512   4.234   1.989   0.340 -0.6608 -0.2453 -0.1853
   78MOL   H119 9513   4.298   1.844   0.139 -0.7289 -0.9227 -1.9155
   78MOL   H120 9514   4.161   1.753   0.116  0.1120 -0.5137 -0.5569
   78MOL   H121 9515   4.076   1.872   0.328 -0.2063 -1.1348 -0.9067
   78MOL   H122 9516   4.103   1.990   0.197 -1.2558 -2.6296 -2.6963
   79MOL     C1 9517   4.703   1.124   1.898 -0.0183  0.4360 -0.0470
   79MOL     C2 9518   4.629   0.993   1.895  0.7409 -0.2083  0.1769
   79MOL     F3 9519   4.501   1.021   1.871  0.0401  0.1762 -0.4325
   79MOL     H4 9520   4.685   1.184   1.809  1.3998  0.9718  0.0175
   79MOL     H5 9521   4.809   1.109   1.922 -0.3881 -0.8173  0.8824
   79MOL     H6 9522   4.634   0.960   1.999  1.1413 -0.4609  0.0763
   79MOL     H7 9523   4.665   1.184   1.981 -0.0783  1.7037 -0.9800
   79MOL     C8 9524   4.703   0.894   1.807 -0.0678 -0.6611  0.0957
   79MOL     C9 9525   4.630   0.757   1.814  0.1567 -0.4427 -0.5224
   79MOL    F10 9526   4.516   0.766   1.750 -0.3774 -0.2136 -0.1827
   79MOL    H11 9527   4.715   0.933   1.706  1.0236  2.1889  1.2724
   79MOL    H12 9528   4.804   0.882   1.848 -0.4367 -0.6118  1.0416
   79MOL    H13 9529   4.601   0.726   1.915  1.0912  0.7394  0.1143
   79MOL    C14 9530   4.687   0.629   1.754 -0.2338  0.2292  0.1808
   79MOL    C15 9531   4.691   0.631   1.599 -0.1234 -0.1884  0.2942
   79MOL    F16 9532   4.780   0.727   1.548 -0.0620 -0.1555 -0.0370
   79MOL    H17 9533   4.791   0.608   1.781 -0.4774 -1.4326 -0.0906
   79MOL    H18 9534   4.624   0.545   1.785 -0.1349  0.2675  0.4930
   79MOL    H19 9535   4.594   0.657   1.557  1.3074  1.2463 -2.2337
   79MOL    C20 9536   4.740   0.497   1.540  0.0096 -0.1912  0.0678
   79MOL    C21 9537   4.737   0.478   1.393  0.2522  0.5355  0.0419
   79MOL    F22 9538   4.805   0.362   1.373  0.8139 -0.4464 -0.1314
   79MOL    H23 9539   4.843   0.480   1.570  0.7084  0.4329 -1.9041
   79MOL    H24 9540   4.691   0.412   1.588 -1.1261  0.5729  0.2782
   79MOL    H25 9541   4.779   0.560   1.335  0.0115  0.1418 -0.6915
   79MOL    C26 9542   4.600   0.457   1.327 -0.8327  0.5906  0.3961
   79MOL    C27 9543   4.596   0.456   1.174  0.2956 -0.0146  0.0367
   79MOL    F28 9544   4.668   0.352   1.136 -0.3322  0.3913  0.1411
   79MOL    H29 9545   4.556   0.373   1.380 -0.5260  0.9574  1.2379
   79MOL    H30 9546   4.526   0.530   1.360 -0.0655  1.2772  0.6280
   79MOL    H31 9547   4.648   0.542   1.131 -0.5330  1.3214  1.6689
   79MOL    C32 9548   4.451   0.446   1.121  0.2689  0.1237 -0.1357
   79MOL    C33 9549   4.442   0.486   0.969 -0.1919  0.3477  0.9350
   79MOL    F34 9550   4.473   0.611   0.953 -0.5462 -0.2972 -0.0787
   79MOL    H35 9551   4.420   0.342   1.132  6.0799 -1.5164  3.4883
   79MOL    H36 9552   4.390   0.521   1.171 -2.6508 -1.3649 -1.3541
   79MOL    H37 9553   4.336   0.498   0.945 -0.3952 -2.0461  0.5028
   79MOL    C38 9554   4.524   0.401   0.866 -0.3223 -0.5940  0.0482
   79MOL    C39 9555   4.479   0.258   0.846 -0.4272  0.2277 -0.0053
   79MOL    F40 9556   4.375   0.282   0.766  0.2720  0.1049  0.6892
   79MOL    H41 9557   4.537   0.465   0.778 -1.2829 -0.5982 -0.1000
   79MOL    H42 9558   4.619   0.390   0.919 -1.5798 -0.3786  2.3730
   79MOL    H43 9559   4.449   0.216   0.942  2.1531 -0.7607  0.4055
   79MOL    C44 9560   4.565   0.170   0.756  0.6308  0.1713 -0.4448
   79MOL    C45 9561   4.695   0.114   0.832  0.4448  0.4457 -0.6765
   79MOL    F46 9562   4.644   0.025   0.925 -0.2520 -0.4005 -0.2852
   79MOL    H47 9563   4.513   0.081   0.720 -2.2248  1.3331  0.5959
   79MOL    H48 9564   4.592   0.225   0.667 -2.0170  0.3463 -1.1969
   79MOL    H49 9565   4.738   0.200   0.885 -0.3229  1.2254 -1.2952
   79MOL    C50 9566   4.798   0.042   0.739  0.8723 -0.7795 -0.3474
   79MOL    C51 9567   4.750   7.926   0.662 -0.3133  0.0679  0.7102
   79MOL    F52 9568   4.841   7.898   0.565  0.3744  0.3558 -0.4437
   79MOL    H53 9569   4.845   0.113   0.670 -1.5524 -0.1089 -1.3449
   79MOL    H54 9570   4.873   0.005   0.809 -0.9804 -1.9324  1.0486
   79MOL    H55 9571   4.663   7.957   0.605  0.3951  0.6414 -0.0878
   79MOL    C56 9572   4.720   7.804   0.739 -0.1256  0.3230 -0.2754
   79MOL    C57 9573   4.640   7.690   0.658  0.0680 -0.0864 -0.0425
   79MOL    F58 9574   4.638   7.588   0.735  0.1201 -0.2831  0.4433
   79MOL    H59 9575   4.814   7.774   0.785 -1.2524 -2.6420  0.2258
   79MOL    H60 9576   4.658   7.830   0.825  2.1650 -2.3036  2.2718
   79MOL    H61 9577   4.691   7.649   0.570 -0.0841 -2.0355  0.7499
   79MOL    C62 9578   4.492   7.733   0.621  0.1504 -0.2149 -0.2085
   79MOL    C63 9579   4.399   7.749   0.739 -0.4493  0.1524  0.7497
   79MOL    F64 9580   4.413   7.856   0.816 -0.4988  0.2152  0.1022
   79MOL    H65 9581   4.484   7.822   0.558 -1.2257 -1.2325 -1.5060
   79MOL    H66 9582   4.458   7.644   0.568  0.0740 -0.0199 -0.4869
   79MOL    H67 9583   4.424   7.673   0.813  1.6261  2.1340  2.1598
   79MOL    C68 9584   4.244   7.741   0.686  0.2328  0.1995 -0.0752
   79MOL    C69 9585   4.130   7.780   0.794 -0.3140 -0.0412  0.1853
   79MOL    F70 9586   4.022   7.815   0.727  0.1683  0.1833  0.0055
   79MOL    H71 9587   4.232   7.803   0.597  2.4296 -1.5633 -1.6366
   79MOL    H72 9588   4.222   7.642   0.647  1.2052 -0.6447  1.4481
   79MOL    H73 9589   4.168   7.865   0.850 -0.6281  0.1667  0.0821
   79MOL    C74 9590   4.097   7.661   0.884 -0.4523  0.1691  0.1662
   79MOL    C75 9591   3.999   7.695   1.006  0.7776  0.7369  0.2500
   79MOL    F76 9592   3.880   7.730   0.956  0.6318 -0.1459  0.2430
   79MOL    H77 9593   4.076   7.576   0.819 -0.6782  0.0817  0.3515
   79MOL    H78 9594   4.185   7.628   0.939 -1.2401  0.3822  1.5690
   79MOL    H79 9595   4.028   7.778   1.070  0.6180  1.2753 -0.3651
   79MOL    C80 9596   3.986   7.567   1.092  0.2444  0.4678  0.0153
   79MOL    C81 9597   3.884   7.576   1.212 -0.0497 -0.1227 -0.1493
   79MOL    F82 9598   3.846   7.448   1.234  0.0162 -0.5926  0.5060
   79MOL    H83 9599   3.944   7.489   1.028 -1.0251 -0.6404  2.1179
   79MOL    H84 9600   4.087   7.548   1.128  0.6478 -0.5835 -1.6275
   79MOL    H85 9601   3.796   7.635   1.184  0.4770  0.5417 -0.4298
   79MOL    C86 9602   3.944   7.630   1.342  0.5408  0.8527  0.9325
   79MOL    C87 9603   3.836   7.655   1.455 -0.2576  0.4160  0.1752
   79MOL    F88 9604   3.756   7.756   1.427 -0.0443  0.2929  0.2992
   79MOL    H89 9605   4.022   7.565   1.382  2.3131  0.9771 -2.1219
   79MOL    H90 9606   3.994   7.724   1.320  0.7181  0.8438  1.2954
   79MOL    H91 9607   3.883   7.696   1.545 -1.8747  0.4185  1.0416
   79MOL    C92 9608   3.764   7.533   1.522 -0.6555  0.2928 -0.1637
   79MOL    C93 9609   3.863   7.425   1.569 -0.5321 -0.4543  0.4152
   79MOL    F94 9610   3.956   7.493   1.643  0.3680  0.4732 -0.4770
   79MOL    H95 9611   3.707   7.561   1.610  0.4714 -0.1766  0.7302
   79MOL    H96 9612   3.696   7.486   1.451  0.4192  1.6350 -2.1368
   79MOL    H97 9613   3.924   7.384   1.489  0.4944 -0.1448  1.0171
   79MOL    C98 9614   3.794   7.309   1.650 -0.2436 -0.1927  0.2925
   79MOL    C99 9615   3.891   7.193   1.684 -0.6669 -0.6596 -0.0806
   79MOL   F100 9616   3.942   7.140   1.574 -0.7015  0.9096  0.1197
   79MOL   H101 9617   3.737   7.341   1.737 -1.1806 -1.7645  0.2821
   79MOL   H102 9618   3.718   7.258   1.590  1.8632 -0.5421 -2.1995
   79MOL   H103 9619   3.838   7.112   1.733 -0.4037 -0.1394  1.0788
   79MOL   C104 9620   4.004   7.237   1.779  0.3551  0.0128 -0.8758
   79MOL   C105 9621   4.105   7.133   1.830 -0.2367 -0.2289 -0.3647
   79MOL   F106 9622   4.211   7.189   1.899  0.0065  0.3112  0.1911
   79MOL   H107 9623   4.067   7.312   1.731 -0.2754 -0.3513 -2.2929
   79MOL   H108 9624   3.955   7.286   1.864  1.6315  0.0405 -0.1361
   79MOL   H109 9625   4.144   7.078   1.744  0.8202 -2.4258  1.4501
   79MOL   C110 9626   4.035   7.021   1.921  0.0713  0.4916 -0.1002
   79MOL   C111 9627   3.935   7.051   2.040  0.5084  0.0283  0.0067
   79MOL   F112 9628   3.817   7.091   1.995  0.1183 -0.6873  0.1604
   79MOL   H113 9629   3.986   6.952   1.852  1.3218 -0.4796 -0.0340
   79MOL   H114 9630   4.119   6.961   1.957 -0.7693 -0.5934  0.0771
   79MOL   H115 9631   3.980   7.121   2.110  0.4404  0.5275 -0.4484
   79MOL   C116 9632   3.902   6.933   2.127  0.8673  0.1974  0.2762
   79MOL   C117 9633   3.811   6.956   2.239 -0.2021  1.4077 -0.5784
   79MOL   F118 9634   3.802   6.843   2.309  0.1344 -0.2144  0.1247
   79MOL   H119 9635   3.860   6.855   2.063 -0.9583 -0.1970  1.9090
   79MOL   H120 9636   3.994   6.909   2.179  0.7335  0.9254  0.8605
   79MOL   H121 9637   3.706   6.979   2.225 -0.6924 -0.7826 -0.6686
   79MOL   H122 9638   3.843   7.040   2.302  2.4983 -3.1444  4.5198
   80MOL     C1 9639   0.466   6.711   4.913  1.1273  0.2254 -0.0242
   80MOL     C2 9640   0.513   6.571   4.852  0.1621  0.2604  0.3117
   80MOL     F3 9641   0.603   6.524   4.935  0.4033  0.1523 -0.7513
   80MOL     H4 9642   0.560   6.745   4.957  1.0462 -1.0634  1.1991
   80MOL     H5 9643   0.404   6.713   5.002  1.6396  1.1819  0.3134
   80MOL     H6 9644   0.560   6.590   4.755  0.5652 -2.3384 -0.0310
   80MOL     H7 9645   0.429   6.790   4.848 -0.0284 -0.0015  0.3403
   80MOL     C8 9646   0.388   6.477   4.843 -0.0338  0.1004  0.1295
   80MOL     C9 9647   0.416   6.339   4.783 -0.0744  0.4513  0.1471
   80MOL    F10 9648   0.505   6.271   4.862  0.6081  0.2866 -0.2314
   80MOL    H11 9649   0.326   6.458   4.931  1.5242 -2.4734  0.7386
   80MOL    H12 9650   0.316   6.520   4.773  0.7429  0.5072 -0.4300
   80MOL    H13 9651   0.454   6.358   4.683 -1.6188 -0.0326 -0.5536
   80MOL    C14 9652   0.293   6.244   4.767 -0.4154  0.3210  0.9613
   80MOL    C15 9653   0.221   6.246   4.626 -0.9081  0.0260 -0.6766
   80MOL    F16 9654   0.310   6.193   4.540  0.1482  0.0411  0.3929
   80MOL    H17 9655   0.335   6.143   4.776 -0.6531  0.0618 -0.6854
   80MOL    H18 9656   0.223   6.247   4.850  0.3902 -2.0525  1.7839
   80MOL    H19 9657   0.192   6.346   4.593 -0.1601  0.6257  0.4649
   80MOL    C20 9658   0.100   6.145   4.622 -0.8324 -0.4480  1.0963
   80MOL    C21 9659   7.985   6.189   4.716  0.1466 -0.2303 -1.0085
   80MOL    F22 9660   7.952   6.317   4.688 -0.1412 -0.3689  0.2086
   80MOL    H23 9661   0.073   6.136   4.517 -0.2347 -0.8657  0.9739
   80MOL    H24 9662   0.137   6.043   4.633 -0.2152 -0.4043 -0.5095
   80MOL    H25 9663   0.020   6.189   4.818 -2.6808 -0.1885  0.0878
   80MOL    C26 9664   7.856   6.109   4.701  0.5479 -0.4341  0.3739
   80MOL    C27 9665   7.722   6.172   4.749  0.0947 -0.0125  0.3603
   80MOL    F28 9666   7.622   6.146   4.661  0.6262  0.2134 -0.0396
   80MOL    H29 9667   7.851   6.095   4.593  1.6263 -0.7664  0.3638
   80MOL    H30 9668   7.878   6.010   4.739 -0.3216 -1.0704 -0.7313
   80MOL    H31 9669   7.727   6.280   4.739 -2.6515  0.3044  2.0442
   80MOL    C32 9670   7.678   6.124   4.892  0.2914 -0.1738  0.1914
   80MOL    C33 9671   7.551   6.203   4.934 -0.1262  0.2912  0.0895
   80MOL    F34 9672   7.451   6.186   4.855 -0.4521 -0.3039  0.5263
   80MOL    H35 9673   7.657   6.017   4.883  1.3989 -0.3970  0.2420
   80MOL    H36 9674   7.747   6.141   4.974 -2.8780  0.8292  2.7499
   80MOL    H37 9675   7.563   6.311   4.941 -1.2410  0.4561 -0.4655
   80MOL    C38 9676   7.505   6.159   5.073  0.0614 -0.1980 -0.2350
   80MOL    C39 9677   7.427   6.274   5.147 -0.8059  0.2122 -0.4528
   80MOL    F40 9678   7.380   6.226   5.261  0.4623  0.3070 -0.0929
   80MOL    H41 9679   7.447   6.068   5.056 -0.6857  0.3803 -0.8541
   80MOL    H42 9680   7.578   6.119   5.143 -0.2354 -1.8343 -0.8279
   80MOL    H43 9681   7.340   6.307   5.090 -0.5560  1.6210 -0.0220
   80MOL    C44 9682   7.514   6.399   5.177  0.6048  0.4168  0.1089
   80MOL    C45 9683   7.440   6.522   5.240  0.0798 -0.5085 -0.9104
   80MOL    F46 9684   7.530   6.614   5.261  0.3473 -0.5392  0.9066
   80MOL    H47 9685   7.598   6.358   5.233  0.7869  0.1185 -0.3720
   80MOL    H48 9686   7.564   6.438   5.088  0.5901  0.4335  0.1083
   80MOL    H49 9687   7.395   6.505   5.338  1.8727  0.7168  0.1599
   80MOL    C50 9688   7.340   6.583   5.141 -0.1445  0.2419 -0.0620
   80MOL    C51 9689   7.272   6.716   5.178  0.7191 -0.1269 -0.8826
   80MOL    F52 9690   7.205   6.704   5.294  0.2649 -0.1232  0.3356
   80MOL    H53 9691   7.389   6.591   5.045  1.1468 -0.0029  0.5631
   80MOL    H54 9692   7.259   6.511   5.129 -2.0613  2.2129  0.5675
   80MOL    H55 9693   7.194   6.728   5.102 -1.2566 -0.4763  1.0201
   80MOL    C56 9694   7.360   6.844   5.180  0.2467  0.9464 -0.4738
   80MOL    C57 9695   7.295   6.975   5.138  0.1519 -0.0654  0.4248
   80MOL    F58 9696   7.370   7.085   5.156 -0.0038 -0.0407 -0.1540
   80MOL    H59 9697   7.402   6.847   5.280 -0.6910  1.1910 -0.0787
   80MOL    H60 9698   7.450   6.839   5.118  3.5472  3.4644  3.8854
   80MOL    H61 9699   7.209   7.005   5.199  0.5214  0.8507  0.4976
   80MOL    C62 9700   7.270   6.984   4.983  0.0252 -0.2203  0.4097
   80MOL    C63 9701   7.166   7.083   4.932  0.9542 -0.2398 -0.7484
   80MOL    F64 9702   7.045   7.054   4.982 -0.2981  0.0190 -0.2800
   80MOL    H65 9703   7.362   6.989   4.925 -0.7892  0.0868 -0.8688
   80MOL    H66 9704   7.240   6.885   4.948 -0.9068 -0.0386  0.6790
   80MOL    H67 9705   7.162   7.059   4.825  1.9956  0.6388 -0.9985
   80MOL    C68 9706   7.209   7.225   4.952 -0.9698 -0.4529  0.0574
   80MOL    C69 9707   7.324   7.280   4.869  0.4203 -0.8542 -0.2982
   80MOL    F70 9708   7.289   7.284   4.737 -0.1936  0.4424 -0.5319
   80MOL    H71 9709   7.128   7.284   4.910 -0.0358  1.1940  0.4891
   80MOL    H72 9710   7.209   7.239   5.060  2.1205  1.6505 -0.1374
   80MOL    H73 9711   7.400   7.202   4.866  0.9650 -0.3381  0.1572
   80MOL    C74 9712   7.397   7.407   4.908 -0.2369 -0.1412 -0.7237
   80MOL    C75 9713   7.457   7.393   5.051 -0.6941  0.2201  0.1588
   80MOL    F76 9714   7.535   7.289   5.055  0.1619  0.8213  0.1354
   80MOL    H77 9715   7.480   7.422   4.839 -0.7053  1.1858 -1.0200
   80MOL    H78 9716   7.322   7.486   4.905 -0.8263 -0.7098 -1.2230
   80MOL    H79 9717   7.376   7.369   5.119  0.5800 -2.7753  0.7146
   80MOL    C80 9718   7.532   7.515   5.113 -0.0171 -0.8979 -0.3266
   80MOL    C81 9719   7.438   7.633   5.132 -0.0668  0.2585 -0.4129
   80MOL    F82 9720   7.358   7.600   5.235 -0.3501  0.3537  0.2101
   80MOL    H83 9721   7.581   7.495   5.209 -1.7832 -0.2196  0.7530
   80MOL    H84 9722   7.614   7.543   5.048  0.6046  0.3006  0.9606
   80MOL    H85 9723   7.382   7.654   5.042 -0.2215  2.3521  0.1591
   80MOL    C86 9724   7.532   7.753   5.155 -0.4266 -0.1781  0.7331
   80MOL    C87 9725   7.459   7.882   5.199 -1.0033 -0.2186 -0.1877
   80MOL    F88 9726   7.553   7.968   5.223  0.1183  0.4144  0.6350
   80MOL    H89 9727   7.607   7.737   5.232  2.2408  1.0453 -1.5123
   80MOL    H90 9728   7.587   7.787   5.067 -1.0943  2.6383  1.3564
   80MOL    H91 9729   7.400   7.861   5.288 -1.1513 -0.5138 -0.3550
   80MOL    C92 9730   7.356   7.944   5.110 -0.4231 -0.2154  0.0568
   80MOL    C93 9731   7.299   0.078   5.152  0.0378  0.0643  0.8660
   80MOL    F94 9732   7.257   0.135   5.032 -0.1975 -0.2274 -0.4353
   80MOL    H95 9733   7.412   7.963   5.018 -1.4223 -0.5312 -0.6239
   80MOL    H96 9734   7.284   7.867   5.086  0.0150  0.1744 -2.7790
   80MOL    H97 9735   7.372   0.135   5.209  0.6897  1.2006 -1.0617
   80MOL    C98 9736   7.174   0.072   5.224 -0.1552 -0.8559 -0.1587
   80MOL    C99 9737   7.148   0.218   5.284 -0.5313  0.1176  0.6746
   80MOL   F100 9738   7.109   0.301   5.188  0.5927 -0.5374 -0.2666
   80MOL   H101 9739   7.088   0.041   5.165 -0.8191  0.6621 -0.0077
   80MOL   H102 9740   7.180   0.001   5.307  0.4423 -2.8603 -1.8886
   80MOL   H103 9741   7.239   0.267   5.318 -0.4679 -0.4491  1.3380
   80MOL   C104 9742   7.043   0.220   5.400  0.1299 -0.1463  0.3580
   80MOL   C105 9743   7.078   0.136   5.526  0.0225 -0.1359  0.1532
   80MOL   F106 9744   7.207   0.119   5.543 -0.0945  0.1720  0.5950
   80MOL   H107 9745   7.035   0.323   5.433 -1.1617 -0.4110  0.8842
   80MOL   H108 9746   6.953   0.178   5.355  0.6213 -0.3852 -0.4134
   80MOL   H109 9747   7.026   0.041   5.513  0.5263 -0.5920  1.4371
   80MOL   C110 9748   7.031   0.197   5.656 -0.1543  0.3092 -0.5733
   80MOL   C111 9749   7.041   0.102   5.776  1.0148 -0.4879 -0.1050
   80MOL   F112 9750   7.167   0.076   5.815 -0.2305  0.2659 -0.6750
   80MOL   H113 9751   7.084   0.292   5.668 -1.7914  1.0700  0.7853
   80MOL   H114 9752   6.930   0.234   5.641 -0.1421  0.6226  0.1155
   80MOL   H115 9753   6.986   0.010   5.761 -0.2084  0.1028  0.7230
   80MOL   C116 9754   6.971   0.185   5.882 -0.3275 -0.0247 -0.0618
   80MOL   C117 9755   6.963   0.114   6.015 -0.0996  0.1060 -0.1237
   80MOL   F118 9756   6.858   0.036   6.022  0.1352  0.1068 -0.5274
   80MOL   H119 9757   7.031   0.274   5.897  2.0734 -1.2743 -1.7889
   80MOL   H120 9758   6.876   0.228   5.850 -0.1781 -0.4791 -1.1556
   80MOL   H121 9759   6.950   0.179   6.102  1.2619  0.1998  0.0217
   80MOL   H122 9760   7.045   0.042   6.028  1.4001  1.7481 -0.3186
   81MOL     C1 9761   4.516   3.671   5.218 -0.1224 -0.1511 -0.9014
   81MOL     C2 9762   4.607   3.569   5.143  0.3734  0.3594 -0.3576
   81MOL     F3 9763   4.530   3.458   5.144 -0.2448  0.1679  0.0146
   81MOL     H4 9764   4.540   3.777   5.209  3.4129 -0.7315  1.1302
   81MOL     H5 9765   4.520   3.662   5.327  3.0425  1.2690 -0.8450
   81MOL     H6 9766   4.695   3.560   5.206 -1.6491 -0.1233  2.5177
   81MOL     H7 9767   4.414   3.658   5.181 -0.5230 -0.0026  0.1403
   81MOL     C8 9768   4.629   3.615   4.995 -0.1220 -0.0118  0.0658
   81MOL     C9 9769   4.669   3.500   4.902  0.3211 -0.6201  1.0481
   81MOL    F10 9770   4.637   3.543   4.774 -0.0653  0.4415 -0.1914
   81MOL    H11 9771   4.528   3.644   4.965 -0.1982  1.7021  1.8584
   81MOL    H12 9772   4.705   3.693   4.989  2.1141 -2.0890  0.7943
   81MOL    H13 9773   4.617   3.407   4.929 -1.2907 -0.6025 -1.7686
   81MOL    C14 9774   4.811   3.471   4.909  0.3782 -0.2827 -0.3943
   81MOL    C15 9775   4.856   3.358   4.811 -0.0550 -0.7374 -0.6223
   81MOL    F16 9776   4.985   3.326   4.835  0.3388 -0.3120  0.8042
   81MOL    H17 9777   4.868   3.563   4.897  0.7994 -0.3888  0.7070
   81MOL    H18 9778   4.836   3.436   5.009  1.4012 -1.7141 -1.1323
   81MOL    H19 9779   4.841   3.393   4.709  1.4631  1.7046 -0.0496
   81MOL    C20 9780   4.772   3.222   4.831  0.1390 -0.7648 -0.4109
   81MOL    C21 9781   4.786   3.154   4.970 -0.3974 -0.1716 -0.1289
   81MOL    F22 9782   4.748   3.241   5.058 -0.0095 -0.8266 -0.1767
   81MOL    H23 9783   4.668   3.234   4.800  0.3793 -1.8296 -1.6586
   81MOL    H24 9784   4.803   3.149   4.756 -0.0489  0.6757 -1.9125
   81MOL    H25 9785   4.891   3.127   4.986 -0.7491 -1.3292  0.3237
   81MOL    C26 9786   4.706   3.026   4.981 -0.3944 -0.3678 -0.4742
   81MOL    C27 9787   4.724   2.928   5.095 -0.5117  0.6178 -0.2844
   81MOL    F28 9788   4.828   2.851   5.073 -0.1654 -0.2237  0.2782
   81MOL    H29 9789   4.599   3.044   4.973 -0.0623  1.8149 -0.2842
   81MOL    H30 9790   4.731   2.969   4.892  1.7759 -0.3153  0.0692
   81MOL    H31 9791   4.636   2.864   5.090 -1.6078  2.0896 -0.3540
   81MOL    C32 9792   4.750   2.980   5.239  0.2489 -0.4888 -0.8034
   81MOL    C33 9793   4.713   2.881   5.344 -0.4003 -0.9705  0.2851
   81MOL    F34 9794   4.591   2.841   5.315 -0.3547  0.2232 -0.6552
   81MOL    H35 9795   4.857   2.998   5.243  0.3372 -0.8746 -1.3527
   81MOL    H36 9796   4.706   3.078   5.255 -0.4455 -1.0501  0.9130
   81MOL    H37 9797   4.705   2.924   5.444  2.2610 -0.7354  0.4405
   81MOL    C38 9798   4.822   2.770   5.361  0.3884 -0.0983  0.2144
   81MOL    C39 9799   4.799   2.682   5.494  0.7964  0.4484 -0.1396
   81MOL    F40 9800   4.824   2.764   5.591 -0.2877 -0.0767  0.1987
   81MOL    H41 9801   4.826   2.715   5.267  0.2898 -0.8045  0.6242
   81MOL    H42 9802   4.920   2.819   5.356  0.9330 -1.3716 -2.1349
   81MOL    H43 9803   4.881   2.610   5.502  0.4815 -0.1293 -1.9628
   81MOL    C44 9804   4.658   2.611   5.507  0.3772  0.9835  0.2206
   81MOL    C45 9805   4.622   2.501   5.397 -0.6039 -0.6333 -0.2433
   81MOL    F46 9806   4.718   2.409   5.395 -0.0299  0.1036  0.2806
   81MOL    H47 9807   4.666   2.564   5.604 -0.0492 -0.3186 -0.3670
   81MOL    H48 9808   4.582   2.689   5.513 -0.0419  0.8785 -2.7617
   81MOL    H49 9809   4.631   2.558   5.305  3.7261  1.7900  1.5195
   81MOL    C50 9810   4.487   2.430   5.406 -0.3728 -0.1934  0.3622
   81MOL    C51 9811   4.424   2.410   5.543  0.2142 -0.6867  0.5079
   81MOL    F52 9812   4.389   2.522   5.605  0.3730 -0.2032  0.1566
   81MOL    H53 9813   4.425   2.498   5.348 -0.4847 -1.0425 -0.5436
   81MOL    H54 9814   4.499   2.332   5.359  0.6883  0.0553  0.0772
   81MOL    H55 9815   4.501   2.372   5.610 -0.0301  1.1908  1.8786
   81MOL    C56 9816   4.305   2.313   5.541 -0.3398  0.2726 -0.1314
   81MOL    C57 9817   4.248   2.288   5.687 -0.4445  0.3501  0.2470
   81MOL    F58 9818   4.132   2.220   5.679  0.3031 -0.5480 -0.3414
   81MOL    H59 9819   4.229   2.345   5.470 -0.4218 -0.1949 -0.2542
   81MOL    H60 9820   4.334   2.217   5.497  2.0625  1.1335 -0.5339
   81MOL    H61 9821   4.228   2.381   5.740 -2.7739  0.0069  0.0216
   81MOL    C62 9822   4.334   2.203   5.784  0.0545 -0.1142 -0.1615
   81MOL    C63 9823   4.353   2.055   5.745 -0.2669 -0.1444 -0.0102
   81MOL    F64 9824   4.445   2.059   5.649  0.0982 -0.6632  0.4005
   81MOL    H65 9825   4.427   2.247   5.821  0.2110  0.3933 -1.1449
   81MOL    H66 9826   4.277   2.215   5.877  1.9063 -0.0095  0.9943
   81MOL    H67 9827   4.258   2.012   5.715 -0.9753  1.9881 -0.8842
   81MOL    C68 9828   4.412   1.952   5.843  0.3273  0.1001  0.0040
   81MOL    C69 9829   4.341   1.916   5.977  0.0943  0.9352 -0.2724
   81MOL    F70 9830   4.236   1.844   5.950  0.1110 -0.2679  0.6204
   81MOL    H71 9831   4.416   1.864   5.779 -0.3046 -0.4432  0.7063
   81MOL    H72 9832   4.516   1.976   5.865  0.8330 -0.2293 -1.9719
   81MOL    H73 9833   4.295   2.004   6.022 -0.9163 -0.4577  1.4857
   81MOL    C74 9834   4.435   1.857   6.082 -0.1304 -0.5891 -0.3052
   81MOL    C75 9835   4.484   1.717   6.057  0.0397  0.3657  0.3043
   81MOL    F76 9836   4.526   1.685   5.931  0.3075 -0.1866 -0.1993
   81MOL    H77 9837   4.518   1.922   6.111 -0.6005 -0.3329  0.4909
   81MOL    H78 9838   4.382   1.837   6.175 -1.2327 -0.7757 -0.9715
   81MOL    H79 9839   4.389   1.664   6.063 -0.2354  0.7389 -0.6478
   81MOL    C80 9840   4.579   1.665   6.170  0.8727  0.7260 -0.0060
   81MOL    C81 9841   4.557   1.520   6.203  0.6401  0.5921 -0.5584
   81MOL    F82 9842   4.592   1.448   6.102 -0.1031 -0.2329  0.2881
   81MOL    H83 9843   4.682   1.680   6.137  1.0063 -0.0697  0.0394
   81MOL    H84 9844   4.578   1.732   6.256  0.1756 -0.8838  1.2677
   81MOL    H85 9845   4.451   1.498   6.215  0.5989  1.6445  1.0715
   81MOL    C86 9846   4.631   1.472   6.327 -0.5653  0.5105  0.1937
   81MOL    C87 9847   4.614   1.325   6.361 -0.5009  0.5532  0.2505
   81MOL    F88 9848   4.717   1.291   6.439  0.3324  0.2981 -0.1695
   81MOL    H89 9849   4.737   1.490   6.305 -0.1449  0.5479  2.1372
   81MOL    H90 9850   4.615   1.535   6.414  1.6165 -1.5428  2.1865
   81MOL    H91 9851   4.621   1.260   6.274 -0.2450  0.7858  0.0945
   81MOL    C92 9852   4.487   1.294   6.442  0.4905  0.1767  0.3794
   81MOL    C93 9853   4.350   1.302   6.362  0.3806 -1.4977 -0.1204
   81MOL    F94 9854   4.377   1.272   6.232 -0.0948 -0.0032  0.0925
   81MOL    H95 9855   4.499   1.204   6.501  1.8202  0.0033 -0.1195
   81MOL    H96 9856   4.483   1.368   6.522 -1.1212  0.6456 -0.1323
   81MOL    H97 9857   4.310   1.404   6.362 -1.1762 -2.0872  1.1933
   81MOL    C98 9858   4.250   1.200   6.412 -0.3469 -0.2336  0.6602
   81MOL    C99 9859   4.113   1.188   6.341 -0.2492 -0.1990  0.6614
   81MOL   F100 9860   4.073   1.319   6.342  0.6225  0.7840 -0.5442
   81MOL   H101 9861   4.284   1.097   6.413 -0.8946 -0.4603 -1.5663
   81MOL   H102 9862   4.226   1.234   6.513  0.5167  0.8169  0.5295
   81MOL   H103 9863   4.043   1.140   6.408 -0.1985  0.1983  0.9971
   81MOL   C104 9864   4.114   1.133   6.195  0.0584 -0.2490 -0.4318
   81MOL   C105 9865   4.185   0.997   6.180  0.4612  0.9459 -0.4953
   81MOL   F106 9866   4.131   0.914   6.268  0.2116  0.2695 -0.1778
   81MOL   H107 9867   4.008   1.130   6.172 -0.2441  1.5194  0.7284
   81MOL   H108 9868   4.163   1.215   6.142 -0.2011  0.1983  0.0253
   81MOL   H109 9869   4.293   1.001   6.194  0.2307  3.0238  0.9067
   81MOL   C110 9870   4.151   0.939   6.038 -0.4846  0.4429  0.4908
   81MOL   C111 9871   4.207   0.794   6.011 -0.2938 -0.1274  0.0757
   81MOL   F112 9872   4.140   0.733   5.913  0.0589  0.0750  0.1344
   81MOL   H113 9873   4.043   0.947   6.025 -0.4057 -0.2860 -0.7091
   81MOL   H114 9874   4.194   0.994   5.954 -0.5873 -0.3793 -0.1028
   81MOL   H115 9875   4.199   0.732   6.100  1.1060 -1.6848 -0.8473
   81MOL   C116 9876   4.358   0.792   5.965  1.0703  0.8735  0.1848
   81MOL   C117 9877   4.425   0.664   6.011 -0.5669  0.1785  0.1988
   81MOL   F118 9878   4.554   0.668   5.982  0.1557  0.4236  0.6117
   81MOL   H119 9879   4.363   0.818   5.859  0.1968 -0.7934 -0.2840
   81MOL   H120 9880   4.413   0.868   6.020  1.5524  0.8278 -0.2377
   81MOL   H121 9881   4.393   0.575   5.957  1.2534 -0.4539  0.1339
   81MOL   H122 9882   4.421   0.656   6.120 -2.9077 -2.0198  0.0139
   82MOL     C1 9883   3.007   4.815   6.607 -0.3013 -0.4012  0.1206
   82MOL     C2 9884   3.114   4.898   6.667  0.0069  0.4343  0.1468
   82MOL     F3 9885   3.060   5.018   6.676 -0.1995  0.1345  0.0887
   82MOL     H4 9886   2.941   4.874   6.543 -0.5546 -0.4095  0.3728
   82MOL     H5 9887   2.934   4.773   6.677 -2.1716 -1.5201 -2.4241
   82MOL     H6 9888   3.207   4.895   6.609  0.2779  1.5413  0.5118
   82MOL     H7 9889   3.044   4.738   6.540 -0.4186 -0.6107  0.2966
   82MOL     C8 9890   3.148   4.830   6.804 -0.0903 -0.9938 -0.2275
   82MOL     C9 9891   3.252   4.902   6.882 -0.2806  0.2966 -0.1711
   82MOL    F10 9892   3.218   5.033   6.904 -0.5379  0.1807  0.3539
   82MOL    H11 9893   3.059   4.823   6.867  0.6343  2.2731  1.3099
   82MOL    H12 9894   3.180   4.731   6.773  0.3195 -1.1262  0.6234
   82MOL    H13 9895   3.337   4.903   6.814 -0.3644 -0.5937 -0.2934
   82MOL    C14 9896   3.284   4.831   7.012 -0.2312  0.4533 -0.1054
   82MOL    C15 9897   3.348   4.684   7.003 -0.6428 -0.2078 -0.6172
   82MOL    F16 9898   3.461   4.710   6.937 -0.0068 -0.3312  0.5276
   82MOL    H17 9899   3.351   4.896   7.069 -0.3184  0.4146  0.0425
   82MOL    H18 9900   3.194   4.818   7.071 -0.1222 -0.1440 -0.0691
   82MOL    H19 9901   3.282   4.623   6.941  1.6707 -3.3401 -0.0854
   82MOL    C20 9902   3.373   4.616   7.137 -0.3480  0.2976 -0.1770
   82MOL    C21 9903   3.391   4.462   7.140  0.0304  0.6396  0.2082
   82MOL    F22 9904   3.430   4.438   7.267  0.2040  0.3583  0.2341
   82MOL    H23 9905   3.440   4.673   7.201 -0.2804 -1.0309  0.9469
   82MOL    H24 9906   3.280   4.628   7.191 -1.6287  0.8900 -2.4442
   82MOL    H25 9907   3.477   4.437   7.078 -1.7415 -0.1168 -2.0366
   82MOL    C26 9908   3.265   4.377   7.123 -0.1553 -0.4591 -0.0501
   82MOL    C27 9909   3.295   4.228   7.132 -0.0419  0.3140 -0.1189
   82MOL    F28 9910   3.305   4.196   7.266  0.0907 -0.0344  0.0150
   82MOL    H29 9911   3.186   4.395   7.196 -0.7229 -0.0715 -0.7563
   82MOL    H30 9912   3.216   4.398   7.028 -0.2217 -0.8194 -0.0970
   82MOL    H31 9913   3.387   4.193   7.085  0.8897  3.6087 -0.8897
   82MOL    C32 9914   3.181   4.138   7.080 -0.9902 -0.6362 -0.5308
   82MOL    C33 9915   3.230   3.993   7.058 -0.0760  0.0606 -0.5451
   82MOL    F34 9916   3.273   3.929   7.165  0.2866 -0.0814  0.4359
   82MOL    H35 9917   3.101   4.138   7.154  0.4646 -0.9926  1.0549
   82MOL    H36 9918   3.124   4.165   6.990  0.3355  1.3163 -0.7956
   82MOL    H37 9919   3.303   3.989   6.978  1.1367 -0.6220  0.5723
   82MOL    C38 9920   3.102   3.900   7.020 -0.0634  0.7016  0.6316
   82MOL    C39 9921   3.138   3.757   6.984 -1.2577 -0.6144  0.8086
   82MOL    F40 9922   3.037   3.671   6.948  0.9505  0.0263  0.2203
   82MOL    H41 9923   3.044   3.899   7.112 -2.3099  1.5634 -0.7451
   82MOL    H42 9924   3.039   3.944   6.943 -1.9679 -0.4166  1.5415
   82MOL    H43 9925   3.177   3.707   7.072 -1.1886  0.1502  1.2166
   82MOL    C44 9926   3.236   3.737   6.866 -0.4462 -0.3030 -0.5066
   82MOL    C45 9927   3.181   3.776   6.727  0.1151 -0.7054 -0.2792
   82MOL    F46 9928   3.162   3.905   6.745  0.4824 -0.2449  0.2158
   82MOL    H47 9929   3.323   3.801   6.880 -2.5440  2.5993 -0.0655
   82MOL    H48 9930   3.269   3.634   6.878 -1.6645 -0.7230 -0.7294
   82MOL    H49 9931   3.088   3.721   6.715 -0.8965  0.9797 -0.3528
   82MOL    C50 9932   3.286   3.744   6.614  0.1186  0.0690  0.8805
   82MOL    C51 9933   3.243   3.780   6.473  0.0180 -0.1815  0.3689
   82MOL    F52 9934   3.242   3.915   6.475 -0.7051  0.1175 -0.5035
   82MOL    H53 9935   3.381   3.793   6.636 -0.0152 -0.4348  2.6355
   82MOL    H54 9936   3.312   3.638   6.617 -0.1726 -0.0831 -1.0750
   82MOL    H55 9937   3.139   3.754   6.454  0.0246  0.0311  0.0398
   82MOL    C56 9938   3.336   3.727   6.366 -0.1300  0.4553  0.3257
   82MOL    C57 9939   3.323   3.571   6.345  0.6332 -0.5587  0.0935
   82MOL    F58 9940   3.199   3.532   6.311  0.3902  0.0114  0.1793
   82MOL    H59 9941   3.312   3.759   6.265 -2.4214  0.1578  0.7523
   82MOL    H60 9942   3.437   3.757   6.395  0.0946  1.6321 -1.5317
   82MOL    H61 9943   3.337   3.529   6.445  2.8735 -0.2172 -0.0501
   82MOL    C62 9944   3.429   3.506   6.253 -0.2166  0.2080 -0.2344
   82MOL    C63 9945   3.460   3.355   6.297  0.6829  0.5988  0.3059
   82MOL    F64 9946   3.350   3.285   6.273  0.3459 -0.2900 -0.0745
   82MOL    H65 9947   3.410   3.515   6.146 -0.4703 -1.6038 -0.3643
   82MOL    H66 9948   3.521   3.561   6.272  0.0955 -0.4010  0.0634
   82MOL    H67 9949   3.463   3.343   6.405  0.4343  2.0977  0.5000
   82MOL    C68 9950   3.588   3.305   6.228 -0.2663 -0.3123 -0.1366
   82MOL    C69 9951   3.656   3.176   6.279 -0.6408 -0.1890 -0.3382
   82MOL    F70 9952   3.709   3.198   6.403 -0.1666  0.0734  0.4484
   82MOL    H71 9953   3.571   3.308   6.120  0.8957 -2.1387 -0.3939
   82MOL    H72 9954   3.661   3.386   6.242 -1.8905  0.9435  1.2456
   82MOL    H73 9955   3.744   3.173   6.216  0.4396  0.5790  1.0960
   82MOL    C74 9956   3.565   3.046   6.289  0.3596  0.2789 -0.4476
   82MOL    C75 9957   3.509   2.993   6.149 -0.7678  0.0652 -0.2383
   82MOL    F76 9958   3.614   2.987   6.067 -0.5433 -0.2015  0.0147
   82MOL    H77 9959   3.632   2.969   6.328  0.0709  0.5048  0.5180
   82MOL    H78 9960   3.472   3.052   6.346  0.0260  2.5554 -1.1825
   82MOL    H79 9961   3.442   3.067   6.105  0.8452  0.7564 -1.5949
   82MOL    C80 9962   3.439   2.858   6.170 -0.0240  0.4006  0.0235
   82MOL    C81 9963   3.342   2.822   6.059 -0.1300 -0.6870 -0.3943
   82MOL    F82 9964   3.229   2.888   6.078 -0.5136 -0.0687  0.2852
   82MOL    H83 9965   3.511   2.784   6.204 -0.0379 -0.4990 -1.8234
   82MOL    H84 9966   3.377   2.866   6.260  0.4560 -1.8318  0.5983
   82MOL    H85 9967   3.299   2.722   6.066  0.8483 -1.1996 -1.4894
   82MOL    C86 9968   3.396   2.823   5.915 -0.0843 -0.0431  0.8512
   82MOL    C87 9969   3.463   2.695   5.863  0.2471  0.3364  0.2136
   82MOL    F88 9970   3.380   2.586   5.862 -0.1565  0.4113 -0.2439
   82MOL    H89 9971   3.313   2.839   5.845  0.1111  0.7463  0.7918
   82MOL    H90 9972   3.460   2.909   5.897 -1.7139  0.5828 -2.3670
   82MOL    H91 9973   3.547   2.685   5.932  0.7400 -0.1537 -0.4541
   82MOL    C92 9974   3.524   2.700   5.717  0.3796 -0.6732 -0.5563
   82MOL    C93 9975   3.642   2.791   5.699  0.9069 -0.2930  0.0610
   82MOL    F94 9976   3.739   2.773   5.786  0.6416 -0.6440 -0.3418
   82MOL    H95 9977   3.552   2.598   5.692  1.8252 -0.3525 -0.2887
   82MOL    H96 9978   3.450   2.738   5.647 -0.8097 -1.0590  0.4675
   82MOL    H97 9979   3.601   2.891   5.713  0.8097 -0.3279  0.0247
   82MOL    C98 9980   3.707   2.783   5.560  0.3482 -0.5583  0.0543
   82MOL    C99 9981   3.784   2.649   5.534  0.8826 -0.0225 -1.1283
   82MOL   F100 9982   3.703   2.546   5.508 -0.2405  0.2313 -0.1049
   82MOL   H101 9983   3.625   2.782   5.488  0.2644 -1.9564  0.1648
   82MOL   H102 9984   3.766   2.872   5.539  1.1828 -1.6438 -2.3844
   82MOL   H103 9985   3.844   2.633   5.624 -1.6075  0.8407  0.7326
   82MOL   C104 9986   3.888   2.662   5.423 -0.3560 -0.7833 -0.2515
   82MOL   C105 9987   4.000   2.554   5.428 -0.7898  0.5205  0.0358
   82MOL   F106 9988   4.083   2.564   5.531 -0.3158  0.3675  0.0877
   82MOL   H107 9989   3.831   2.669   5.331 -0.8460  1.2171  0.1943
   82MOL   H108 9990   3.945   2.754   5.425 -2.9450  0.9501 -2.7612
   82MOL   H109 9991   4.077   2.579   5.355  1.0152  0.9822  2.0622
   82MOL   C110 9992   3.949   2.410   5.400 -0.6489 -0.0038  0.5298
   82MOL   C111 9993   3.856   2.401   5.275 -0.6243 -0.2435 -1.0967
   82MOL   F112 9994   3.930   2.437   5.172 -0.1272  0.2442  0.4564
   82MOL   H113 9995   4.029   2.340   5.378 -1.4614 -0.3025 -1.5547
   82MOL   H114 9996   3.895   2.380   5.490 -2.2909 -0.7394 -0.6809
   82MOL   H115 9997   3.773   2.470   5.292  0.3700  0.3903  1.3867
   82MOL   C116 9998   3.802   2.265   5.252  0.5888 -0.0038 -0.0650
   82MOL   C117 9999   3.692   2.212   5.347  0.4025  0.1790 -0.0065
   82MOL   F11810000   3.641   2.089   5.317  0.2870  0.6923  0.3986
   82MOL   H11910001   3.764   2.273   5.150  0.9943  1.2676 -0.1208
   82MOL   H12010002   3.884   2.195   5.237 -1.6998 -2.1753 -3.2201
   82MOL   H12110003   3.612   2.285   5.341  0.9880  0.7650 -1.0203
   82MOL   H12210004   3.725   2.209   5.450 -1.7140  0.4481  0.6956
   83MOL     C110005   4.939   7.948   6.149 -0.5336  0.6570 -0.3862
   83MOL     C210006   4.885   7.828   6.067  0.6609 -0.6440  0.3467
   83MOL     F310007   4.803   7.870   5.974  0.2753 -0.0451  0.0804
   83MOL     H410008   4.857   7.989   6.209 -0.9177 -0.5796 -0.0399
   83MOL     H510009   4.986   0.014   6.079 -2.0702 -0.8448 -2.9915
   83MOL     H610010   4.814   7.783   6.136  1.5757 -1.0033  1.0725
   83MOL     H710011   5.013   7.917   6.223  0.0421  2.9351  0.0304
   83MOL     C810012   4.988   7.730   6.010  0.5869 -0.2952  0.3462
   83MOL     C910013   4.918   7.601   5.962 -0.1808  0.5284  0.3190
   83MOL    F1010014   5.006   7.540   5.886  0.6503  0.0033 -0.3043
   83MOL    H1110015   5.047   7.777   5.932  0.0436 -1.4685 -0.8076
   83MOL    H1210016   5.067   7.699   6.079  1.8365  0.5422 -0.6857
   83MOL    H1310017   4.832   7.618   5.897  0.3314 -1.4597 -0.8910
   83MOL    C1410018   4.889   7.511   6.079 -0.3625  0.5832 -0.0389
   83MOL    C1510019   4.797   7.382   6.055  0.2242  0.5595  0.2479
   83MOL    F1610020   4.693   7.427   5.988  0.0906 -0.3517 -0.2568
   83MOL    H1710021   4.977   7.478   6.134  1.3539  2.0530 -1.8518
   83MOL    H1810022   4.831   7.573   6.148 -0.4150 -1.1530  1.5036
   83MOL    H1910023   4.757   7.351   6.151 -0.9966  0.0793 -0.4082
   83MOL    C2010024   4.843   7.262   5.970  0.7515  0.8018 -0.3068
   83MOL    C2110025   4.864   7.146   6.065  0.2702  0.5422  0.0065
   83MOL    F2210026   4.741   7.129   6.124 -0.3293  0.0415 -0.2130
   83MOL    H2310027   4.758   7.241   5.905  1.1664 -0.2620 -0.5075
   83MOL    H2410028   4.925   7.303   5.911  0.4558  0.4344 -0.9678
   83MOL    H2510029   4.929   7.166   6.150 -0.2416  1.3666  0.2048
   83MOL    C2610030   4.919   7.028   5.994 -0.3651  0.5538 -0.7682
   83MOL    C2710031   5.059   7.036   5.944 -0.2769 -0.3029  0.6510
   83MOL    F2810032   5.139   7.090   6.040  0.0827 -0.9351  0.2793
   83MOL    H2910033   4.912   6.943   6.063 -0.9188 -0.3495 -1.9090
   83MOL    H3010034   4.850   6.993   5.916  1.2070 -2.3950 -0.9082
   83MOL    H3110035   5.069   7.104   5.860  0.0318  0.4345  1.2801
   83MOL    C3210036   5.112   6.893   5.908 -0.6461 -0.0471 -0.4407
   83MOL    C3310037   5.258   6.892   5.859  0.1224  0.2994 -0.4120
   83MOL    F3410038   5.296   6.772   5.812  0.6176  0.6871  0.0988
   83MOL    H3510039   5.112   6.823   5.992  0.5995 -2.2786 -2.2600
   83MOL    H3610040   5.042   6.865   5.829 -1.0414 -0.8340  0.1785
   83MOL    H3710041   5.323   6.901   5.946  2.2784 -0.3453 -1.9184
   83MOL    C3810042   5.298   6.987   5.746 -0.7769 -0.0549  0.1473
   83MOL    C3910043   5.247   6.958   5.603  0.4676  0.0304 -0.2142
   83MOL    F4010044   5.121   7.002   5.606 -0.2892  0.1049 -0.4229
   83MOL    H4110045   5.288   7.091   5.776  0.1544  0.0314  0.1436
   83MOL    H4210046   5.407   6.987   5.744 -0.7169  1.7549  1.8285
   83MOL    H4310047   5.241   6.854   5.570 -1.5965 -0.2591  1.0027
   83MOL    C4410048   5.333   7.028   5.499 -0.0271  0.5961 -0.1697
   83MOL    C4510049   5.278   6.992   5.358 -1.0036  0.3672  0.0316
   83MOL    F4610050   5.157   7.039   5.341  0.1665  0.4478  0.1101
   83MOL    H4710051   5.351   7.134   5.519  3.0662  0.1429 -0.2665
   83MOL    H4810052   5.436   6.993   5.505 -0.0004  0.6277 -0.4235
   83MOL    H4910053   5.276   6.884   5.350  3.0576  0.1797  0.5943
   83MOL    C5010054   5.362   7.053   5.242 -0.3516  1.2103  0.4677
   83MOL    C5110055   5.510   6.995   5.231  0.7762 -0.0296 -0.7617
   83MOL    F5210056   5.509   6.864   5.256  0.4523  0.5497 -0.0053
   83MOL    H5310057   5.310   7.024   5.151 -0.0712 -0.1314  0.7242
   83MOL    H5410058   5.351   7.161   5.247  0.9358  1.3707  0.1105
   83MOL    H5510059   5.579   7.051   5.294  1.1874 -0.1825 -1.0752
   83MOL    C5610060   5.562   7.004   5.089  0.0662 -0.5671  0.2355
   83MOL    C5710061   5.582   7.144   5.032 -0.0090  0.0640 -0.1790
   83MOL    F5810062   5.694   7.189   5.086 -0.9194  0.2264 -0.5636
   83MOL    H5910063   5.645   6.934   5.080  0.4926 -0.2004  1.2730
   83MOL    H6010064   5.489   6.959   5.022  2.0604 -0.8129 -1.8392
   83MOL    H6110065   5.512   7.211   5.081  0.2379 -0.4665  0.9088
   83MOL    C6210066   5.586   7.142   4.873 -0.4124 -0.7575 -0.3085
   83MOL    C6310067   5.686   7.054   4.798  0.1537  0.5678 -0.4972
   83MOL    F6410068   5.641   6.930   4.786  0.3652 -0.0505  0.3250
   83MOL    H6510069   5.492   7.107   4.829 -1.7470  2.0510  0.1997
   83MOL    H6610070   5.602   7.245   4.844 -0.3088 -0.4547  0.8142
   83MOL    H6710071   5.772   7.041   4.864 -1.1552 -1.1399  0.9407
   83MOL    C6810072   5.727   7.095   4.657  0.3684  0.2684  0.3671
   83MOL    C6910073   5.644   7.052   4.541  0.6782 -0.6544 -0.4154
   83MOL    F7010074   5.542   7.132   4.559 -0.3681 -0.7832  0.3463
   83MOL    H7110075   5.753   7.199   4.638  0.8219  0.0142 -0.4401
   83MOL    H7210076   5.828   7.057   4.639  1.1261  2.2110  0.3664
   83MOL    H7310077   5.615   6.947   4.541 -1.3207 -0.1497 -1.9126
   83MOL    C7410078   5.703   7.093   4.404  0.1393  0.1639 -0.3934
   83MOL    C7510079   5.838   7.040   4.344  0.8831  0.3950 -0.6230
   83MOL    F7610080   5.832   6.911   4.373 -0.4192 -0.8221  0.7162
   83MOL    H7710081   5.616   7.085   4.339  0.6676 -2.1102 -0.8380
   83MOL    H7810082   5.717   7.201   4.410  1.2591 -0.0052  0.1923
   83MOL    H7910083   5.925   7.089   4.387  2.4284 -1.1855 -1.9135
   83MOL    C8010084   5.827   7.060   4.196 -0.8342  0.0162  0.5206
   83MOL    C8110085   5.963   7.008   4.127 -0.2878 -0.6296 -0.4398
   83MOL    F8210086   5.931   7.013   3.998  0.2726 -0.3456 -0.7841
   83MOL    H8310087   5.745   6.994   4.169 -0.9376 -0.9509  3.0697
   83MOL    H8410088   5.813   7.163   4.164  0.6338 -0.0241 -0.2904
   83MOL    H8510089   5.973   6.901   4.147 -0.2546 -0.0709  2.7385
   83MOL    C8610090   6.087   7.099   4.136  0.1528  0.2425  0.2427
   83MOL    C8710091   6.207   7.042   4.058  0.2619 -0.8047 -0.8801
   83MOL    F8810092   6.168   7.045   3.927  0.0270 -0.2658  0.0616
   83MOL    H8910093   6.056   7.201   4.117 -1.8633 -0.6083 -1.3167
   83MOL    H9010094   6.114   7.091   4.242  1.7021  0.5465 -0.1273
   83MOL    H9110095   6.232   6.938   4.082  0.6590  0.0084  2.4320
   83MOL    C9210096   6.330   7.128   4.065  0.2925  0.2693  0.4390
   83MOL    C9310097   6.402   7.116   4.203  0.4817  0.3343  0.1094
   83MOL    F9410098   6.425   6.991   4.235 -0.1930 -0.2832 -0.8284
   83MOL    H9510099   6.390   7.100   3.978  1.0115  1.2678  0.6011
   83MOL    H9610100   6.289   7.229   4.059  0.3170  0.2727  0.3241
   83MOL    H9710101   6.337   7.156   4.281 -1.0147  0.3214 -1.1136
   83MOL    C9810102   6.535   7.187   4.198  0.1768 -0.1444 -1.0239
   83MOL    C9910103   6.638   7.142   4.092  0.9441 -0.5893  0.0113
   83MOL   F10010104   6.601   7.200   3.976 -0.0157  0.1125 -0.4359
   83MOL   H10110105   6.520   7.295   4.194 -0.8915 -0.2248  0.3712
   83MOL   H10210106   6.586   7.176   4.294  0.7408 -0.8097 -1.4051
   83MOL   H10310107   6.635   7.033   4.087  0.3426 -0.6177  0.7364
   83MOL   C10410108   6.786   7.168   4.126 -0.0036  0.2874 -0.4029
   83MOL   C10510109   6.823   7.304   4.175 -0.5948 -0.0969 -0.6732
   83MOL   F10610110   6.950   7.307   4.216  0.1648 -0.6043 -0.2692
   83MOL   H10710111   6.819   7.095   4.200 -1.7274  0.5393  0.6303
   83MOL   H10810112   6.849   7.139   4.042  2.2585 -0.3231  1.4312
   83MOL   H10910113   6.758   7.329   4.259 -0.9560 -2.6066 -0.1674
   83MOL   C11010114   6.810   7.397   4.051  0.2531 -0.6533 -0.6380
   83MOL   C11110115   6.890   7.526   4.072  0.1568 -0.2509  0.7735
   83MOL   F11210116   6.874   7.595   3.955 -0.1265 -0.2291 -0.1024
   83MOL   H11310117   6.852   7.342   3.966  1.3431  1.0903 -1.2559
   83MOL   H11410118   6.707   7.413   4.022 -0.5759 -1.3752  1.8093
   83MOL   H11510119   6.997   7.505   4.078  0.4615  1.2200  0.7765
   83MOL   C11610120   6.851   7.619   4.179  0.3265 -0.2691 -0.3164
   83MOL   C11710121   6.938   7.742   4.191  0.4761 -0.5413  0.0220
   83MOL   F11810122   6.929   7.799   4.308 -0.5775 -0.7810  0.4747
   83MOL   H11910123   6.749   7.652   4.161  0.1051 -1.3783 -1.1068
   83MOL   H12010124   6.851   7.563   4.273  2.8610  1.4380  0.7624
   83MOL   H12110125   6.912   7.821   4.121  1.9819  0.6701  0.7897
   83MOL   H12210126   7.045   7.724   4.179  0.6187  1.0481 -1.3358
   84MOL     C110127   6.004   3.012   3.499 -0.0582  0.8805  0.0252
   84MOL     C210128   6.025   3.067   3.362  0.4929  0.0620  0.5172
   84MOL     F310129   5.963   2.976   3.282  0.1688 -0.3643  0.6832
   84MOL     H410130   6.044   3.081   3.573  0.9001 -1.3331  1.6170
   84MOL     H510131   6.032   2.910   3.526 -1.8426  0.5425  0.6668
   84MOL     H610132   6.133   3.057   3.351  0.5995  0.2559  1.3820
   84MOL     H710133   5.896   3.008   3.515 -0.1020  0.7575 -0.2916
   84MOL     C810134   5.971   3.213   3.342 -0.3971 -0.6049 -0.0871
   84MOL     C910135   5.969   3.277   3.191  0.3878 -0.1347 -0.2636
   84MOL    F1010136   5.893   3.388   3.181  0.5944  0.0006  0.0813
   84MOL    H1110137   5.864   3.215   3.364 -0.2019  2.3350  0.7738
   84MOL    H1210138   6.024   3.288   3.401 -0.3814 -2.0148  1.7544
   84MOL    H1310139   5.931   3.198   3.127  0.1432  0.6387 -1.0801
   84MOL    C1410140   6.108   3.307   3.128  0.0383  0.1716 -0.1973
   84MOL    C1510141   6.115   3.317   2.976  0.3715  0.5654 -0.3610
   84MOL    F1610142   6.052   3.426   2.933  0.1388  0.2870 -0.4450
   84MOL    H1710143   6.169   3.388   3.169  0.1608  0.0103 -0.0625
   84MOL    H1810144   6.173   3.225   3.157 -0.1230  0.2037  0.2426
   84MOL    H1910145   6.058   3.238   2.927  0.5629 -0.7870  1.5461
   84MOL    C2010146   6.253   3.310   2.919 -0.0341  0.1759 -0.2430
   84MOL    C2110147   6.260   3.347   2.769 -0.2310 -0.4171 -0.1593
   84MOL    F2210148   6.389   3.354   2.742 -0.1241 -0.3802  0.4132
   84MOL    H2310149   6.318   3.379   2.972 -1.4441  1.9355 -0.7427
   84MOL    H2410150   6.296   3.212   2.938  1.2374  0.5602 -1.0421
   84MOL    H2510151   6.225   3.448   2.747 -0.1658  0.0112  1.6143
   84MOL    C2610152   6.203   3.258   2.665 -0.0781 -0.3492  0.2072
   84MOL    C2710153   6.205   3.302   2.511 -0.2727 -0.5722  0.4621
   84MOL    F2810154   6.160   3.424   2.512 -0.2123  0.2334 -0.0347
   84MOL    H2910155   6.256   3.164   2.676 -1.9136 -1.4296 -0.0105
   84MOL    H3010156   6.100   3.231   2.684  0.0082 -0.8077  0.0275
   84MOL    H3110157   6.153   3.229   2.449 -2.9897  0.5125  1.3674
   84MOL    C3210158   6.338   3.315   2.437 -0.6009 -1.0240  0.8435
   84MOL    C3310159   6.412   3.182   2.407 -0.1551  0.5139 -0.2905
   84MOL    F3410160   6.434   3.117   2.520  0.1116  0.3119  0.7988
   84MOL    H3510161   6.317   3.365   2.343 -0.8444 -0.9993  0.9130
   84MOL    H3610162   6.414   3.370   2.493  1.3912 -4.1152  1.3499
   84MOL    H3710163   6.511   3.211   2.373 -0.3607 -0.7247 -1.9642
   84MOL    C3810164   6.346   3.080   2.317  0.3045 -0.0627 -0.7088
   84MOL    C3910165   6.356   3.123   2.175  0.7729  0.3700 -0.5674
   84MOL    F4010166   6.486   3.140   2.147 -0.0936 -0.3976  0.7395
   84MOL    H4110167   6.403   2.987   2.313  2.0674  0.9117  0.7256
   84MOL    H4210168   6.241   3.063   2.343  0.3230  0.0789 -0.5355
   84MOL    H4310169   6.297   3.213   2.156 -2.8310 -2.0524 -1.4950
   84MOL    C4410170   6.310   3.006   2.079  1.1804  1.0871  0.2428
   84MOL    C4510171   6.335   3.049   1.930 -0.1611 -0.8281  0.7043
   84MOL    F4610172   6.297   3.171   1.895  0.0426  0.1909 -0.2562
   84MOL    H4710173   6.351   2.909   2.108 -1.1592 -0.6525 -1.9831
   84MOL    H4810174   6.201   2.996   2.085  1.4509 -3.1376 -0.2466
   84MOL    H4910175   6.269   2.981   1.877  0.3892  0.1087 -1.2044
   84MOL    C5010176   6.476   3.025   1.884 -0.0734  0.6560  0.0310
   84MOL    C5110177   6.548   2.902   1.933  0.0642  0.0762  0.8478
   84MOL    F5210178   6.480   2.790   1.905  0.0252 -0.1773  0.2577
   84MOL    H5310179   6.469   3.018   1.775 -0.5898 -0.3453  0.1206
   84MOL    H5410180   6.533   3.114   1.907  1.1495  0.0908 -0.7841
   84MOL    H5510181   6.556   2.892   2.041 -0.7083 -2.1805  0.7233
   84MOL    C5610182   6.693   2.892   1.880  0.2659 -1.7228 -0.0119
   84MOL    C5710183   6.760   2.756   1.907  0.3602 -0.7824 -0.4665
   84MOL    F5810184   6.865   2.740   1.829 -0.1693 -0.9655 -0.1443
   84MOL    H5910185   6.693   2.921   1.774  1.0460 -0.3336  0.3511
   84MOL    H6010186   6.736   2.976   1.934 -2.0041  0.7312 -1.8172
   84MOL    H6110187   6.693   2.674   1.881  2.0177 -2.5709  0.7576
   84MOL    C6210188   6.795   2.737   2.058  0.2141 -0.4922 -0.3293
   84MOL    C6310189   6.882   2.616   2.099 -0.8642 -0.3588  0.6399
   84MOL    F6410190   6.804   2.500   2.103  0.5816 -0.0794 -0.5514
   84MOL    H6510191   6.838   2.833   2.088 -1.6412  0.7891 -1.6039
   84MOL    H6610192   6.700   2.721   2.108 -1.1406 -2.6377 -3.4148
   84MOL    H6710193   6.916   2.630   2.202  0.0005  0.7655  0.2066
   84MOL    C6810194   7.008   2.576   2.021  0.2948  0.1745 -0.8280
   84MOL    C6910195   7.107   2.478   2.091 -0.0707  0.4469 -0.1640
   84MOL    F7010196   7.134   2.520   2.221  0.0727 -0.3840  0.3330
   84MOL    H7110197   6.988   2.545   1.919 -0.4703 -1.5505 -0.1846
   84MOL    H7210198   7.061   2.670   2.006  1.1615 -0.1269  0.2193
   84MOL    H7310199   7.204   2.476   2.041 -0.3807  0.4593 -0.7712
   84MOL    C7410200   7.057   2.334   2.095  0.7510 -0.0294 -0.2234
   84MOL    C7510201   7.036   2.278   1.958  0.5374 -0.0695 -0.6004
   84MOL    F7610202   7.156   2.294   1.902  0.2703 -0.2656  0.7707
   84MOL    H7710203   7.131   2.270   2.144  1.7414  0.6799 -0.7531
   84MOL    H7810204   6.966   2.332   2.155  1.0642 -0.7421  0.2260
   84MOL    H7910205   6.964   2.338   1.901 -2.6402 -2.9498  0.1784
   84MOL    C8010206   7.006   2.123   1.954  0.5138  0.0452 -0.3889
   84MOL    C8110207   7.018   2.057   1.813  0.3280  0.1443 -0.4538
   84MOL    F8210208   7.034   1.926   1.825 -0.0566  0.1352 -0.3589
   84MOL    H8310209   7.075   2.069   2.019  1.0842 -0.0507 -1.0640
   84MOL    H8410210   6.906   2.101   1.993 -0.7529  0.4353 -3.2963
   84MOL    H8510211   7.114   2.090   1.775  0.4924 -1.3618 -1.4092
   84MOL    C8610212   6.910   2.089   1.720 -0.6293 -0.0452 -0.2425
   84MOL    C8710213   6.917   2.061   1.570  0.1017 -0.0061  0.1937
   84MOL    F8810214   6.812   2.105   1.512 -0.2273  0.4487 -0.5515
   84MOL    H8910215   6.815   2.057   1.763 -1.0889 -0.1559 -1.3316
   84MOL    H9010216   6.895   2.197   1.728  0.8751  0.0835  1.1860
   84MOL    H9110217   6.922   1.952   1.560 -0.1797  0.0014 -0.0473
   84MOL    C9210218   7.043   2.108   1.504 -0.0255 -0.0951 -0.0498
   84MOL    C9310219   7.068   2.071   1.358 -0.3117 -0.1353 -0.4020
   84MOL    F9410220   7.080   1.932   1.350 -0.0960  0.2062  0.2161
   84MOL    H9510221   7.058   2.215   1.517  0.9411 -0.2272  0.0191
   84MOL    H9610222   7.129   2.069   1.559  0.4064  2.1711  0.9511
   84MOL    H9710223   7.169   2.105   1.332 -0.4887 -0.7631 -2.0172
   84MOL    C9810224   6.958   2.123   1.262 -0.1370  0.1001  0.4886
   84MOL    C9910225   6.987   2.117   1.109 -0.4061  0.1881 -0.8256
   84MOL   F10010226   6.861   2.121   1.053  0.5356 -0.5266 -0.2298
   84MOL   H10110227   6.863   2.076   1.290 -0.0834 -0.2729  0.0474
   84MOL   H10210228   6.937   2.229   1.276  1.2858  0.4851 -0.2127
   84MOL   H10310229   7.021   2.015   1.094 -0.8697 -0.2457  0.9687
   84MOL   C10410230   7.073   2.235   1.054 -0.4888 -1.2334 -0.1558
   84MOL   C10510231   7.116   2.228   0.910  0.3017  0.4355  0.5504
   84MOL   F10610232   7.008   2.189   0.836 -0.2823 -0.2066 -0.1564
   84MOL   H10710233   7.018   2.328   1.064 -0.9361 -1.3928 -1.0734
   84MOL   H10810234   7.174   2.252   1.092 -0.5219  1.3785 -1.1973
   84MOL   H10910235   7.195   2.154   0.899  0.1443  0.7190 -2.8349
   84MOL   C11010236   7.162   2.366   0.858  0.1751 -0.1093 -0.8197
   84MOL   C11110237   7.227   2.363   0.715 -0.5885 -0.2467 -0.3802
   84MOL   F11210238   7.124   2.367   0.626 -0.6107  0.8609  0.0835
   84MOL   H11310239   7.079   2.436   0.849  0.8763  1.1912  2.1702
   84MOL   H11410240   7.232   2.416   0.925 -0.7668  0.8603 -0.5468
   84MOL   H11510241   7.284   2.271   0.709 -1.4525 -0.8982  1.0831
   84MOL   C11610242   7.321   2.478   0.679 -1.0537  0.4630 -0.1129
   84MOL   C11710243   7.441   2.502   0.772 -0.9706 -0.2998 -0.0101
   84MOL   F11810244   7.517   2.601   0.728 -0.2390  0.4081 -0.2637
   84MOL   H11910245   7.350   2.459   0.576  1.6566  2.1999  0.2767
   84MOL   H12010246   7.258   2.567   0.672  1.6617  2.6426  2.1031
   84MOL   H12110247   7.503   2.413   0.788  0.7368  0.6645 -1.0504
   84MOL   H12210248   7.412   2.537   0.871  0.0435  0.6154 -0.0233
   85MOL     C110249   4.592   7.586   7.846  0.4095  0.1573  0.0270
   85MOL     C210250   4.624   7.730   7.815  0.2518  0.4360 -0.6098
   85MOL     F310251   4.738   7.738   7.761 -0.3908  0.2872 -0.0405
   85MOL     H410252   4.504   7.580   7.911  1.5599 -1.7806  1.4598
   85MOL     H510253   4.677   7.540   7.897  0.5583  0.4252  0.0236
   85MOL     H610254   4.626   7.797   7.901 -2.6502 -2.0024  1.4810
   85MOL     H710255   4.556   7.534   7.757  0.5399  1.5239 -0.8419
   85MOL     C810256   4.524   7.793   7.714  0.7158 -0.4984  0.4759
   85MOL     C910257   4.530   7.942   7.706  0.0472 -0.4844  0.9856
   85MOL    F1010258   4.643   7.981   7.655 -0.3554 -0.4616  0.0974
   85MOL    H1110259   4.557   7.744   7.622 -1.0368 -2.9215  1.0981
   85MOL    H1210260   4.422   7.760   7.734  0.3668  0.9457  1.1991
   85MOL    H1310261   4.524   7.988   7.804  1.9506 -2.1982  1.9681
   85MOL    C1410262   4.408   8.001   7.626  0.4096 -0.2375 -0.1625
   85MOL    C1510263   4.417   7.964   7.472 -0.0108  0.0536 -0.1174
   85MOL    F1610264   4.396   7.834   7.459  0.2478 -0.2724 -0.8235
   85MOL    H1710265   4.316   7.964   7.670 -1.3377  0.3190 -3.2153
   85MOL    H1810266   4.407   0.105   7.649 -0.7180 -0.5009  1.0657
   85MOL    H1910267   4.519   7.974   7.436 -0.4893  2.3280 -0.8966
   85MOL    C2010268   4.329   0.036   7.372  0.2188  0.4417  0.1442
   85MOL    C2110269   4.352   0.002   7.220 -0.1512  0.4979  0.2287
   85MOL    F2210270   4.285   7.895   7.190  0.0238  0.3335  0.0087
   85MOL    H2310271   4.227   0.010   7.399  0.3654  0.3572  0.6125
   85MOL    H2410272   4.344   0.144   7.372  0.2215  0.4420 -0.1035
   85MOL    H2510273   4.458   7.978   7.212 -0.7400 -1.6653 -0.6984
   85MOL    C2610274   4.305   0.109   7.121  0.4736  0.0088 -0.4398
   85MOL    C2710275   4.376   0.243   7.112  0.6688  0.1804  0.0379
   85MOL    F2810276   4.495   0.231   7.053  0.4346  0.2158  0.1085
   85MOL    H2910277   4.307   0.065   7.022 -0.1028  0.7569 -0.7865
   85MOL    H3010278   4.205   0.138   7.152  0.5509  0.0851 -0.2567
   85MOL    H3110279   4.405   0.275   7.212  0.5452  0.5089 -0.0313
   85MOL    C3210280   4.308   0.361   7.038 -0.3460  0.1381 -0.0964
   85MOL    C3310281   4.205   0.446   7.118 -0.1775 -0.0589 -0.1070
   85MOL    F3410282   4.240   0.475   7.242 -0.0422 -0.0729 -0.0944
   85MOL    H3510283   4.373   0.438   6.996  3.2804 -1.8229  1.7128
   85MOL    H3610284   4.250   0.314   6.959 -0.9627  0.8410 -0.0762
   85MOL    H3710285   4.124   0.374   7.133 -0.3535  0.2418  0.4206
   85MOL    C3810286   4.157   0.566   7.033 -0.1169  0.2085 -0.7813
   85MOL    C3910287   4.037   0.645   7.084 -0.0999  0.0912  0.0257
   85MOL    F4010288   4.045   0.680   7.216  0.0758 -0.1162  0.1832
   85MOL    H4110289   4.247   0.622   7.007 -0.4082  0.7441 -0.6297
   85MOL    H4210290   4.129   0.522   6.937  0.4703 -3.0891  0.5017
   85MOL    H4310291   3.949   0.580   7.083 -0.2712  0.3108  0.6925
   85MOL    C4410292   4.012   0.774   7.005 -0.0935 -0.0724  0.4271
   85MOL    C4510293   3.887   0.852   7.060  0.5866  0.2229 -0.4276
   85MOL    F4610294   3.870   0.965   6.991 -0.6080 -0.0906 -0.1034
   85MOL    H4710295   4.102   0.831   7.030 -0.5277 -0.0874  2.1107
   85MOL    H4810296   4.007   0.748   6.899 -0.7141 -1.8742  0.8958
   85MOL    H4910297   3.902   0.876   7.165  0.3328 -0.0858 -0.3199
   85MOL    C5010298   3.747   0.782   7.054 -0.5585  0.2629 -0.6233
   85MOL    C5110299   3.695   0.755   6.910  0.5791  0.3711 -0.5819
   85MOL    F5210300   3.787   0.674   6.848  0.1416 -0.3031 -0.2946
   85MOL    H5310301   3.751   0.687   7.108  2.3111 -0.4154 -1.9353
   85MOL    H5410302   3.677   0.841   7.113  2.1964 -0.5621  3.7788
   85MOL    H5510303   3.688   0.846   6.851 -1.9282 -0.7979 -2.1889
   85MOL    C5610304   3.550   0.704   6.907 -0.4750  0.2748  0.4218
   85MOL    C5710305   3.437   0.810   6.919 -0.0716  0.1412 -0.0107
   85MOL    F5810306   3.435   0.873   6.809  0.5842 -0.0240 -0.2124
   85MOL    H5910307   3.528   0.649   6.816 -0.0543  0.9354 -0.0873
   85MOL    H6010308   3.543   0.636   6.992  1.9276  1.2927  1.4800
   85MOL    H6110309   3.447   0.890   6.993  3.0727 -0.2368  0.0216
   85MOL    C6210310   3.298   0.743   6.940 -0.0560 -0.2183  0.0256
   85MOL    C6310311   3.279   0.697   7.086 -0.0755  0.1877 -0.5815
   85MOL    F6410312   3.297   0.806   7.155 -0.0370  0.0011 -0.1353
   85MOL    H6510313   3.214   0.806   6.912 -1.0961 -0.6350  2.1350
   85MOL    H6610314   3.299   0.656   6.874  1.7381 -0.0585 -0.1980
   85MOL    H6710315   3.361   0.630   7.112 -1.0856 -0.7048  0.3546
   85MOL    C6810316   3.133   0.657   7.127  0.1505  0.4375 -0.1977
   85MOL    C6910317   3.092   0.521   7.067  0.4142 -0.0239 -0.6445
   85MOL    F7010318   3.193   0.429   7.074  0.4768  0.3193 -0.0472
   85MOL    H7110319   3.135   0.645   7.235 -0.4530  0.8969 -0.1329
   85MOL    H7210320   3.058   0.735   7.113  1.4838  1.7749  0.0232
   85MOL    H7310321   3.061   0.534   6.963 -0.0439  0.1523 -0.4873
   85MOL    C7410322   2.970   0.460   7.136 -0.5891  0.5579  0.2058
   85MOL    C7510323   2.925   0.333   7.062 -0.4531 -0.0129  0.0075
   85MOL    F7610324   3.026   0.237   7.070 -0.4244  0.1056 -0.0410
   85MOL    H7710325   2.983   0.423   7.238  2.1036 -1.4768 -0.8223
   85MOL    H7810326   2.886   0.530   7.139 -0.8296  0.2835 -0.0681
   85MOL    H7910327   2.923   0.351   6.955  2.5479  0.7700  0.0469
   85MOL    C8010328   2.797   0.260   7.118  0.1055 -0.0775 -0.1284
   85MOL    C8110329   2.753   0.138   7.031  1.5048 -0.0065 -0.2351
   85MOL    F8210330   2.651   0.071   7.090 -0.5995  0.0227 -0.5115
   85MOL    H8310331   2.803   0.218   7.219 -2.8223 -0.7197 -0.1547
   85MOL    H8410332   2.706   0.320   7.112 -0.8336 -1.3393  1.0542
   85MOL    H8510333   2.831   0.061   7.032  0.0375 -1.5003  1.3060
   85MOL    C8610334   2.714   0.161   6.880 -0.5527 -0.1005 -0.9047
   85MOL    C8710335   2.572   0.208   6.863 -0.8888 -0.1492  0.7325
   85MOL    F8810336   2.570   0.332   6.901  0.1357  0.7132 -0.1985
   85MOL    H8910337   2.771   0.244   6.838 -1.1563 -0.1681 -1.8721
   85MOL    H9010338   2.743   0.071   6.826 -1.8472 -0.6544 -0.6924
   85MOL    H9110339   2.506   0.156   6.932 -0.7087  1.4351  2.1345
   85MOL    C9210340   2.540   0.194   6.715  0.3864 -0.0647  0.5759
   85MOL    C9310341   2.397   0.240   6.671 -0.5398  0.4351  0.5113
   85MOL    F9410342   2.407   0.247   6.543  0.3903 -0.0453  0.6881
   85MOL    H9510343   2.608   0.263   6.665 -0.2097  0.8699  1.0620
   85MOL    H9610344   2.561   0.095   6.675  0.8260  0.4815 -0.5586
   85MOL    H9710345   2.388   0.340   6.713  1.0657  1.3184 -1.1921
   85MOL    C9810346   2.274   0.153   6.709  0.7387 -0.1832  1.2143
   85MOL    C9910347   2.133   0.203   6.672  0.1096 -0.3741 -0.3563
   85MOL   F10010348   2.044   0.131   6.740 -0.1641  0.1686 -0.6781
   85MOL   H10110349   2.282   0.057   6.657  0.2738  1.5804 -2.2331
   85MOL   H10210350   2.274   0.122   6.814 -0.1701  1.1648  1.6259
   85MOL   H10310351   2.108   0.180   6.569 -1.4396  0.5356 -0.2041
   85MOL   C10410352   2.101   0.355   6.707  0.6494 -0.3002  0.5684
   85MOL   C10510353   2.110   0.391   6.857  0.4697 -0.2010  0.1400
   85MOL   F10610354   2.234   0.379   6.911 -0.0948 -0.0884  0.0250
   85MOL   H10710355   2.171   0.419   6.653 -0.1027 -0.7825 -1.0112
   85MOL   H10810356   2.006   0.378   6.659  0.1369  0.1011  1.7801
   85MOL   H10910357   2.047   0.325   6.917  0.2944 -1.1112 -1.0325
   85MOL   C11010358   2.053   0.532   6.892 -0.4003 -0.0194 -0.1162
   85MOL   C11110359   2.132   0.653   6.832  0.3892 -0.4533 -0.5523
   85MOL   F11210360   2.095   0.659   6.703  0.0248 -0.3090  0.0691
   85MOL   H11310361   1.948   0.536   6.863 -0.5939  2.1832  0.7818
   85MOL   H11410362   2.054   0.520   7.000 -2.8012 -0.6190 -0.1192
   85MOL   H11510363   2.240   0.637   6.825  0.9976  1.9958  2.5107
   85MOL   C11610364   2.118   0.793   6.900  0.1659 -0.1359 -0.4004
   85MOL   C11710365   2.195   0.906   6.828 -0.3930 -0.0123  0.4322
   85MOL   F11810366   2.135   0.933   6.710  0.3477 -0.1739  0.2394
   85MOL   H11910367   2.013   0.818   6.911  0.1759 -0.1265 -0.3253
   85MOL   H12010368   2.163   0.780   6.999 -0.1251 -0.7347 -0.3388
   85MOL   H12110369   2.298   0.883   6.800 -0.1061  0.1407  1.3258
   85MOL   H12210370   2.192   0.996   6.890  0.3777  1.4313 -1.5559
   86MOL     C110371   5.019   5.409   1.282  0.5064  0.5925  0.4349
   86MOL     C210372   5.019   5.557   1.303  0.2053  0.6186  0.2431
   86MOL     F310373   5.067   5.624   1.198 -0.3650  0.4637 -0.1040
   86MOL     H410374   5.114   5.365   1.250 -1.0672 -1.2870 -1.9093
   86MOL     H510375   4.958   5.372   1.200 -0.9002  1.4180  1.1092
   86MOL     H610376   5.089   5.575   1.385  3.4245 -2.7273 -1.5934
   86MOL     H710377   4.981   5.362   1.373  1.9215  0.7306  1.1148
   86MOL     C810378   4.882   5.622   1.325 -0.0815  0.5132  0.2631
   86MOL     C910379   4.884   5.773   1.352  0.6449 -0.2942  0.8421
   86MOL    F1010380   4.753   5.815   1.368  0.2255 -0.1209 -0.4309
   86MOL    H1110381   4.829   5.603   1.232 -1.4070 -0.8291  1.2711
   86MOL    H1210382   4.841   5.575   1.414  1.0421 -0.9567  0.0293
   86MOL    H1310383   4.929   5.815   1.263 -0.7043 -1.2740 -0.3233
   86MOL    C1410384   4.963   5.810   1.480  0.3668 -0.5595 -0.4338
   86MOL    C1510385   4.966   5.967   1.494 -0.4630 -0.3364 -0.5307
   86MOL    F1610386   5.001   5.984   1.616  0.0491  0.0109 -0.1325
   86MOL    H1710387   4.913   5.766   1.567  0.4089 -0.2862 -0.2684
   86MOL    H1810388   5.061   5.763   1.481 -0.3926 -2.1688  1.8130
   86MOL    H1910389   4.863   5.996   1.478 -1.4874 -3.6673 -0.3349
   86MOL    C2010390   5.064   6.035   1.406 -0.2088 -0.0773 -1.0564
   86MOL    C2110391   5.068   6.185   1.430 -1.0683  0.0876 -0.4882
   86MOL    F2210392   5.100   6.222   1.560  0.2641 -0.0194  0.1438
   86MOL    H2310393   5.162   5.991   1.424 -1.1959 -1.4317  1.2087
   86MOL    H2410394   5.044   6.005   1.303 -2.3129 -0.0362 -0.6771
   86MOL    H2510395   4.978   6.245   1.415 -1.8290 -0.7174  0.7804
   86MOL    C2610396   5.183   6.243   1.341 -0.2681  0.0071 -0.4908
   86MOL    C2710397   5.164   6.377   1.270  0.3271 -0.1381  1.1208
   86MOL    F2810398   5.054   6.368   1.197 -0.0457  0.2485  0.0632
   86MOL    H2910399   5.276   6.237   1.397 -0.1835 -1.1449 -0.7537
   86MOL    H3010400   5.210   6.178   1.258 -0.0780 -1.7446  0.9286
   86MOL    H3110401   5.249   6.386   1.202 -0.9526  0.1381 -0.4767
   86MOL    C3210402   5.157   6.491   1.372  0.2119  0.0367  0.1662
   86MOL    C3310403   5.169   6.636   1.313  0.7240  0.7663  0.4065
   86MOL    F3410404   5.082   6.649   1.211 -0.2541  0.1672  0.2725
   86MOL    H3510405   5.069   6.479   1.435  2.2148  1.2825  3.3133
   86MOL    H3610406   5.246   6.485   1.434  0.7454  1.0459 -0.4896
   86MOL    H3710407   5.271   6.660   1.287 -0.4946  2.4221 -3.0827
   86MOL    C3810408   5.126   6.740   1.413  0.0648 -0.1022 -0.3702
   86MOL    C3910409   5.211   6.743   1.544 -0.3414 -0.2117 -0.2066
   86MOL    F4010410   5.335   6.782   1.510  0.5245  0.5920  0.1179
   86MOL    H4110411   5.134   6.831   1.354 -0.3906  0.0338 -0.2238
   86MOL    H4210412   5.020   6.735   1.441  0.3196  2.3852  1.1542
   86MOL    H4310413   5.222   6.642   1.582  1.2530  0.0667  0.0758
   86MOL    C4410414   5.164   6.830   1.663 -1.0490 -0.3013  0.3091
   86MOL    C4510415   5.037   6.782   1.734 -0.1612  0.2469 -1.2563
   86MOL    F4610416   5.051   6.651   1.764 -0.5215 -0.1118 -0.3581
   86MOL    H4710417   5.247   6.848   1.732 -1.9094  3.9766  0.3630
   86MOL    H4810418   5.153   6.929   1.618  1.7656 -0.3088 -0.5182
   86MOL    H4910419   4.959   6.790   1.659  1.1032 -1.6390 -2.8410
   86MOL    C5010420   5.003   6.855   1.866 -0.6372  0.1423  0.5409
   86MOL    C5110421   4.882   6.801   1.947 -0.3602  0.2050 -0.5213
   86MOL    F5210422   4.859   6.893   2.044  0.1933 -0.2775 -0.6299
   86MOL    H5310423   5.084   6.849   1.938 -2.2072 -1.1941  2.2326
   86MOL    H5410424   4.992   6.961   1.842  1.2979  0.2307 -0.0185
   86MOL    H5510425   4.900   6.705   1.996  1.0235  1.2694  1.1187
   86MOL    C5610426   4.754   6.779   1.856 -1.0818 -0.1897 -0.0619
   86MOL    C5710427   4.628   6.742   1.937  0.5630 -0.2061 -0.7079
   86MOL    F5810428   4.600   6.846   2.014  0.5225 -0.2601  0.0615
   86MOL    H5910429   4.733   6.867   1.795  0.1993 -0.0503 -0.3123
   86MOL    H6010430   4.772   6.694   1.789 -0.6251 -0.4354  0.3767
   86MOL    H6110431   4.649   6.656   2.000  0.9897 -0.8089 -1.6659
   86MOL    C6210432   4.509   6.710   1.845 -0.2154  0.1463 -0.2776
   86MOL    C6310433   4.395   6.631   1.906 -1.1339 -0.6709  0.2231
   86MOL    F6410434   4.455   6.530   1.965  0.5766  0.2456 -0.2479
   86MOL    H6510435   4.462   6.799   1.802  0.7472  2.3633  3.1201
   86MOL    H6610436   4.549   6.653   1.762 -0.7992  0.1388 -0.5587
   86MOL    H6710437   4.329   6.592   1.828 -0.3248  0.0560 -0.8520
   86MOL    C6810438   4.306   6.707   2.003 -0.3346 -0.9098 -0.3711
   86MOL    C6910439   4.200   6.624   2.080 -0.3430 -0.3722  0.4989
   86MOL    F7010440   4.139   6.718   2.154 -0.1582  0.0574 -0.1119
   86MOL    H7110441   4.367   6.763   2.074 -0.9850 -0.6871  0.0157
   86MOL    H7210442   4.256   6.789   1.951  2.6494  0.9566 -0.4119
   86MOL    H7310443   4.248   6.557   2.151  0.6446  1.6518  1.7891
   86MOL    C7410444   4.101   6.528   2.002  0.4400 -0.1895  0.2332
   86MOL    C7510445   3.985   6.481   2.087 -0.0169  0.3511  0.1494
   86MOL    F7610446   3.901   6.422   1.998  0.2235 -0.0260 -0.2397
   86MOL    H7710447   4.056   6.588   1.923  4.2226  0.1863 -1.7993
   86MOL    H7810448   4.153   6.450   1.945 -2.6236 -1.0085 -1.5677
   86MOL    H7910449   3.936   6.569   2.130 -1.4065  0.7862 -2.2436
   86MOL    C8010450   4.019   6.377   2.197 -0.3843  0.7124 -0.2285
   86MOL    C8110451   3.893   6.321   2.274  0.0146  0.5036  0.8502
   86MOL    F8210452   3.838   6.214   2.207  0.0594 -0.4953 -0.1744
   86MOL    H8310453   4.076   6.295   2.154 -3.2257 -1.9044  0.7249
   86MOL    H8410454   4.088   6.427   2.264 -1.7726  1.9257  0.3391
   86MOL    H8510455   3.810   6.391   2.280  0.0158  0.5648  0.2169
   86MOL    C8610456   3.930   6.266   2.417 -0.2048  0.2665 -0.2257
   86MOL    C8710457   3.821   6.196   2.483  1.1286  0.3044  0.0508
   86MOL    F8810458   3.851   6.188   2.608 -0.3365  0.6801  0.7344
   86MOL    H8910459   4.006   6.188   2.407 -0.5014 -0.4351  2.7627
   86MOL    H9010460   3.960   6.348   2.482 -0.4920 -1.0086  1.5341
   86MOL    H9110461   3.805   6.099   2.435 -1.6146  0.5260  0.4356
   86MOL    C9210462   3.692   6.280   2.488 -0.2016  0.6910 -0.5398
   86MOL    C9310463   3.581   6.223   2.584 -0.4541  0.4139 -0.0881
   86MOL    F9410464   3.472   6.294   2.563 -0.4794  0.1176  0.8421
   86MOL    H9510465   3.703   6.385   2.516  1.3654  0.9594 -2.0491
   86MOL    H9610466   3.638   6.278   2.394 -0.7619  0.8623 -0.2240
   86MOL    H9710467   3.621   6.238   2.684  0.8780 -0.8238 -0.4223
   86MOL    C9810468   3.550   6.075   2.551 -0.3227  0.0173  0.1113
   86MOL    C9910469   3.443   6.020   2.647 -0.2365 -0.4270 -0.4169
   86MOL   F10010470   3.380   5.927   2.581  0.3997 -0.2800  0.2280
   86MOL   H10110471   3.513   6.067   2.449  2.2409 -2.7712 -0.7022
   86MOL   H10210472   3.638   6.015   2.577 -0.9105 -0.4663  0.9915
   86MOL   H10310473   3.362   6.088   2.671  0.3229  1.0208 -2.4607
   86MOL   C10410474   3.486   5.955   2.781  0.2367 -0.1323  0.2404
   86MOL   C10510475   3.540   6.048   2.891 -0.1213 -0.4034 -0.0278
   86MOL   F10610476   3.466   6.159   2.908 -0.2830 -0.4443  0.6990
   86MOL   H10710477   3.399   5.896   2.808 -0.4241  1.2043  1.0753
   86MOL   H10810478   3.558   5.876   2.760  0.7182  0.0124  1.3017
   86MOL   H10910479   3.641   6.081   2.869  0.1779  0.5975  2.6625
   86MOL   C11010480   3.560   5.980   3.023 -0.2858  0.8850 -0.3792
   86MOL   C11110481   3.439   5.956   3.103  0.0884  0.2551  0.0753
   86MOL   F11210482   3.352   5.894   3.036 -0.2936  0.2497  0.2164
   86MOL   H11310483   3.612   5.885   3.006 -1.6260  0.5887 -3.0869
   86MOL   H11410484   3.631   6.037   3.083  1.3643 -1.9735  0.5071
   86MOL   H11510485   3.396   6.051   3.133 -2.2833 -0.7884  0.1803
   86MOL   C11610486   3.471   5.883   3.233 -0.1997  0.8439 -0.7253
   86MOL   C11710487   3.503   5.729   3.208 -0.5627 -0.2865 -0.5130
   86MOL   F11810488   3.440   5.669   3.100  0.1397 -0.0060  0.1873
   86MOL   H11910489   3.559   5.924   3.283  1.3306 -1.3371 -1.5575
   86MOL   H12010490   3.381   5.898   3.293  1.1108  0.9669  1.2838
   86MOL   H12110491   3.475   5.668   3.294  1.8874 -1.4416 -0.4972
   86MOL   H12210492   3.611   5.723   3.201 -0.3805 -0.4603  1.9196
   87MOL     C110493   4.430   2.719   1.117 -0.3393 -0.0903 -0.3363
   87MOL     C210494   4.519   2.651   1.219 -0.8540  1.3345  0.3591
   87MOL     F310495   4.437   2.601   1.311 -0.6125  0.0892 -0.1993
   87MOL     H410496   4.479   2.803   1.067 -0.4019  1.6850  2.4739
   87MOL     H510497   4.342   2.760   1.166 -0.9138 -0.0458 -1.3804
   87MOL     H610498   4.584   2.723   1.269 -1.9660  1.4849  1.6281
   87MOL     H710499   4.376   2.645   1.058 -0.4121 -0.7696  0.5774
   87MOL     C810500   4.600   2.533   1.156 -0.2829 -0.2859  0.3667
   87MOL     C910501   4.689   2.472   1.259 -0.2844 -0.4111 -0.3247
   87MOL    F1010502   4.616   2.400   1.343 -0.2146 -0.2510  0.4108
   87MOL    H1110503   4.532   2.456   1.120  0.7360 -1.7752  1.5107
   87MOL    H1210504   4.659   2.542   1.064 -0.1206 -0.8050  0.4160
   87MOL    H1310505   4.715   2.553   1.328 -1.4245 -0.0395 -0.3244
   87MOL    C1410506   4.812   2.392   1.210 -0.4355 -0.4360  0.0658
   87MOL    C1510507   4.926   2.480   1.148 -0.4612 -0.0947 -0.2046
   87MOL    F1610508   4.969   2.572   1.238 -0.2340  0.1336  0.1126
   87MOL    H1710509   4.853   2.341   1.297 -0.0370  0.3068  0.3142
   87MOL    H1810510   4.778   2.311   1.145 -2.6310  1.5887 -1.4355
   87MOL    H1910511   4.883   2.527   1.059 -2.3686 -1.1042  0.1633
   87MOL    C2010512   5.043   2.388   1.098  0.4141 -0.0745 -0.1313
   87MOL    C2110513   5.181   2.468   1.088  0.4403 -0.7716  0.1175
   87MOL    F2210514   5.264   2.378   1.034 -0.4717 -0.0606  0.1177
   87MOL    H2310515   5.057   2.304   1.166 -0.5472 -0.0869  0.0594
   87MOL    H2410516   5.022   2.353   0.997 -1.0436  0.7382 -0.1180
   87MOL    H2510517   5.228   2.495   1.182  0.2832 -1.0611  0.2813
   87MOL    C2610518   5.176   2.585   0.984 -0.5262  0.3553 -0.2250
   87MOL    C2710519   5.325   2.640   0.957 -0.0039 -0.5329  0.3917
   87MOL    F2810520   5.324   2.708   0.847 -0.1134  0.0738 -0.2067
   87MOL    H2910521   5.133   2.558   0.888  2.2492 -1.2704 -1.0574
   87MOL    H3010522   5.121   2.673   1.016  0.2289  0.8774 -0.3758
   87MOL    H3110523   5.383   2.550   0.937  0.8825 -0.0190  0.6474
   87MOL    C3210524   5.391   2.713   1.079  0.0404 -0.3535  0.6714
   87MOL    C3310525   5.515   2.798   1.037  0.4184  0.2927 -0.5634
   87MOL    F3410526   5.464   2.915   0.990  0.1057  0.2402  0.1370
   87MOL    H3510527   5.324   2.778   1.136 -1.0881 -1.1084  0.2397
   87MOL    H3610528   5.423   2.636   1.148 -0.0723  0.2218  1.3746
   87MOL    H3710529   5.573   2.753   0.956  1.0260  0.2194 -0.0883
   87MOL    C3810530   5.611   2.824   1.160  0.1678 -0.3959 -0.1735
   87MOL    C3910531   5.691   2.700   1.182 -0.4832  0.0646  0.0137
   87MOL    F4010532   5.777   2.687   1.086 -0.4848 -0.0291  0.4868
   87MOL    H4110533   5.672   2.910   1.131  0.2867 -0.2117  0.6196
   87MOL    H4210534   5.550   2.855   1.245  1.0683  0.1478  0.2870
   87MOL    H4310535   5.629   2.611   1.188 -2.1647  1.1360 -0.9571
   87MOL    C4410536   5.769   2.706   1.312  0.2770 -0.3465  0.2829
   87MOL    C4510537   5.865   2.594   1.345 -0.3193 -0.4036  0.0159
   87MOL    F4610538   5.972   2.643   1.414 -0.9568 -0.0799  0.6470
   87MOL    H4710539   5.835   2.793   1.302 -1.3140  0.9185  0.5364
   87MOL    H4810540   5.710   2.724   1.401 -1.9839 -0.5669 -1.1462
   87MOL    H4910541   5.896   2.551   1.250 -0.8551 -0.2925 -0.2056
   87MOL    C5010542   5.796   2.472   1.414  0.5233  0.1153 -0.4382
   87MOL    C5110543   5.896   2.350   1.434 -0.4548  0.1406 -0.0141
   87MOL    F5210544   5.990   2.377   1.527  0.2273 -0.7386 -0.2684
   87MOL    H5310545   5.759   2.498   1.513  1.9288 -0.6870  0.3238
   87MOL    H5410546   5.715   2.436   1.352  0.1882 -0.1635  0.1539
   87MOL    H5510547   5.946   2.333   1.339 -0.6268  1.2784 -0.3170
   87MOL    C5610548   5.826   2.224   1.474  0.1192 -0.3017 -0.2824
   87MOL    C5710549   5.916   2.095   1.476  0.1457 -0.7335 -0.0755
   87MOL    F5810550   5.863   2.016   1.564  0.5157  0.0281  0.3080
   87MOL    H5910551   5.799   2.227   1.579 -0.1866 -0.8625 -0.3429
   87MOL    H6010552   5.729   2.218   1.423 -0.3399 -0.2020  0.5806
   87MOL    H6110553   6.017   2.114   1.512  0.5562 -0.8110 -1.1649
   87MOL    C6210554   5.906   2.020   1.346 -0.4173  1.0835 -0.4342
   87MOL    C6310555   5.991   1.891   1.314  0.1338 -0.7510 -0.1810
   87MOL    F6410556   5.940   1.797   1.389  0.2584 -0.6506  0.2321
   87MOL    H6510557   5.805   1.996   1.313  0.4114 -3.3534  0.0477
   87MOL    H6610558   5.934   2.090   1.266 -0.4182  1.4822 -0.0864
   87MOL    H6710559   6.096   1.892   1.341 -0.0606  0.6249  0.6287
   87MOL    C6810560   5.966   1.845   1.163  0.2113 -0.0636 -0.8908
   87MOL    C6910561   6.042   1.716   1.124  0.4609  0.4055  0.1481
   87MOL    F7010562   5.978   1.681   1.009 -0.0026 -0.0118 -0.4979
   87MOL    H7110563   5.863   1.811   1.156 -0.1944  0.6861  1.1756
   87MOL    H7210564   5.978   1.935   1.103 -1.1596  0.2286 -0.7350
   87MOL    H7310565   6.030   1.635   1.196 -0.6806 -3.6108 -4.3139
   87MOL    C7410566   6.192   1.729   1.091 -0.3275  0.1467  0.0394
   87MOL    C7510567   6.261   1.608   1.020  0.5445 -0.0200  0.0835
   87MOL    F7610568   6.208   1.577   0.900  0.1244  0.2514  0.6062
   87MOL    H7710569   6.230   1.821   1.047  0.5684 -0.1016  0.2889
   87MOL    H7810570   6.240   1.734   1.188  1.0015  1.0392 -0.6489
   87MOL    H7910571   6.237   1.514   1.069  1.2399 -0.2797 -0.0639
   87MOL    C8010572   6.408   1.616   1.002  0.1726  0.0880  0.1866
   87MOL    C8110573   6.499   1.518   1.083 -0.5301  0.7868 -0.0328
   87MOL    F8210574   6.622   1.543   1.050  0.1794  0.1837  0.2111
   87MOL    H8310575   6.441   1.608   0.898  1.9589 -0.3918  0.7569
   87MOL    H8410576   6.440   1.716   1.030 -1.7553  1.0896 -1.0665
   87MOL    H8510577   6.485   1.417   1.044  0.1336  0.7030 -0.0557
   87MOL    C8610578   6.492   1.520   1.236 -0.2066 -0.0410 -0.4883
   87MOL    C8710579   6.529   1.646   1.314 -0.3356  0.1698 -0.1607
   87MOL    F8810580   6.445   1.748   1.287  0.2103  0.1869 -0.3006
   87MOL    H8910581   6.393   1.484   1.265  0.0153 -0.9984 -0.8853
   87MOL    H9010582   6.558   1.445   1.280 -0.8190  0.1068  0.6881
   87MOL    H9110583   6.620   1.674   1.261  1.5607 -0.4117  2.6271
   87MOL    C9210584   6.553   1.627   1.464  0.2491 -0.2683 -0.4387
   87MOL    C9310585   6.586   1.755   1.538 -0.0552 -0.0446  0.0194
   87MOL    F9410586   6.477   1.835   1.548 -0.2157 -0.5396  0.2501
   87MOL    H9510587   6.465   1.579   1.508  0.4341  1.1000  1.4951
   87MOL    H9610588   6.635   1.559   1.486 -1.9355 -2.0517  2.6092
   87MOL    H9710589   6.664   1.814   1.491  0.1054  0.1280  0.5053
   87MOL    C9810590   6.628   1.741   1.686 -0.0251  0.7236  0.8346
   87MOL    C9910591   6.552   1.644   1.779  0.3980 -0.2630  0.7827
   87MOL   F10010592   6.598   1.524   1.761  0.0126  0.2354 -0.6411
   87MOL   H10110593   6.733   1.715   1.678  0.5316  2.9050  0.7059
   87MOL   H10210594   6.619   1.839   1.733 -1.2062  0.4308  1.2258
   87MOL   H10310595   6.447   1.642   1.751  0.2502  2.6939  1.0153
   87MOL   C10410596   6.570   1.659   1.931 -0.3329  0.2221  0.4858
   87MOL   C10510597   6.518   1.533   2.005  0.3977 -0.0625  0.2283
   87MOL   F10610598   6.565   1.537   2.132  0.3100  0.1609 -0.4105
   87MOL   H10710599   6.675   1.682   1.950 -0.9240  3.9450 -0.3274
   87MOL   H10810600   6.513   1.748   1.957 -0.1907  0.5259 -0.2367
   87MOL   H10910601   6.561   1.442   1.963  0.0396 -0.7051  1.2116
   87MOL   C11010602   6.367   1.515   2.005 -0.5333 -0.1998  0.4201
   87MOL   C11110603   6.333   1.371   2.047  0.3140  0.3863 -0.3606
   87MOL   F11210604   6.203   1.371   2.089  0.0809 -0.0904  0.0885
   87MOL   H11310605   6.315   1.589   2.065 -0.9256 -0.7611  0.7790
   87MOL   H11410606   6.333   1.534   1.903  0.6613 -2.0948 -0.3601
   87MOL   H11510607   6.385   1.338   2.137  0.6232  1.0256 -0.2993
   87MOL   C11610608   6.354   1.264   1.938  0.1897 -0.1743  0.6549
   87MOL   C11710609   6.293   1.134   1.978  0.4108 -0.1678 -0.0035
   87MOL   F11810610   6.311   1.042   1.882 -0.0889 -0.0312 -0.4676
   87MOL   H11910611   6.314   1.304   1.845  3.5776  0.3022 -0.6899
   87MOL   H12010612   6.462   1.258   1.922 -0.0193  1.3002 -1.5346
   87MOL   H12110613   6.186   1.150   1.991  0.9260  2.4057  1.3090
   87MOL   H12210614   6.347   1.092   2.063  0.2664  1.8166  1.0940
   88MOL     C110615   1.051   7.281   0.620  0.2196 -0.1665  0.2417
   88MOL     C210616   1.009   7.148   0.553 -0.1001  0.0114 -0.2902
   88MOL     F310617   0.912   7.172   0.460  0.7222  0.4851  0.2029
   88MOL     H410618   1.140   7.278   0.682  0.2034  1.7295  0.4049
   88MOL     H510619   0.967   7.304   0.686 -3.8362 -1.1307 -4.2828
   88MOL     H610620   0.958   7.089   0.628  1.2296 -0.8567 -0.0490
   88MOL     H710621   1.066   7.370   0.559 -1.8368 -0.9305 -1.4109
   88MOL     C810622   1.133   7.079   0.497  0.5862 -0.0509 -0.1682
   88MOL     C910623   1.213   6.997   0.610 -0.4131 -0.7719  0.2737
   88MOL    F1010624   1.134   6.904   0.666 -0.3449  0.4161 -0.0128
   88MOL    H1110625   1.095   7.009   0.423  1.3761  0.6268 -1.2339
   88MOL    H1210626   1.209   7.146   0.456 -0.2427  1.2386  0.3628
   88MOL    H1310627   1.238   7.071   0.687 -1.1063 -1.1766  0.8990
   88MOL    C1410628   1.346   6.933   0.560 -0.1000 -0.2976  0.0254
   88MOL    C1510629   1.463   7.028   0.537  0.4009  0.1122  0.3129
   88MOL    F1610630   1.485   7.100   0.645  0.1960  0.1644  0.1571
   88MOL    H1710631   1.372   6.864   0.640  0.4512  2.2479  2.0905
   88MOL    H1810632   1.338   6.870   0.472 -2.7190  1.0025 -0.7187
   88MOL    H1910633   1.438   7.106   0.464  0.8557 -0.1728 -0.1521
   88MOL    C2010634   1.592   6.949   0.501  0.1968  0.4950 -0.3754
   88MOL    C2110635   1.588   6.875   0.369 -0.5743  0.6246  0.1948
   88MOL    F2210636   1.534   6.947   0.266  0.0083  0.0025  0.4192
   88MOL    H2310637   1.674   7.021   0.502  1.0839 -0.4876  2.7463
   88MOL    H2410638   1.618   6.879   0.581 -1.8898 -1.7080 -1.5684
   88MOL    H2510639   1.529   6.785   0.387 -0.3729  0.5280  0.3770
   88MOL    C2610640   1.724   6.830   0.330  0.0682 -0.2359 -0.4211
   88MOL    C2710641   1.781   6.713   0.410 -0.2491 -0.3573  0.1829
   88MOL    F2810642   1.694   6.612   0.414 -0.2903 -0.4454  0.3445
   88MOL    H2910643   1.714   6.794   0.227 -1.2902 -0.6085 -0.1662
   88MOL    H3010644   1.789   6.917   0.327  0.2034 -0.2084  2.6666
   88MOL    H3110645   1.822   6.741   0.507 -0.2215 -0.9702  0.3516
   88MOL    C3210646   1.896   6.641   0.340 -1.0123  0.4035 -0.1048
   88MOL    C3310647   2.026   6.720   0.307  0.3802 -0.1318  0.0526
   88MOL    F3410648   2.064   6.763   0.427  0.2002  0.0640  0.6588
   88MOL    H3510649   1.926   6.553   0.396 -0.4963 -0.2983 -1.4448
   88MOL    H3610650   1.858   6.594   0.249 -1.4245  0.7067 -0.0944
   88MOL    H3710651   1.999   6.811   0.255  3.2817  0.5102 -0.4068
   88MOL    C3810652   2.137   6.638   0.237 -0.3839  0.3468  0.2851
   88MOL    C3910653   2.110   6.627   0.083  0.1219 -0.3475 -0.8850
   88MOL    F4010654   2.105   6.757   0.037 -0.3709 -0.2170  0.7127
   88MOL    H4110655   2.231   6.694   0.235  0.1631 -0.5657 -0.7056
   88MOL    H4210656   2.150   6.542   0.288 -0.0449 -0.3534 -1.0780
   88MOL    H4310657   2.009   6.588   0.071 -0.5076  0.2949  1.9144
   88MOL    C4410658   2.216   6.548   0.011  0.0677 -0.9930 -0.2978
   88MOL    C4510659   2.192   6.397   0.001 -0.4177 -0.4240 -0.1248
   88MOL    F4610660   2.075   6.385   7.934  0.3100  0.2665  0.2941
   88MOL    H4710661   2.204   6.587   7.913  0.8154 -1.0370 -0.4059
   88MOL    H4810662   2.314   6.582   0.044  0.3193  0.4454 -2.4632
   88MOL    H4910663   2.175   6.349   0.097 -5.4087  0.9674 -0.1781
   88MOL    C5010664   2.307   6.332   7.912 -0.5653  0.3902 -0.3723
   88MOL    C5110665   2.299   6.180   7.925 -0.1848 -0.6571 -0.0825
   88MOL    F5210666   2.184   6.126   7.877  0.6729  0.8867 -0.1254
   88MOL    H5310667   2.286   6.364   7.810 -2.8339  0.0699 -0.0408
   88MOL    H5410668   2.399   6.362   7.961 -0.9635 -0.5707  1.0014
   88MOL    H5510669   2.312   6.167   0.029 -1.9353 -0.3992  0.1743
   88MOL    C5610670   2.426   6.119   7.861  0.0575 -0.2308  0.6058
   88MOL    C5710671   2.551   6.115   7.952 -0.3887  0.5355  0.4849
   88MOL    F5810672   2.515   6.064   0.068  0.3447 -0.6090  0.3924
   88MOL    H5910673   2.401   6.014   7.847 -0.3068 -0.1536  0.6936
   88MOL    H6010674   2.450   6.163   7.764  3.4558 -1.1470  0.9387
   88MOL    H6110675   2.575   6.221   7.966 -1.5006  0.4044  3.7204
   88MOL    C6210676   2.669   6.028   7.897 -0.3645  0.0549  0.6571
   88MOL    C6310677   2.719   6.074   7.762 -0.1469  0.9273  0.5160
   88MOL    F6410678   2.770   6.196   7.792 -0.1679  0.2501 -0.0104
   88MOL    H6510679   2.745   6.020   7.975 -1.7422  2.0195  2.2522
   88MOL    H6610680   2.623   5.929   7.896 -1.2776  0.4687  1.0715
   88MOL    H6710681   2.630   6.081   7.700  0.2193  1.0738  0.0054
   88MOL    C6810682   2.828   5.982   7.695  0.0189 -0.0097  0.1436
   88MOL    C6910683   2.884   6.032   7.549 -0.1603 -0.1849  0.6947
   88MOL    F7010684   2.966   6.131   7.582  0.0971 -0.3818  0.4880
   88MOL    H7110685   2.918   5.969   7.754  0.6899 -2.0266 -1.2747
   88MOL    H7210686   2.789   5.882   7.677  0.9080 -0.7013  2.0118
   88MOL    H7310687   2.807   6.058   7.477  0.8491  1.2402  0.0927
   88MOL    C7410688   2.963   5.917   7.487  0.3026 -0.2066  0.3301
   88MOL    C7510689   2.891   5.819   7.404  1.0406  0.0747  0.0907
   88MOL    F7610690   2.819   5.884   7.309 -0.2454 -0.7303 -0.0016
   88MOL    H7710691   3.037   5.966   7.424  1.7680 -1.4720  1.0361
   88MOL    H7810692   3.019   5.869   7.567  0.1573 -1.2957 -0.2176
   88MOL    H7910693   2.822   5.757   7.461  1.8707 -2.6541 -1.7400
   88MOL    C8010694   2.991   5.734   7.323 -0.0409 -0.1912 -0.2788
   88MOL    C8110695   2.921   5.600   7.284  0.3948 -0.3451  0.3575
   88MOL    F8210696   2.814   5.621   7.206 -0.4227  0.4375  0.0437
   88MOL    H8310697   3.029   5.807   7.251  0.6702 -1.0811 -0.8267
   88MOL    H8410698   3.083   5.700   7.371  1.2896 -0.0435 -2.6105
   88MOL    H8510699   2.879   5.553   7.373  0.3302  0.6972  0.8877
   88MOL    C8610700   3.010   5.514   7.200 -0.4421  0.1503  0.0719
   88MOL    C8710701   3.126   5.459   7.285 -0.3142 -0.6075  0.8793
   88MOL    F8810702   3.071   5.421   7.401 -0.3748 -0.0800  0.2869
   88MOL    H8910703   2.953   5.429   7.165 -1.4216  1.2970 -1.1479
   88MOL    H9010704   3.044   5.565   7.110 -0.8615  0.8041  0.2783
   88MOL    H9110705   3.190   5.544   7.309 -0.4010 -0.9866  2.4916
   88MOL    C9210706   3.226   5.346   7.229 -0.2400  0.8635  0.3863
   88MOL    C9310707   3.357   5.322   7.318  0.5375 -0.6123  0.5931
   88MOL    F9410708   3.322   5.264   7.437 -1.0082 -0.2340  0.1967
   88MOL    H9510709   3.176   5.250   7.216  0.3001  0.6140  0.1245
   88MOL    H9610710   3.256   5.381   7.130  2.9419  0.4879  1.1633
   88MOL    H9710711   3.420   5.410   7.333 -1.5093  0.8845  0.5574
   88MOL    C9810712   3.436   5.211   7.243 -0.0184  0.3837  0.1111
   88MOL    C9910713   3.508   5.252   7.116 -0.0923  0.2946  0.7867
   88MOL   F10010714   3.613   5.325   7.141  0.3152  0.3284 -0.4372
   88MOL   H10110715   3.505   5.174   7.319 -0.5630  0.7003  0.7662
   88MOL   H10210716   3.368   5.126   7.235 -0.7238  1.1085 -2.0860
   88MOL   H10310717   3.448   5.323   7.058 -0.8798 -0.7572  0.3007
   88MOL   C10410718   3.558   5.134   7.031 -0.3211 -0.5476  0.7807
   88MOL   C10510719   3.627   5.013   7.107 -0.4627  0.3785  0.8103
   88MOL   F10610720   3.628   4.914   7.014  0.1294  0.0936  0.5023
   88MOL   H10710721   3.474   5.079   6.988  0.9734 -1.4190 -0.6910
   88MOL   H10810722   3.626   5.158   6.948 -0.3165 -1.3505  0.5533
   88MOL   H10910723   3.571   4.961   7.185 -1.2722 -1.8304 -1.1472
   88MOL   C11010724   3.774   5.035   7.152  0.2554  0.6591  0.6573
   88MOL   C11110725   3.808   4.947   7.276 -0.0276 -0.3904 -0.3083
   88MOL   F11210726   3.784   4.817   7.244 -0.3002 -0.1793  0.2301
   88MOL   H11310727   3.843   5.013   7.070 -2.1107  0.1368 -1.2488
   88MOL   H11410728   3.783   5.141   7.173  0.8931  0.6912  0.2157
   88MOL   H11510729   3.738   4.974   7.355  0.6337 -0.0522  0.1769
   88MOL   C11610730   3.947   4.973   7.329  0.2320  0.1984  0.2458
   88MOL   C11710731   3.983   4.889   7.449  0.5159  0.7911 -0.3152
   88MOL   F11810732   4.106   4.914   7.505  0.0678  0.0161 -0.5753
   88MOL   H11910733   4.013   4.955   7.244  0.4407  1.7052  0.0771
   88MOL   H12010734   3.957   5.080   7.350 -1.3765 -0.0351  2.3129
   88MOL   H12110735   3.983   4.784   7.420  0.0423  0.2922  1.4353
   88MOL   H12210736   3.913   4.894   7.532  2.1174 -0.2879  1.1324
   89MOL     C110737   7.892   6.111   6.333  0.0823 -0.5163  0.4686
   89MOL     C210738   0.020   6.087   6.253 -0.0297  0.7308 -0.1521
   89MOL     F310739   0.028   5.956   6.250  0.4119 -0.0956 -0.4469
   89MOL     H410740   7.800   6.082   6.282  1.9702 -1.6196 -2.4256
   89MOL     H510741   7.884   6.211   6.376  0.3835 -0.5267  0.5479
   89MOL     H610742   0.104   6.139   6.297 -1.5986  1.4919  1.9971
   89MOL     H710743   7.889   6.051   6.424 -0.0262  1.7249  1.9937
   89MOL     C810744   0.008   6.141   6.114  0.4557  0.7177  0.1435
   89MOL     C910745   0.019   6.292   6.098  0.3182 -0.5510 -0.5311
   89MOL    F1010746   0.141   6.347   6.119 -0.0484  0.0493 -0.2685
   89MOL    H1110747   0.090   6.107   6.051 -0.7648  0.4966 -1.3493
   89MOL    H1210748   7.925   6.099   6.063  0.5393 -1.5459  1.7801
   89MOL    H1310749   7.954   6.343   6.167 -0.0787  1.8752 -2.6248
   89MOL    C1410750   7.973   6.332   5.954 -0.7664 -0.1470 -0.7300
   89MOL    C1510751   7.991   6.482   5.930  0.7935  0.0136 -0.3765
   89MOL    F1610752   7.982   6.488   5.797  0.0411  0.4546 -0.0894
   89MOL    H1710753   0.030   6.277   5.882 -0.2120  0.8307 -1.0354
   89MOL    H1810754   7.869   6.299   5.948 -0.5440 -1.1003  0.5270
   89MOL    H1910755   0.078   6.535   5.960 -0.4338  0.6290  2.4873
   89MOL    C2010756   7.879   6.562   6.003  0.0430  0.0019 -0.0009
   89MOL    C2110757   7.880   6.720   5.989 -0.1319 -0.1831  0.1077
   89MOL    F2210758   7.773   6.765   6.054  0.4719  0.2425 -0.1686
   89MOL    H2310759   7.780   6.529   5.971  0.5171  1.0914 -2.7442
   89MOL    H2410760   7.882   6.541   6.110  0.8036  0.6613  0.1114
   89MOL    H2510761   7.861   6.745   5.885 -3.9901  0.5004  0.8897
   89MOL    C2610762   7.997   6.775   6.064  0.1190  0.4295  0.5985
   89MOL    C2710763   0.016   6.917   6.018  0.0099 -0.0783  0.0020
   89MOL    F2810764   0.088   6.983   6.107  0.2557 -0.1553  0.2478
   89MOL    H2910765   7.964   6.783   6.168 -1.5049 -0.3628  0.1541
   89MOL    H3010766   0.086   6.715   6.061  0.3948  0.7552  2.0823
   89MOL    H3110767   7.922   6.967   6.018  0.4382  0.9668 -3.9219
   89MOL    C3210768   0.082   6.920   5.876 -0.0066 -0.1292 -0.0341
   89MOL    C3310769   0.083   7.050   5.795 -0.3774  0.2028  0.1148
   89MOL    F3410770   7.962   7.091   5.768 -0.5977  0.5300  0.5195
   89MOL    H3510771   0.186   6.890   5.893  0.4091  2.2556  2.0697
   89MOL    H3610772   0.035   6.850   5.808  0.6767 -0.0488 -0.5987
   89MOL    H3710773   0.137   7.035   5.702  0.4678  0.8218  0.4920
   89MOL    C3810774   0.141   7.164   5.870 -0.0466 -0.3463  0.0496
   89MOL    C3910775   0.296   7.161   5.903  0.4945  0.1418  0.7466
   89MOL    F4010776   0.349   7.124   5.780  0.1703  0.5166 -0.0304
   89MOL    H4110777   0.122   7.251   5.808 -1.0030 -0.1899  0.5522
   89MOL    H4210778   0.080   7.198   5.953  0.0410 -0.6164  0.2238
   89MOL    H4310779   0.306   7.073   5.967 -0.7863 -0.0818  0.6581
   89MOL    C4410780   0.366   7.288   5.956 -0.4557  0.7310  0.5152
   89MOL    C4510781   0.515   7.267   5.991  0.1645  0.3663 -0.2911
   89MOL    F4610782   0.561   7.395   5.995  0.3553  0.5651  0.0070
   89MOL    H4710783   0.347   7.368   5.884 -0.0500 -0.6600 -1.1699
   89MOL    H4810784   0.312   7.312   6.048 -2.1534 -0.9326 -0.0150
   89MOL    H4910785   0.557   7.221   5.902 -1.7216 -0.5359 -0.7478
   89MOL    C5010786   0.549   7.190   6.117 -0.0692  0.4670  0.0844
   89MOL    C5110787   0.691   7.142   6.123  0.3089  0.3144 -0.4343
   89MOL    F5210788   0.714   7.096   6.245  0.2544 -0.4218  0.2940
   89MOL    H5310789   0.534   7.255   6.203 -0.3732 -0.9817  1.1538
   89MOL    H5410790   0.486   7.103   6.133  0.2924  0.3277  0.7595
   89MOL    H5510791   0.771   7.216   6.117  0.5493  0.1061  0.2555
   89MOL    C5610792   0.721   7.016   6.027 -0.1950  0.0744 -0.1950
   89MOL    C5710793   0.849   6.942   6.053  0.0237  0.3200  0.5425
   89MOL    F5810794   0.835   6.816   6.030  0.2641  0.2971  0.0916
   89MOL    H5910795   0.641   6.943   6.037  1.4006 -1.8633 -1.2531
   89MOL    H6010796   0.709   7.045   5.922  1.0722 -0.3009 -0.4510
   89MOL    H6110797   0.883   6.960   6.154  0.5392  1.1219  0.2267
   89MOL    C6210798   0.961   6.991   5.965 -0.3410 -0.6303  0.7495
   89MOL    C6310799   1.102   6.945   5.999  0.4806  0.3230  0.2529
   89MOL    F6410800   1.106   6.832   5.937  0.3329  0.5213 -0.1624
   89MOL    H6510801   0.938   6.967   5.861 -2.2465 -1.2842  1.3076
   89MOL    H6610802   0.969   7.100   5.974 -2.2601 -0.5709  1.9510
   89MOL    H6710803   1.121   6.910   6.100 -1.8247  0.6849  0.8318
   89MOL    C6810804   1.218   7.040   5.949 -0.1295 -0.6273  0.3346
   89MOL    C6910805   1.364   6.984   5.946  0.0894 -0.7395  0.6228
   89MOL    F7010806   1.404   6.947   6.072  0.4580 -0.7546  0.2505
   89MOL    H7110807   1.192   7.084   5.852 -1.0264  1.6554  1.5895
   89MOL    H7210808   1.208   7.129   6.010  0.5413 -0.9939  0.9864
   89MOL    H7310809   1.418   7.071   5.909 -1.0433  1.0630  3.0795
   89MOL    C7410810   1.383   6.865   5.843  0.1834 -0.0875 -0.0880
   89MOL    C7510811   1.518   6.849   5.778  0.6113 -0.2257  0.3730
   89MOL    F7610812   1.603   6.817   5.881 -0.5623  0.0625  0.0246
   89MOL    H7710813   1.351   6.773   5.892  1.9603  0.3498  1.9605
   89MOL    H7810814   1.324   6.890   5.755  1.7410 -1.9589 -1.6969
   89MOL    H7910815   1.545   6.941   5.726 -0.4600  0.5848  1.2214
   89MOL    C8010816   1.531   6.732   5.680 -0.3654  0.4117 -0.1542
   89MOL    C8110817   1.431   6.738   5.561  0.1607 -0.2667 -0.4119
   89MOL    F8210818   1.486   6.672   5.460  0.3959 -0.2640 -0.3519
   89MOL    H8310819   1.632   6.722   5.641 -0.6996  1.1631 -1.2299
   89MOL    H8410820   1.505   6.645   5.741  1.4882 -0.4007 -0.5054
   89MOL    H8510821   1.415   6.834   5.512 -1.5252 -0.1805  0.2826
   89MOL    C8610822   1.288   6.671   5.593  0.8171  0.1536  0.2447
   89MOL    C8710823   1.196   6.669   5.467 -0.1400 -0.3068 -0.0829
   89MOL    F8810824   1.084   6.601   5.497 -0.4843 -0.2906  0.0803
   89MOL    H8910825   1.303   6.568   5.625  3.1499  0.4085  0.0297
   89MOL    H9010826   1.230   6.713   5.676 -1.3863 -2.5692  0.1514
   89MOL    H9110827   1.244   6.597   5.401  0.1854  1.3382 -1.6990
   89MOL    C9210828   1.159   6.805   5.394  0.6609 -0.5717 -0.4183
   89MOL    C9310829   1.085   6.784   5.261  0.1060 -0.8875  0.0849
   89MOL    F9410830   1.041   6.904   5.229 -0.2401 -0.1874  0.0719
   89MOL    H9510831   1.086   6.860   5.453 -0.3001 -2.2219 -0.0486
   89MOL    H9610832   1.239   6.877   5.377 -0.4659  0.0541 -3.4852
   89MOL    H9710833   0.995   6.727   5.282  0.6886 -1.9655 -0.3419
   89MOL    C9810834   1.160   6.702   5.149  0.0070  0.1519  0.2811
   89MOL    C9910835   1.073   6.675   5.028  0.3439 -0.4603  0.1945
   89MOL   F10010836   1.142   6.612   4.929  0.3704  0.5723 -0.2862
   89MOL   H10110837   1.254   6.746   5.114 -1.0556  2.5294  0.2963
   89MOL   H10210838   1.185   6.605   5.192 -1.6178  0.2850  1.5594
   89MOL   H10310839   1.044   6.772   4.988  0.2167 -0.7649 -0.4474
   89MOL   C10410840   0.937   6.601   5.047 -0.2751 -0.0155 -0.1396
   89MOL   C10510841   0.961   6.465   5.109 -0.4637  0.1188 -0.3573
   89MOL   F10610842   1.007   6.482   5.230 -0.4703  0.0517 -0.7192
   89MOL   H10710843   0.867   6.658   5.108  0.8376 -0.5249  1.6734
   89MOL   H10810844   0.906   6.588   4.944  5.1836 -1.4859 -1.7733
   89MOL   H10910845   1.033   6.408   5.050  1.1533  1.0502  0.6642
   89MOL   C11010846   0.835   6.377   5.114 -0.2717 -0.4633 -0.3062
   89MOL   C11110847   0.851   6.243   5.186  0.3757  1.1561  0.2561
   89MOL   F11210848   0.734   6.184   5.172 -0.1397 -0.5185 -0.2293
   89MOL   H11310849   0.759   6.431   5.170  2.4618 -0.3245  3.5039
   89MOL   H11410850   0.800   6.354   5.014 -2.4877  0.8431  0.1283
   89MOL   H11510851   0.862   6.264   5.292  0.5025 -0.8202  0.6532
   89MOL   C11610852   0.949   6.132   5.133 -0.2198  0.2627  0.4776
   89MOL   C11710853   0.957   6.123   4.977 -0.2211 -0.1734 -0.2770
   89MOL   F11810854   1.038   6.218   4.930  0.6823  0.1380 -0.3235
   89MOL   H11910855   1.048   6.151   5.174  0.4712  2.6058 -2.1335
   89MOL   H12010856   0.912   6.038   5.174 -1.3569  0.2183 -0.6144
   89MOL   H12110857   0.860   6.139   4.931 -0.5140  1.5276  0.8754
   89MOL   H12210858   0.993   6.025   4.946 -2.2702 -1.4018  1.1318
   90MOL     C110859   3.974   3.506   5.541 -0.0550  0.1741  0.4291
   90MOL     C210860   3.882   3.405   5.486  0.2221  0.2687  0.2399
   90MOL     F310861   3.810   3.459   5.384  0.3176 -0.0088  0.7134
   90MOL     H410862   4.040   3.543   5.463 -0.4156 -0.1311 -0.0204
   90MOL     H510863   4.031   3.468   5.626 -0.2939  1.2798  1.0987
   90MOL     H610864   3.822   3.380   5.574  0.9582 -0.3612  0.5663
   90MOL     H710865   3.909   3.592   5.562 -2.5389 -1.8097  1.1259
   90MOL     C810866   3.954   3.272   5.442 -0.4956  0.2606 -0.2190
   90MOL     C910867   3.848   3.155   5.425  0.6818  0.1207  0.7768
   90MOL    F1010868   3.756   3.151   5.516 -0.4768 -0.0212 -0.1774
   90MOL    H1110869   4.030   3.291   5.365  0.9233 -0.3952  1.0096
   90MOL    H1210870   4.016   3.245   5.527 -0.9286  2.0698  0.7034
   90MOL    H1310871   3.902   3.061   5.439  0.0977 -0.1755  1.0239
   90MOL    C1410872   3.759   3.146   5.298  0.6305 -0.0393 -0.5541
   90MOL    C1510873   3.833   3.092   5.174 -0.5838  0.5155  0.2954
   90MOL    F1610874   3.853   2.963   5.201 -0.2501  0.1870  0.0352
   90MOL    H1710875   3.681   3.075   5.327  0.9410 -1.6705 -3.4762
   90MOL    H1810876   3.710   3.243   5.291  0.3429 -0.0463  1.0636
   90MOL    H1910877   3.928   3.144   5.162 -0.7797  1.3382  2.1685
   90MOL    C2010878   3.774   3.100   5.031  0.1796 -0.0062  0.6312
   90MOL    C2110879   3.785   3.228   4.947  0.5914 -0.5427  0.7474
   90MOL    F2210880   3.913   3.272   4.937  0.2424  0.5194 -0.1005
   90MOL    H2310881   3.829   3.030   4.968  1.1516 -0.4151  1.9110
   90MOL    H2410882   3.674   3.055   5.033  1.1561 -2.2116  2.1081
   90MOL    H2510883   3.741   3.305   5.011  0.0571 -0.8644  0.7767
   90MOL    C2610884   3.711   3.232   4.811 -0.0448 -0.3564  0.0580
   90MOL    C2710885   3.562   3.196   4.816 -0.4209 -0.4628 -0.4727
   90MOL    F2810886   3.501   3.284   4.896  0.0761  0.1283 -0.3302
   90MOL    H2910887   3.739   3.321   4.755  1.1001  0.1512  1.4072
   90MOL    H3010888   3.760   3.156   4.750  0.9556  1.5378 -1.5917
   90MOL    H3110889   3.551   3.092   4.847 -1.2863  0.1366  1.2655
   90MOL    C3210890   3.511   3.207   4.672 -0.8575  0.1817 -0.7015
   90MOL    C3310891   3.536   3.094   4.573 -0.0608 -0.2962  0.7405
   90MOL    F3410892   3.520   2.976   4.622  0.0589  0.3959  0.0360
   90MOL    H3510893   3.402   3.214   4.680 -0.7759  1.5221 -0.6781
   90MOL    H3610894   3.546   3.300   4.627  2.9024 -0.4235  0.8149
   90MOL    H3710895   3.640   3.109   4.541 -0.2180  0.8687  0.7249
   90MOL    C3810896   3.444   3.100   4.449 -0.5514  0.0401  0.4607
   90MOL    C3910897   3.498   3.019   4.330  0.9826  0.0258  0.1384
   90MOL    F4010898   3.413   3.033   4.236  0.1156  0.1991  0.0190
   90MOL    H4110899   3.348   3.056   4.475 -0.4950 -0.5311 -0.2774
   90MOL    H4210900   3.427   3.202   4.416 -0.1772  0.4331  1.4528
   90MOL    H4310901   3.509   2.913   4.352 -0.6136 -0.6878 -2.3093
   90MOL    C4410902   3.626   3.060   4.268  0.6064 -0.2854 -0.5215
   90MOL    C4510903   3.641   3.205   4.226  0.3955  0.0068  0.4363
   90MOL    F4610904   3.643   3.277   4.337  0.0138  0.1111  0.9773
   90MOL    H4710905   3.707   3.042   4.338 -2.8773 -2.1372  3.2408
   90MOL    H4810906   3.645   2.995   4.183 -0.4654 -0.1498 -0.8728
   90MOL    H4910907   3.554   3.223   4.163  0.6690 -1.0034 -0.2587
   90MOL    C5010908   3.779   3.223   4.165  0.4861 -0.1356 -0.2503
   90MOL    C5110909   3.780   3.175   4.012 -0.4122  0.0385 -0.1835
   90MOL    F5210910   3.702   3.267   3.949  0.2992  0.5523 -0.2021
   90MOL    H5310911   3.804   3.329   4.169  0.9482 -0.2123 -1.0022
   90MOL    H5410912   3.857   3.172   4.221 -0.0746 -0.5684  0.1381
   90MOL    H5510913   3.735   3.077   3.999 -0.8187  0.4083 -1.5864
   90MOL    C5610914   3.924   3.182   3.961 -0.0666  1.2475 -0.2011
   90MOL    C5710915   4.012   3.061   3.983  0.5800 -0.1118  0.1934
   90MOL    F5810916   3.957   2.949   3.940 -0.2559  0.1434 -0.3350
   90MOL    H5910917   3.944   3.229   3.865  0.5414  1.6049  0.1011
   90MOL    H6010918   3.973   3.257   4.022  0.8881 -0.8807  1.7136
   90MOL    H6110919   4.032   3.041   4.089  0.0818  0.3528  0.3750
   90MOL    C6210920   4.148   3.058   3.913  1.1240  0.2512 -0.1110
   90MOL    C6310921   4.246   3.151   3.988  0.5506 -0.3767  0.8264
   90MOL    F6410922   4.241   3.135   4.119  0.5566  0.0510  0.1559
   90MOL    H6510923   4.185   2.955   3.914 -0.6739 -0.4365 -2.3099
   90MOL    H6610924   4.144   3.087   3.808  2.6607 -2.3776 -0.9269
   90MOL    H6710925   4.206   3.252   3.976  2.0978  0.2711  1.0308
   90MOL    C6810926   4.391   3.146   3.944  0.2592 -1.1761  0.4855
   90MOL    C6910927   4.433   3.165   3.798 -0.0558  0.9616  0.1971
   90MOL    F7010928   4.390   3.289   3.756  0.0279  0.0756 -0.1887
   90MOL    H7110929   4.446   3.224   3.997 -0.5508  0.8660 -1.6113
   90MOL    H7210930   4.424   3.049   3.982  1.1640 -1.2895 -0.5831
   90MOL    H7310931   4.371   3.108   3.729  1.9256 -0.1287 -0.7020
   90MOL    C7410932   4.583   3.155   3.771 -0.3488 -0.9762  0.1200
   90MOL    C7510933   4.620   3.214   3.630 -0.1540  0.3274 -0.1598
   90MOL    F7610934   4.751   3.197   3.619 -0.0526 -0.3941 -0.2792
   90MOL    H7710935   4.631   3.217   3.846 -1.1160  0.2719 -0.4114
   90MOL    H7810936   4.625   3.054   3.775 -0.9370 -1.1563  2.2677
   90MOL    H7910937   4.599   3.320   3.637  0.1907  0.4274 -0.6803
   90MOL    C8010938   4.558   3.138   3.510  0.3953  0.1437  0.3272
   90MOL    C8110939   4.567   2.978   3.521 -0.1139 -0.1415 -0.2837
   90MOL    F8210940   4.490   2.938   3.620 -0.0412  0.3307 -0.0693
   90MOL    H8310941   4.455   3.162   3.480  0.3992  0.0178  0.2079
   90MOL    H8410942   4.610   3.176   3.422  1.0546  0.9734  1.0833
   90MOL    H8510943   4.663   2.944   3.561 -0.0635  1.8040  1.2950
   90MOL    C8610944   4.532   2.907   3.390 -0.0980  0.6367  0.2072
   90MOL    C8710945   4.548   2.752   3.395  0.1120  0.0302  0.2762
   90MOL    F8810946   4.466   2.700   3.308  0.0105 -0.5904 -0.5572
   90MOL    H8910947   4.426   2.922   3.368 -0.7986  0.1867  3.0854
   90MOL    H9010948   4.583   2.956   3.308  0.1716  0.1427  0.0809
   90MOL    H9110949   4.519   2.711   3.492  0.9832  1.9867  1.4191
   90MOL    C9210950   4.699   2.707   3.358 -0.0430 -0.2100 -0.4786
   90MOL    C9310951   4.711   2.550   3.343 -0.3022 -0.7339  0.4881
   90MOL    F9410952   4.817   2.518   3.265  0.1710  0.2614 -0.2016
   90MOL    H9510953   4.724   2.744   3.259  1.2854 -1.0248 -0.4621
   90MOL    H9610954   4.768   2.758   3.425 -0.8217  4.5881 -3.0868
   90MOL    H9710955   4.620   2.520   3.290 -1.0880 -2.2160  2.6170
   90MOL    C9810956   4.719   2.476   3.481 -0.3874 -0.2491 -0.1848
   90MOL    C9910957   4.713   2.325   3.478  0.4186 -0.4379  0.7951
   90MOL   F10010958   4.714   2.295   3.611 -0.0524  0.5232  0.3892
   90MOL   H10110959   4.817   2.494   3.524 -0.9831 -1.2807  1.6739
   90MOL   H10210960   4.640   2.507   3.550  0.6342  2.8784 -0.3512
   90MOL   H10310961   4.808   2.284   3.442 -0.7773 -1.6657 -1.0722
   90MOL   C10410962   4.589   2.268   3.399  0.1461 -0.3790  0.2408
   90MOL   C10510963   4.447   2.302   3.445 -0.3401 -0.3213  0.0138
   90MOL   F10610964   4.414   2.428   3.413  0.5010  0.1614  0.7996
   90MOL   H10710965   4.597   2.275   3.291 -0.2314 -0.1942  0.2253
   90MOL   H10810966   4.601   2.162   3.423 -0.7801  0.2038  3.5389
   90MOL   H10910967   4.447   2.298   3.554  0.2264  1.2760  0.0932
   90MOL   C11010968   4.327   2.216   3.395  0.1267  0.7697  0.0316
   90MOL   C11110969   4.281   2.240   3.250  0.1694  0.8559 -0.5237
   90MOL   F11210970   4.368   2.189   3.172  0.0398 -0.0489  0.0305
   90MOL   H11310971   4.346   2.109   3.404 -0.1172  0.6697 -0.6492
   90MOL   H11410972   4.241   2.232   3.460  0.3852  0.9391  0.3341
   90MOL   H11510973   4.289   2.347   3.235 -1.8153  0.6769 -3.0877
   90MOL   C11610974   4.143   2.184   3.215 -0.3330  0.0616 -0.3285
   90MOL   C11710975   4.108   2.173   3.059  0.2427 -0.0483 -0.2748
   90MOL   F11810976   3.988   2.127   3.031  0.5419  0.1399 -0.0813
   90MOL   H11910977   4.150   2.079   3.243  2.2487  0.1109 -0.6760
   90MOL   H12010978   4.054   2.214   3.272  0.8316  1.0630  0.9875
   90MOL   H12110979   4.177   2.106   3.008  0.1503 -0.1831 -0.2225
   90MOL   H12210980   4.116   2.273   3.017  1.2911 -0.1824 -0.4054
   91MOL     C110981   1.853   7.970   6.909  0.1992 -0.1963 -0.2071
   91MOL     C210982   1.878   7.884   6.784  0.0375 -0.4760  0.0757
   91MOL     F310983   1.822   7.763   6.819  0.0629 -0.7376 -0.0186
   91MOL     H410984   1.883   0.066   6.875 -3.9449  2.1949  2.5650
   91MOL     H510985   1.917   7.938   6.991  2.5906  1.1911 -1.4953
   91MOL     H610986   1.984   7.869   6.767  0.4521 -0.8534  2.6571
   91MOL     H710987   1.745   7.964   6.924 -0.1960  1.8499 -2.0978
   91MOL     C810988   1.804   7.936   6.664 -0.8929  0.7090 -0.5313
   91MOL     C910989   1.829   7.867   6.533  0.4716  0.1413 -0.3027
   91MOL    F1010990   1.758   7.940   6.445  0.8843  0.0688 -0.3617
   91MOL    H1110991   1.699   7.938   6.693 -0.4912  3.4834  0.8702
   91MOL    H1210992   1.831   0.035   6.638 -0.4268  0.8191  0.3777
   91MOL    H1310993   1.790   7.766   6.542  1.0280 -0.0641 -0.1326
   91MOL    C1410994   1.982   7.863   6.489  0.4214 -0.0440 -0.0517
   91MOL    C1510995   2.007   7.866   6.340  0.3460  0.5363 -0.3534
   91MOL    F1610996   1.997   7.995   6.298  0.3269  0.1875 -0.1592
   91MOL    H1710997   2.047   7.937   6.537  1.3122 -1.7601  1.4441
   91MOL    H1810998   2.030   7.771   6.523  0.0762 -1.3225 -2.8722
   91MOL    H1910999   1.938   7.803   6.283  1.5845 -1.9718  0.8399
   91MOL    C2011000   2.150   7.828   6.295 -0.1911 -0.1402 -0.1429
   91MOL    C2111001   2.184   7.675   6.308 -0.5973 -0.0470 -0.4326
   91MOL    F2211002   2.120   7.615   6.207  0.0784 -0.1689  0.0455
   91MOL    H2311003   2.169   7.839   6.189  1.2932 -1.1335  0.0032
   91MOL    H2411004   2.205   7.898   6.359  1.0378  0.5331 -1.9134
   91MOL    H2511005   2.154   7.622   6.398 -2.0139  0.2576 -0.7096
   91MOL    C2611006   2.327   7.647   6.280 -0.3441 -0.2492  0.0675
   91MOL    C2711007   2.363   7.498   6.310 -0.1981  0.2992  0.1156
   91MOL    F2811008   2.333   7.479   6.435 -0.2856 -0.4453 -0.2642
   91MOL    H2911009   2.356   7.670   6.177  0.0377  2.8018  0.7987
   91MOL    H3011010   2.380   7.715   6.348 -2.3153  1.1911  0.2027
   91MOL    H3111011   2.471   7.487   6.304 -0.1541 -1.3201  2.8449
   91MOL    C3211012   2.299   7.387   6.223  0.0130  0.3861  0.4478
   91MOL    C3311013   2.367   7.369   6.082  0.2647  0.4827  0.0759
   91MOL    F3411014   2.498   7.339   6.090  0.1584  0.0686  0.1046
   91MOL    H3511015   2.315   7.290   6.271  2.1967  0.6610  0.2998
   91MOL    H3611016   2.190   7.389   6.220  0.0321  0.4644 -0.1693
   91MOL    H3711017   2.356   7.463   6.027  0.4197  1.4652  1.7012
   91MOL    C3811018   2.297   7.277   5.983 -0.6614 -0.1543 -0.9104
   91MOL    C3911019   2.156   7.314   5.936  0.0439 -0.8631 -0.2486
   91MOL    F4011020   2.166   7.431   5.872  0.3653  0.2008 -0.3067
   91MOL    H4111021   2.359   7.269   5.894 -1.1477 -1.1527 -1.1663
   91MOL    H4211022   2.292   7.177   6.026 -2.4076  0.7137  1.0388
   91MOL    H4311023   2.084   7.332   6.016  1.2057  0.6573  0.4796
   91MOL    C4411024   2.097   7.220   5.829  0.4374 -0.3385  0.1001
   91MOL    C4511025   1.954   7.239   5.785  0.0278  0.0590  0.2381
   91MOL    F4611026   1.946   7.162   5.674 -0.2104  0.2809 -0.1419
   91MOL    H4711027   2.171   7.226   5.749 -0.5407 -1.5865 -0.9006
   91MOL    H4811028   2.097   7.124   5.880  0.9055 -0.9708 -1.0844
   91MOL    H4911029   1.944   7.344   5.755 -2.3743 -0.2694 -0.2398
   91MOL    C5011030   1.841   7.201   5.882  0.7204  0.6572 -0.2340
   91MOL    C5111031   1.782   7.312   5.965 -0.1415 -0.0855 -0.3107
   91MOL    F5211032   1.730   7.407   5.887  0.4640 -0.2168  0.0589
   91MOL    H5311033   1.765   7.144   5.829  1.1054  0.1943 -0.2900
   91MOL    H5411034   1.883   7.131   5.955  0.4813  2.0391  1.2642
   91MOL    H5511035   1.859   7.353   6.030  1.9307 -2.0544 -1.4439
   91MOL    C5611036   1.667   7.258   6.052 -0.1186 -0.5267 -0.8399
   91MOL    C5711037   1.707   7.154   6.159  0.4448  0.3735 -0.1496
   91MOL    F5811038   1.813   7.198   6.225  0.1872 -0.2404  0.4108
   91MOL    H5911039   1.619   7.344   6.098  1.5011  1.3948 -2.6800
   91MOL    H6011040   1.588   7.213   5.991 -1.5864  3.3142 -1.8721
   91MOL    H6111041   1.733   7.053   6.128 -1.5371 -0.8017  1.8278
   91MOL    C6211042   1.593   7.131   6.265  0.0504 -0.3994 -0.5807
   91MOL    C6311043   1.595   6.990   6.323  0.3343 -0.1284  0.3645
   91MOL    F6411044   1.715   6.979   6.380  0.2096 -0.1187  0.1964
   91MOL    H6511045   1.577   7.215   6.333  0.3399 -0.5767 -0.2919
   91MOL    H6611046   1.503   7.119   6.206 -0.5685  0.5723  0.1446
   91MOL    H6711047   1.582   6.919   6.242 -1.1376  1.8484 -1.2144
   91MOL    C6811048   1.484   6.963   6.433  0.1182 -0.0811  0.1764
   91MOL    C6911049   1.330   6.975   6.386 -0.1627 -0.0815 -0.6646
   91MOL    F7011050   1.310   6.870   6.303  0.2935 -0.5139  0.3357
   91MOL    H7111051   1.494   6.861   6.471 -1.0331 -0.0383  0.6412
   91MOL    H7211052   1.512   7.032   6.512  1.1711  0.5447 -0.7331
   91MOL    H7311053   1.312   7.069   6.333  2.5250  0.6601 -0.3184
   91MOL    C7411054   1.242   6.969   6.507 -0.5080  0.1234  0.3982
   91MOL    C7511055   1.093   6.990   6.470  0.0717  0.1212 -0.1301
   91MOL    F7611056   1.050   6.908   6.362 -0.1969  0.0215  0.2365
   91MOL    H7711057   1.254   6.870   6.551  2.7470  1.2012  2.1040
   91MOL    H7811058   1.271   7.046   6.578  0.4939  0.5674 -0.4745
   91MOL    H7911059   1.077   7.093   6.440  1.1252  0.7099  1.3151
   91MOL    C8011060   0.997   6.970   6.596 -0.1772 -0.3173  0.0884
   91MOL    C8111061   0.849   6.999   6.568  0.2346  0.0122 -0.2581
   91MOL    F8211062   0.769   6.967   6.668 -0.4086 -0.1807 -0.4424
   91MOL    H8311063   1.005   6.868   6.635 -1.6497  0.0202  1.3495
   91MOL    H8411064   1.033   7.028   6.681  0.2181  1.6727 -1.4186
   91MOL    H8511065   0.820   6.951   6.474  2.2805  0.6291 -1.2426
   91MOL    C8611066   0.811   7.144   6.532  0.2012 -0.0900  0.0473
   91MOL    C8711067   0.813   7.235   6.654  0.0650 -0.5696 -0.2256
   91MOL    F8811068   0.932   7.250   6.704  0.0145  0.3655 -0.2258
   91MOL    H8911069   0.865   7.186   6.447  1.9202 -3.2140 -0.5168
   91MOL    H9011070   0.706   7.141   6.503 -0.2741  1.5403  1.5314
   91MOL    H9111071   0.756   7.200   6.740 -1.7985  2.2942 -0.2253
   91MOL    C9211072   0.776   7.378   6.620 -0.7069  0.8282 -0.6919
   91MOL    C9311073   0.791   7.486   6.727  1.2057 -0.6592  0.1853
   91MOL    F9411074   0.771   7.610   6.680  0.0832 -0.2866 -0.1572
   91MOL    H9511075   0.844   7.400   6.538 -0.6797 -1.4312 -1.3223
   91MOL    H9611076   0.681   7.379   6.568 -0.7216  0.3138 -0.6848
   91MOL    H9711077   0.897   7.486   6.750  0.9196 -1.1687  1.5053
   91MOL    C9811078   0.703   7.474   6.850 -0.4288 -0.3523 -0.7505
   91MOL    C9911079   0.556   7.465   6.824 -0.8979 -0.0231  0.3693
   91MOL   F10011080   0.537   7.346   6.751  0.6167  0.3496 -0.3499
   91MOL   H10111081   0.734   7.392   6.915  3.5033  1.2782 -0.3946
   91MOL   H10211082   0.713   7.563   6.913  1.2955 -0.0872 -1.3738
   91MOL   H10311083   0.533   7.551   6.761  2.3639 -1.0041 -2.2731
   91MOL   C10411084   0.478   7.462   6.956  0.8658 -0.6062 -0.1570
   91MOL   C10511085   0.331   7.506   6.939 -0.4571  0.2090 -0.0023
   91MOL   F10611086   0.253   7.407   6.898  0.1310  0.0427 -0.1237
   91MOL   H10711087   0.490   7.373   7.018 -2.2275  0.5228  2.1785
   91MOL   H10811088   0.526   7.537   7.018 -0.3584  1.0447 -1.1912
   91MOL   H10911089   0.318   7.581   6.860  0.4217  0.8963  0.5048
   91MOL   C11011090   0.264   7.531   7.076 -0.0944  0.1838  0.8574
   91MOL   C11111091   0.323   7.640   7.158 -1.0352 -0.0813 -0.8708
   91MOL   F11211092   0.295   7.747   7.084 -0.8505  0.1379 -0.4763
   91MOL   H11311093   0.157   7.543   7.060 -0.3151 -1.9994  0.5517
   91MOL   H11411094   0.276   7.437   7.129  0.8667  0.4090  1.0351
   91MOL   H11511095   0.431   7.635   7.165 -1.1199  0.3838  0.9993
   91MOL   C11611096   0.258   7.654   7.296 -0.0534  0.2919 -0.2107
   91MOL   C11711097   0.276   7.526   7.378  0.5345 -0.0397  0.8879
   91MOL   F11811098   0.403   7.488   7.385 -0.1347 -0.2730  0.0090
   91MOL   H11911099   0.313   7.732   7.349  2.0556 -1.8056  0.7831
   91MOL   H12011100   0.155   7.687   7.288 -0.6470 -1.2897  0.8135
   91MOL   H12111101   0.218   7.440   7.342 -0.0366  0.3044  0.9765
   91MOL   H12211102   0.238   7.546   7.478 -2.4256  0.4732 -0.2936
   92MOL     C111103   6.915   7.731   5.138 -0.4274 -0.6367  0.4139
   92MOL     C211104   7.009   7.742   5.253 -0.3271 -0.3221 -0.3260
   92MOL     F311105   6.982   7.858   5.311 -0.4392 -0.2676 -0.4747
   92MOL     H411106   6.817   7.686   5.154  0.2893 -2.5244 -0.3704
   92MOL     H511107   6.947   7.670   5.053 -2.9721 -1.4871  0.0058
   92MOL     H611108   7.113   7.754   5.225 -1.1977 -1.8932 -4.6083
   92MOL     H711109   6.901   7.832   5.098 -1.6113 -0.7610  0.4715
   92MOL     C811110   7.003   7.640   5.371  0.4482  0.1267 -0.6225
   92MOL     C911111   7.001   7.488   5.317  0.0776 -0.2456  0.2198
   92MOL    F1011112   7.122   7.476   5.254  0.2591 -0.0949 -0.2547
   92MOL    H1111113   7.081   7.646   5.447 -1.0052  1.0878  0.8043
   92MOL    H1211114   6.908   7.667   5.417  1.8019  1.7516  1.2528
   92MOL    H1311115   6.916   7.485   5.250  0.3041  2.2529 -0.2027
   92MOL    C1411116   6.993   7.389   5.430 -0.1565 -0.1644  0.2243
   92MOL    C1511117   6.856   7.392   5.501  0.0552  0.2526 -0.4099
   92MOL    F1611118   6.835   7.505   5.569 -0.0081  0.4089  0.1522
   92MOL    H1711119   7.021   7.291   5.391  0.5021  0.2610 -0.3927
   92MOL    H1811120   7.066   7.403   5.510 -0.1168 -1.7235  0.4801
   92MOL    H1911121   6.868   7.331   5.590  0.9031  0.7282 -0.1989
   92MOL    C2011122   6.728   7.361   5.421 -0.0673  0.3743  0.1117
   92MOL    C2111123   6.592   7.320   5.496 -0.6450 -0.4990 -0.7186
   92MOL    F2211124   6.592   7.197   5.555 -0.3621 -0.5230  0.2978
   92MOL    H2311125   6.696   7.443   5.356  1.6209  0.5448 -0.5230
   92MOL    H2411126   6.755   7.273   5.363 -0.3151 -0.8689  1.8479
   92MOL    H2511127   6.528   7.322   5.408  2.8653 -0.1183 -3.3879
   92MOL    C2611128   6.536   7.420   5.601  0.4670 -0.0448  0.0810
   92MOL    C2711129   6.518   7.562   5.547 -0.0328 -0.1901  0.2205
   92MOL    F2811130   6.417   7.535   5.464 -0.1133 -0.2627 -0.0679
   92MOL    H2911131   6.444   7.385   5.648  0.4297  0.3844  0.3237
   92MOL    H3011132   6.615   7.432   5.676 -0.5441 -0.2716  1.2010
   92MOL    H3111133   6.603   7.595   5.487  0.6196  1.2341  1.8675
   92MOL    C3211134   6.476   7.672   5.649  0.7452 -0.0567  0.1363
   92MOL    C3311135   6.601   7.743   5.721  0.3611 -0.0846  0.3659
   92MOL    F3411136   6.658   7.823   5.627  0.5277 -0.5346 -0.3130
   92MOL    H3511137   6.404   7.746   5.613 -0.6366 -0.4768  1.9916
   92MOL    H3611138   6.410   7.629   5.724  0.7533  1.8773  1.2792
   92MOL    H3711139   6.670   7.668   5.762  1.9811  1.3973  0.4120
   92MOL    C3811140   6.561   7.824   5.849 -0.2772 -0.7065  1.0655
   92MOL    C3911141   6.536   7.735   5.969 -0.2970 -0.2993 -0.1327
   92MOL    F4011142   6.647   7.660   5.996 -0.2966  0.4105 -0.0948
   92MOL    H4111143   6.645   7.888   5.875  1.7750 -3.1313  0.5332
   92MOL    H4211144   6.482   7.895   5.824  0.1408 -0.3798  0.6705
   92MOL    H4311145   6.462   7.659   5.942 -2.8590  2.0327  0.0407
   92MOL    C4411146   6.514   7.813   6.097 -0.0186  0.2384 -0.8134
   92MOL    C4511147   6.490   7.729   6.229 -0.2519  0.1975  0.2642
   92MOL    F4611148   6.602   7.674   6.268  0.1840  0.0758  0.0578
   92MOL    H4711149   6.606   7.868   6.116 -0.0211 -0.1841  0.4696
   92MOL    H4811150   6.430   7.879   6.079  0.4798  0.9924 -0.3726
   92MOL    H4911151   6.428   7.646   6.194 -2.1151  0.8581  1.8609
   92MOL    C5011152   6.430   7.800   6.351  0.2318 -0.2995  0.8886
   92MOL    C5111153   6.285   7.845   6.335 -0.3824  0.0114 -0.1376
   92MOL    F5211154   6.213   7.734   6.307 -0.3415 -0.4091 -0.3929
   92MOL    H5311155   6.458   7.743   6.440 -3.8349 -0.9078  1.8494
   92MOL    H5411156   6.476   7.899   6.363  2.7283 -0.8502 -3.3208
   92MOL    H5511157   6.262   7.917   6.257 -1.2417  0.5195  0.5666
   92MOL    C5611158   6.218   7.909   6.461  0.3395 -0.4431 -0.0852
   92MOL    C5711159   6.297   0.036   6.496 -0.2751  0.0748 -0.1995
   92MOL    F5811160   6.273   0.136   6.402  0.7261 -0.7605 -0.0235
   92MOL    H5911161   6.113   7.923   6.436 -0.1464 -0.7924  1.7121
   92MOL    H6011162   6.209   7.846   6.549 -0.1703  1.0655  0.9733
   92MOL    H6111163   6.405   0.026   6.507 -0.1131  1.4092 -0.4707
   92MOL    C6211164   6.245   0.096   6.626 -0.3859  0.1324 -0.0226
   92MOL    C6311165   6.273   0.019   6.749 -0.3981 -0.2608  0.0536
   92MOL    F6411166   6.396   0.003   6.783  0.6850  0.3658  0.0496
   92MOL    H6511167   6.286   0.197   6.634 -1.5454  0.6469 -0.4473
   92MOL    H6611168   6.140   0.107   6.598 -1.0394 -1.6058  1.6188
   92MOL    H6711169   6.240   7.918   6.753  0.7896 -0.7501 -1.9700
   92MOL    C6811170   6.215   0.090   6.865 -0.4133  0.1051  0.0791
   92MOL    C6911171   6.239   0.037   7.005  0.1771 -0.1380 -0.4977
   92MOL    F7011172   6.157   0.111   7.075  0.2079  0.1245 -0.4253
   92MOL    H7111173   6.239   0.196   6.868  1.2930 -0.2312 -1.0267
   92MOL    H7211174   6.110   0.096   6.837 -1.1625 -0.6336  2.5830
   92MOL    H7311175   6.340   0.068   7.032 -0.4079  0.1102  1.4795
   92MOL    C7411176   6.194   7.896   7.029 -0.6401 -0.5901  0.1973
   92MOL    C7511177   6.201   7.854   7.177  0.5708 -0.3284  0.0506
   92MOL    F7611178   6.188   7.724   7.173  0.1032  0.0668 -0.7003
   92MOL    H7711179   6.105   7.874   6.970 -2.2094  1.7875  1.5675
   92MOL    H7811180   6.264   7.823   6.988  0.5804  0.1422  0.9361
   92MOL    H7911181   6.114   7.894   7.229  0.7571 -1.5917  1.3547
   92MOL    C8011182   6.335   7.891   7.245  0.2378  0.3457 -0.6716
   92MOL    C8111183   6.387   7.797   7.357 -0.0207  0.5394  0.0896
   92MOL    F8211184   6.512   7.827   7.383 -0.1677 -0.1426 -0.0346
   92MOL    H8311185   6.410   7.909   7.169  1.0994  1.3451  0.3911
   92MOL    H8411186   6.322   7.987   7.295  0.2742  0.0870 -0.1636
   92MOL    H8511187   6.391   7.692   7.329  2.5162 -0.0830  2.5898
   92MOL    C8611188   6.306   7.807   7.488 -0.3462  0.0871  0.3032
   92MOL    C8711189   6.344   7.706   7.599 -0.0831  0.6318 -0.6124
   92MOL    F8811190   6.295   7.764   7.713 -0.2885  0.4471 -0.4533
   92MOL    H8911191   6.333   7.905   7.526  2.5279 -0.4380 -0.2445
   92MOL    H9011192   6.197   7.810   7.484 -0.3476  2.4793  1.6555
   92MOL    H9111193   6.453   7.701   7.601 -0.1630 -1.5754 -1.2272
   92MOL    C9211194   6.282   7.563   7.572  0.6371  0.5419 -0.3520
   92MOL    C9311195   6.326   7.462   7.672  0.7542  0.4971 -0.5989
   92MOL    F9411196   6.225   7.365   7.674 -0.1646 -0.3916 -0.5041
   92MOL    H9511197   6.173   7.568   7.564  0.6470 -2.0040 -2.7945
   92MOL    H9611198   6.319   7.533   7.474 -2.2472  0.7155 -1.5521
   92MOL    H9711199   6.326   7.517   7.766  1.3058  2.7828 -1.8996
   92MOL    C9811200   6.463   7.399   7.644 -0.1536 -0.3312 -0.4104
   92MOL    C9911201   6.517   7.288   7.752 -0.1542 -0.1324  0.2226
   92MOL   F10011202   6.625   7.237   7.687 -0.3212 -0.2803  0.2244
   92MOL   H10111203   6.453   7.357   7.544 -1.4223 -2.2207  0.4739
   92MOL   H10211204   6.534   7.480   7.630  1.6208 -1.8055 -0.1872
   92MOL   H10311205   6.448   7.204   7.761 -0.2745 -0.2175 -1.3196
   92MOL   C10411206   6.572   7.353   7.873  0.8019  0.1589  0.0202
   92MOL   C10511207   6.625   7.255   7.986  0.0221 -0.0931  0.6613
   92MOL   F10611208   6.725   7.174   7.943  0.0988  0.1223  0.0798
   92MOL   H10711209   6.653   7.421   7.846  0.4890 -0.0177 -1.3704
   92MOL   H10811210   6.497   7.415   7.923  0.4431 -1.2299  1.2536
   92MOL   H10911211   6.542   7.187   0.001 -0.2335 -0.5036 -1.9389
   92MOL   C11011212   6.635   7.305   0.127  0.3363 -0.0713 -0.7976
   92MOL   C11111213   6.743   7.426   0.142 -0.8314  0.5540  0.1568
   92MOL   F11211214   6.688   7.528   0.083 -0.3218  0.5354 -0.1017
   92MOL   H11311215   6.535   7.344   0.148  0.4752 -0.7641  1.2061
   92MOL   H11411216   6.660   7.222   0.192  3.0421  2.4524  1.5202
   92MOL   H11511217   6.833   7.382   0.098 -1.1316 -0.8653  0.9308
   92MOL   C11611218   6.770   7.458   0.293 -0.9106 -0.2875  0.1256
   92MOL   C11711219   6.884   7.554   0.301 -0.5428  0.1227  0.3539
   92MOL   F11811220   6.919   7.574   0.424  0.3783 -0.1490 -0.4648
   92MOL   H11911221   6.692   7.509   0.349  0.3163  0.7209  0.9456
   92MOL   H12011222   6.796   7.363   0.339 -1.0827 -0.6738 -0.5715
   92MOL   H12111223   6.856   7.648   0.253  0.7193  0.3319  0.0032
   92MOL   H12211224   6.977   7.513   0.260  0.5779  1.5916  1.3581
   93MOL     C111225   5.467   3.080   3.691  0.8758 -0.4758 -0.6281
   93MOL     C211226   5.598   3.145   3.746 -0.1051  0.2681 -0.3079
   93MOL     F311227   5.583   3.271   3.782  0.0516  0.6744  0.8709
   93MOL     H411228   5.420   3.140   3.612  2.3182  0.6373 -0.6637
   93MOL     H511229   5.397   3.081   3.774 -0.0939  1.0746 -1.4270
   93MOL     H611230   5.671   3.154   3.665  2.0324  1.6005  1.7077
   93MOL     H711231   5.473   2.976   3.658 -0.7265 -1.3832  1.8381
   93MOL     C811232   5.657   3.062   3.866  0.4401 -0.1310 -0.0373
   93MOL     C911233   5.789   3.102   3.924 -0.2101 -0.2066  0.1321
   93MOL    F1011234   5.836   3.001   4.006  0.0008 -0.9282  0.2266
   93MOL    H1111235   5.588   3.065   3.950  0.9283  0.1207  0.3592
   93MOL    H1211236   5.673   2.961   3.826 -1.7029 -1.3507  2.0683
   93MOL    H1311237   5.786   3.199   3.974 -1.3205 -0.4398  0.5417
   93MOL    C1411238   5.904   3.102   3.818  0.4395 -0.0593  0.3804
   93MOL    C1511239   6.056   3.119   3.876 -0.0389 -0.2353 -0.3222
   93MOL    F1611240   6.140   3.142   3.779 -0.3906  0.4608 -0.1353
   93MOL    H1711241   5.891   3.016   3.752 -1.3099 -0.3427  1.0680
   93MOL    H1811242   5.878   3.183   3.749 -0.1662 -1.8462 -1.5464
   93MOL    H1911243   6.092   3.023   3.912  1.0144  0.0703 -0.5548
   93MOL    C2011244   6.079   3.227   3.982  0.2636  0.0375 -1.4702
   93MOL    C2111245   6.222   3.258   4.029 -0.1832  0.2629  0.1905
   93MOL    F2211246   6.297   3.280   3.920  0.1421  0.0378 -0.2815
   93MOL    H2311247   6.033   3.317   3.941 -0.6363  0.8122  1.1964
   93MOL    H2411248   6.018   3.204   4.069 -0.7341  1.6529 -1.7366
   93MOL    H2511249   6.253   3.165   4.075  0.6367  1.0045  1.1723
   93MOL    C2611250   6.204   3.382   4.126 -0.6911 -0.8340 -0.4658
   93MOL    C2711251   6.317   3.409   4.218 -0.1760 -0.6443  0.1639
   93MOL    F2811252   6.343   3.299   4.292  0.3668 -0.8091 -0.0816
   93MOL    H2911253   6.166   3.469   4.072  0.5615  0.6874  1.0486
   93MOL    H3011254   6.117   3.360   4.188 -2.3035 -0.3192 -2.4565
   93MOL    H3111255   6.304   3.487   4.292  1.7831 -0.1901  0.0707
   93MOL    C3211256   6.446   3.456   4.146  0.1988  0.2522  0.4371
   93MOL    C3311257   6.445   3.606   4.097 -0.0533 -0.6800 -0.3231
   93MOL    F3411258   6.408   3.686   4.198 -0.4562  0.7355 -0.1921
   93MOL    H3511259   6.531   3.462   4.213  0.5635  1.0660 -0.0890
   93MOL    H3611260   6.463   3.385   4.066 -1.3380 -1.8655  1.9315
   93MOL    H3711261   6.373   3.601   4.015 -1.0020  1.5989  0.3193
   93MOL    C3811262   6.582   3.652   4.035  0.2363 -0.2757  0.3542
   93MOL    C3911263   6.594   3.788   3.965  0.4369 -0.2009  0.0034
   93MOL    F4011264   6.509   3.779   3.861  0.3285 -0.0679 -0.0729
   93MOL    H4111265   6.649   3.657   4.120 -0.8743  0.8835  1.1684
   93MOL    H4211266   6.632   3.576   3.974 -0.1109 -2.0373  2.2410
   93MOL    H4311267   6.690   3.808   3.918 -0.6093 -0.4853 -2.2930
   93MOL    C4411268   6.555   3.907   4.052 -0.5335  0.2307 -0.2891
   93MOL    C4511269   6.559   4.035   3.978 -0.0314 -0.7550 -0.4188
   93MOL    F4611270   6.484   4.121   4.047 -0.5982 -0.6419  0.0499
   93MOL    H4711271   6.449   3.890   4.066 -0.2770 -1.3968 -0.2435
   93MOL    H4811272   6.600   3.916   4.151  1.2715 -0.4304 -1.0330
   93MOL    H4911273   6.512   4.031   3.879  0.2208 -1.2919 -0.5171
   93MOL    C5011274   6.698   4.091   3.963 -0.2751  0.0545  0.8754
   93MOL    C5111275   6.700   4.216   3.863  0.1420  0.2813  0.1211
   93MOL    F5211276   6.823   4.258   3.857 -0.2219  0.2340  0.3823
   93MOL    H5311277   6.728   4.123   4.063  0.2718  0.5518  0.5523
   93MOL    H5411278   6.771   4.016   3.934 -0.2493 -0.0106  1.1042
   93MOL    H5511279   6.643   4.287   3.923 -1.2987 -0.8227  0.0965
   93MOL    C5611280   6.648   4.209   3.721 -0.2134  0.2567 -0.3171
   93MOL    C5711281   6.721   4.115   3.632  0.1241  0.8640  0.3356
   93MOL    F5811282   6.686   3.989   3.654 -0.4651  0.1579 -0.2131
   93MOL    H5911283   6.542   4.194   3.699 -0.2559 -1.0693  0.7505
   93MOL    H6011284   6.673   4.310   3.687 -2.2862  0.6197 -0.8414
   93MOL    H6111285   6.828   4.119   3.654  0.2339  1.9126 -0.3321
   93MOL    C6211286   6.716   4.143   3.477  0.3339 -0.6188 -0.2659
   93MOL    C6311287   6.579   4.145   3.414 -0.7072  0.4914  0.6087
   93MOL    F6411288   6.516   4.255   3.454 -0.0843  0.0787 -0.2285
   93MOL    H6511289   6.753   4.246   3.475  0.4100 -0.5586  2.0473
   93MOL    H6611290   6.785   4.078   3.424 -0.2278 -0.2285 -1.4971
   93MOL    H6711291   6.516   4.060   3.444 -1.3705  1.1568  1.1188
   93MOL    C6811292   6.594   4.165   3.259  0.1030  0.0385  0.0838
   93MOL    C6911293   6.631   4.032   3.188 -0.5581 -0.4530 -0.5162
   93MOL    F7011294   6.566   3.923   3.235  0.0824 -0.1488  0.0769
   93MOL    H7111295   6.497   4.202   3.228  0.2270 -0.7233 -1.2662
   93MOL    H7211296   6.654   4.254   3.239  1.4310 -0.7941  0.2894
   93MOL    H7311297   6.734   4.006   3.212 -1.3527 -2.3687  0.9415
   93MOL    C7411298   6.618   4.034   3.029 -0.6017 -0.2613  0.2515
   93MOL    C7511299   6.725   4.121   2.960  0.5135  0.6797  0.6997
   93MOL    F7611300   6.848   4.074   2.993 -0.3969  0.5736  0.7808
   93MOL    H7711301   6.627   3.933   2.989  0.5448  0.9125 -2.5749
   93MOL    H7811302   6.520   4.073   3.004 -0.4497 -0.0086  0.0361
   93MOL    H7911303   6.723   4.223   2.998  3.2120  1.1784 -0.3804
   93MOL    C8011304   6.709   4.126   2.806 -0.3545 -0.4168 -0.0781
   93MOL    C8111305   6.597   4.212   2.744  0.3679 -0.3721  0.5001
   93MOL    F8211306   6.618   4.344   2.757 -0.3272 -0.2671 -0.4349
   93MOL    H8311307   6.808   4.162   2.778 -0.1975  0.9066  2.0813
   93MOL    H8411308   6.689   4.027   2.764  1.1986 -0.1993 -1.3881
   93MOL    H8511309   6.499   4.184   2.783 -0.8875  2.9632 -0.0483
   93MOL    C8611310   6.589   4.196   2.590 -0.0406  0.5388 -0.1278
   93MOL    C8711311   6.453   4.239   2.537  0.1688 -0.2188  0.5702
   93MOL    F8811312   6.397   4.353   2.585 -0.1729 -0.3270  0.1371
   93MOL    H8911313   6.677   4.229   2.535  0.6280  1.2605  1.3588
   93MOL    H9011314   6.588   4.089   2.566 -0.4459  0.5418 -0.1179
   93MOL    H9111315   6.379   4.164   2.562 -1.6161  1.3545  0.1059
   93MOL    C9211316   6.457   4.257   2.387  0.0969 -0.1155  0.6716
   93MOL    C9311317   6.492   4.136   2.294 -0.2563  0.2086  0.6751
   93MOL    F9411318   6.397   4.050   2.303 -0.0086 -0.0333 -0.1842
   93MOL    H9511319   6.353   4.285   2.368  0.0101 -1.4513 -0.9345
   93MOL    H9611320   6.500   4.350   2.349 -2.2912  1.7380  2.3038
   93MOL    H9711321   6.578   4.090   2.342 -2.3718 -2.4879  2.0091
   93MOL    C9811322   6.514   4.178   2.152 -0.3069  0.1737  0.8515
   93MOL    C9911323   6.517   4.066   2.053 -0.3410 -0.8834  0.1244
   93MOL   F10011324   6.534   4.116   1.932 -0.1917 -0.2648 -0.2218
   93MOL   H10111325   6.428   4.243   2.140  0.7911  1.7737  1.4760
   93MOL   H10211326   6.602   4.239   2.130 -1.9159  0.9058 -4.0994
   93MOL   H10311327   6.423   4.011   2.054  0.6030 -2.5413  0.9752
   93MOL   C10411328   6.635   3.971   2.084 -0.2953 -0.0078 -0.0907
   93MOL   C10511329   6.778   4.022   2.045 -0.8511  0.0937  0.3305
   93MOL   F10611330   6.826   4.114   2.137 -1.0695 -0.1707 -0.3785
   93MOL   H10711331   6.635   3.933   2.186 -1.3662 -0.2771 -0.1826
   93MOL   H10811332   6.618   3.881   2.024 -1.1632  1.2580 -1.7878
   93MOL   H10911333   6.771   4.073   1.949  1.1386  0.3951  0.3285
   93MOL   C11011334   6.881   3.911   2.041 -0.2296  0.1268  0.1427
   93MOL   C11111335   7.030   3.958   2.030 -0.1341  0.6990 -0.1134
   93MOL   F11211336   7.106   3.856   2.052 -0.0215 -0.4635 -0.1231
   93MOL   H11311337   6.868   3.849   2.130  3.0239  0.7863  1.1102
   93MOL   H11411338   6.867   3.838   1.961  0.6229 -0.3448  0.4151
   93MOL   H11511339   7.054   4.025   2.113 -1.7633  1.0164  0.1103
   93MOL   C11611340   7.056   4.010   1.878  0.4216 -0.6590  0.4831
   93MOL   C11711341   7.202   4.035   1.842 -0.3385 -0.5586  0.2051
   93MOL   F11811342   7.211   4.058   1.708  0.3997 -0.1467  0.1069
   93MOL   H11911343   7.006   3.947   1.804 -1.0953 -0.2448  1.1334
   93MOL   H12011344   7.005   4.105   1.863  1.5798  0.3843  2.9010
   93MOL   H12111345   7.264   3.947   1.861  0.3083 -0.2710 -0.5172
   93MOL   H12211346   7.258   4.118   1.884 -1.6513  1.1833 -1.4289
   94MOL     C111347   3.592   5.473   1.320 -0.2538  0.5577  0.2121
   94MOL     C211348   3.556   5.528   1.182  0.5955  0.3945  0.0443
   94MOL     F311349   3.519   5.426   1.107 -0.4405 -0.3287 -0.2122
   94MOL     H411350   3.667   5.393   1.319 -1.0114 -0.1685 -0.4410
   94MOL     H511351   3.501   5.465   1.379 -1.3724  0.3866 -1.4820
   94MOL     H611352   3.647   5.560   1.129 -0.7383  3.2481 -0.6202
   94MOL     H711353   3.638   5.551   1.381 -3.4362  1.3906  1.6422
   94MOL     C811354   3.444   5.642   1.184 -0.0165 -0.2579 -0.3803
   94MOL     C911355   3.507   5.772   1.241 -0.4139 -0.6461  0.5964
   94MOL    F1011356   3.592   5.825   1.154  0.1275 -0.2601 -0.2412
   94MOL    H1111357   3.415   5.659   1.081 -1.7184  0.2527  0.1625
   94MOL    H1211358   3.357   5.618   1.246 -0.3505  0.6408 -0.5008
   94MOL    H1311359   3.572   5.742   1.323 -0.7474 -0.1735  1.0421
   94MOL    C1411360   3.410   5.885   1.279 -0.3194  0.5392  0.0080
   94MOL    C1511361   3.475   5.999   1.357 -0.2493 -0.2041 -0.0473
   94MOL    F1611362   3.387   6.104   1.363  0.0299  0.2590  0.3320
   94MOL    H1711363   3.361   5.917   1.188  1.6749 -0.7264 -1.5559
   94MOL    H1811364   3.327   5.847   1.338 -0.1722  0.0257 -0.1121
   94MOL    H1911365   3.566   6.029   1.305 -0.7137 -1.7861 -1.8667
   94MOL    C2011366   3.500   5.961   1.502  0.1701  0.0651  0.8167
   94MOL    C2111367   3.595   6.053   1.575  0.3156  0.0640 -0.0023
   94MOL    F2211368   3.521   6.157   1.624 -0.5580 -0.6313 -0.0767
   94MOL    H2311369   3.398   5.964   1.540  0.5708  1.0216  1.8321
   94MOL    H2411370   3.536   5.859   1.511 -2.3125 -0.8521  0.7581
   94MOL    H2511371   3.651   6.101   1.495  1.7920  2.6621  2.4854
   94MOL    C2611372   3.684   5.995   1.688 -0.7374 -0.2659  0.0376
   94MOL    C2711373   3.803   6.078   1.734 -0.7639 -0.1724 -0.0053
   94MOL    F2811374   3.749   6.185   1.799  0.6875 -0.3868  0.2294
   94MOL    H2911375   3.624   5.973   1.776 -1.1922 -0.5175 -0.3339
   94MOL    H3011376   3.723   5.897   1.660  0.2801 -0.4337  1.9481
   94MOL    H3111377   3.872   6.108   1.655  1.1961 -1.4372  1.1951
   94MOL    C3211378   3.880   5.995   1.845 -0.0020  0.7360 -0.6011
   94MOL    C3311379   3.957   5.877   1.792 -0.3986 -0.1438  0.0839
   94MOL    F3411380   4.020   5.917   1.686  0.1067 -0.0931 -0.2153
   94MOL    H3511381   3.944   6.067   1.897  1.1926 -1.6399  1.3357
   94MOL    H3611382   3.814   5.967   1.926  1.0033 -2.4821 -0.7977
   94MOL    H3711383   3.896   5.793   1.761  0.3374 -0.0113 -1.7964
   94MOL    C3811384   4.070   5.830   1.880 -0.0679  0.5711  0.3673
   94MOL    C3911385   4.026   5.772   2.018 -0.1344  0.0431 -0.0349
   94MOL    F4011386   3.978   5.649   2.008  0.0589  0.2052  0.0206
   94MOL    H4111387   4.118   5.749   1.826  0.1168 -0.0908  1.5003
   94MOL    H4211388   4.139   5.912   1.903 -0.0714  1.3561 -2.2226
   94MOL    H4311389   3.948   5.832   2.065  0.4891 -1.5587  3.2008
   94MOL    C4411390   4.135   5.762   2.123  0.7513  0.0368  0.0976
   94MOL    C4511391   4.171   5.882   2.198 -0.1267 -0.4919  0.8088
   94MOL    F4611392   4.056   5.922   2.260 -0.3983 -0.2039 -0.5332
   94MOL    H4711393   4.100   5.694   2.200 -1.6857 -0.2469 -1.1797
   94MOL    H4811394   4.221   5.731   2.064  1.7691  1.0453  1.0307
   94MOL    H4911395   4.189   5.959   2.123 -1.3470 -0.5791  0.4264
   94MOL    C5011396   4.289   5.863   2.297 -0.1789 -0.0769  0.1817
   94MOL    C5111397   4.429   5.883   2.247  0.3234 -0.7580 -0.7089
   94MOL    F5211398   4.435   6.007   2.208 -0.0150  0.1812  0.0817
   94MOL    H5311399   4.276   5.924   2.387 -2.2230  1.7809 -1.3404
   94MOL    H5411400   4.286   5.765   2.344 -1.7715 -0.8829 -1.5809
   94MOL    H5511401   4.444   5.827   2.155 -0.8646  1.1538 -2.0977
   94MOL    C5611402   4.538   5.866   2.355  1.2053 -0.1477  0.6053
   94MOL    C5711403   4.570   5.716   2.381  0.8170  0.3051  0.3635
   94MOL    F5811404   4.614   5.655   2.270  0.2214 -0.2350  0.2434
   94MOL    H5911405   4.620   5.928   2.320 -0.1734  1.7006  0.5871
   94MOL    H6011406   4.505   5.915   2.447 -0.0312 -0.2479  0.2165
   94MOL    H6111407   4.474   5.668   2.401  1.3631 -0.1766  1.9042
   94MOL    C6211408   4.658   5.689   2.498  0.0856  0.2385  0.1547
   94MOL    C6311409   4.613   5.717   2.640  0.0912  0.1423 -0.1064
   94MOL    F6411410   4.583   5.838   2.650 -0.4119  0.0838  0.4057
   94MOL    H6511411   4.680   5.583   2.505 -2.1159 -0.0953  2.4662
   94MOL    H6611412   4.757   5.733   2.484  0.7591 -1.0104  1.0064
   94MOL    H6711413   4.692   5.700   2.714  0.1462  0.5486 -0.0732
   94MOL    C6811414   4.497   5.625   2.694  0.1968  0.8768  0.2551
   94MOL    C6911415   4.536   5.481   2.738  0.7906 -0.3485  0.5096
   94MOL    F7011416   4.630   5.497   2.838 -0.4297 -0.6535 -0.0086
   94MOL    H7111417   4.447   5.676   2.777 -0.4801  1.1480 -0.3154
   94MOL    H7211418   4.422   5.616   2.615  0.7034  0.2297 -0.1557
   94MOL    H7311419   4.573   5.426   2.652 -1.0933  2.1047 -1.9348
   94MOL    C7411420   4.429   5.396   2.808  0.8527  0.5155  0.3153
   94MOL    C7511421   4.326   5.338   2.707 -0.3053  0.0851  0.3291
   94MOL    F7611422   4.385   5.259   2.613  0.3250  0.2756  0.6474
   94MOL    H7711423   4.482   5.311   2.851 -0.9119 -2.0527 -2.3163
   94MOL    H7811424   4.374   5.449   2.885  0.7404  0.5817  0.1899
   94MOL    H7911425   4.275   5.421   2.659 -0.6174 -0.5813 -0.5043
   94MOL    C8011426   4.219   5.253   2.776 -0.0468 -0.8005  0.2820
   94MOL    C8111427   4.105   5.202   2.678  0.7002 -0.4431 -0.6245
   94MOL    F8211428   4.009   5.133   2.739  0.4312 -0.2324  0.1123
   94MOL    H8311429   4.258   5.167   2.831 -0.8577 -1.7736 -0.6139
   94MOL    H8411430   4.174   5.312   2.855 -2.2293  1.8600 -2.8010
   94MOL    H8511431   4.140   5.140   2.595  0.2653 -0.0582 -1.0965
   94MOL    C8611432   4.028   5.320   2.600  0.1853  0.7779 -1.2755
   94MOL    C8711433   3.903   5.290   2.511  0.0513  0.3628  0.8442
   94MOL    F8811434   3.842   5.406   2.484 -0.1580  0.1644  0.4227
   94MOL    H8911435   3.994   5.377   2.687 -0.1385  0.4510 -1.1884
   94MOL    H9011436   4.095   5.386   2.545  2.5583  0.4022  1.0138
   94MOL    H9111437   3.836   5.221   2.561 -1.4643  2.2960  1.5391
   94MOL    C9211438   3.948   5.215   2.384  0.1111 -0.1839  0.4088
   94MOL    C9311439   3.833   5.210   2.275 -0.3804 -0.1554 -0.6556
   94MOL    F9411440   3.828   5.327   2.211  0.1585 -0.3312 -0.0245
   94MOL    H9511441   4.027   5.266   2.329 -1.6061 -0.2228 -2.1642
   94MOL    H9611442   3.972   5.112   2.407  1.2957 -0.7368 -3.1640
   94MOL    H9711443   3.735   5.212   2.323 -0.9766  0.3761 -1.8716
   94MOL    C9811444   3.853   5.093   2.177 -0.0182  0.0553  1.0592
   94MOL    C9911445   3.738   5.067   2.077 -0.4761 -0.5281  0.2720
   94MOL   F10011446   3.785   4.984   1.984 -0.7481  0.1253  0.6237
   94MOL   H10111447   3.948   5.095   2.123 -1.4821 -3.7005 -1.8781
   94MOL   H10211448   3.841   5.005   2.241  0.9133  0.0107  1.1725
   94MOL   H10311449   3.728   5.158   2.018 -2.3278 -0.4725  0.6441
   94MOL   C10411450   3.605   5.010   2.141  0.9556 -0.0146  0.9525
   94MOL   C10511451   3.492   4.972   2.033  0.2153  0.3017 -0.0404
   94MOL   F10611452   3.491   5.080   1.955 -0.1471  0.3036 -0.2421
   94MOL   H10711453   3.620   4.923   2.205 -2.1873  0.0415  1.8662
   94MOL   H10811454   3.572   5.087   2.210 -0.1120  1.0702 -0.7378
   94MOL   H10911455   3.397   4.955   2.084  1.0868  1.7745  2.1526
   94MOL   C11011456   3.526   4.853   1.939 -0.8758 -0.1986  0.4109
   94MOL   C11111457   3.421   4.741   1.924  0.1354 -0.7043  0.4846
   94MOL   F11211458   3.395   4.696   2.044  0.6082 -0.2165  0.2955
   94MOL   H11311459   3.561   4.894   1.844 -0.5564  0.8106  0.9650
   94MOL   H11411460   3.611   4.805   1.988  0.3517  1.6186  0.1189
   94MOL   H11511461   3.456   4.660   1.860 -0.1556 -1.0660  0.7809
   94MOL   C11611462   3.291   4.792   1.851 -0.0846  0.1077 -0.0908
   94MOL   C11711463   3.201   4.674   1.806 -0.4385 -0.2097  0.6852
   94MOL   F11811464   3.259   4.596   1.719  0.4435 -0.5577  0.7614
   94MOL   H11911465   3.229   4.857   1.914  0.7548 -2.1820  3.2073
   94MOL   H12011466   3.321   4.845   1.760  2.7602 -1.7070 -0.2642
   94MOL   H12111467   3.111   4.708   1.754  1.4925  1.6503 -1.5206
   94MOL   H12211468   3.170   4.609   1.889  1.5600 -0.8509  0.9562
   95MOL     C111469   2.666   2.694   7.683  0.8076  0.0183 -0.0645
   95MOL     C211470   2.771   2.809   7.660 -0.2647 -0.2963  0.0309
   95MOL     F311471   2.686   2.916   7.663  0.1406  0.3004 -0.2270
   95MOL     H411472   2.617   2.691   7.780 -1.5659 -1.0618 -1.2563
   95MOL     H511473   2.716   2.598   7.671  0.2451 -0.4352  1.0973
   95MOL     H611474   2.823   2.799   7.565  1.0020  1.5207  0.5166
   95MOL     H711475   2.581   2.714   7.618  2.0477  1.7736 -1.1809
   95MOL     C811476   2.867   2.821   7.778 -0.1811 -0.6887 -0.1384
   95MOL     C911477   2.958   2.706   7.807 -0.7425  0.5159 -0.0260
   95MOL    F1011478   3.012   2.668   7.693  0.4910  0.0403  0.2596
   95MOL    H1111479   2.920   2.915   7.762 -1.7136  0.1885 -0.1535
   95MOL    H1211480   2.797   2.842   7.859 -1.1471 -2.0057 -0.6325
   95MOL    H1311481   2.900   2.623   7.846  1.1496  0.1850  2.1444
   95MOL    C1411482   3.079   2.740   7.899  0.6629  0.2215  0.0375
   95MOL    C1511483   3.039   2.762   0.040  0.3762 -0.0199 -0.0810
   95MOL    F1611484   2.971   2.658   0.088  0.2258  0.3930 -0.5304
   95MOL    H1711485   3.149   2.657   7.895 -0.6125 -0.9126  0.8064
   95MOL    H1811486   3.121   2.831   7.856 -1.4483  1.6990  0.9872
   95MOL    H1911487   2.968   2.844   0.039  0.1340 -0.2260  0.1920
   95MOL    C2011488   3.157   2.798   0.125 -0.2020 -0.4231 -0.1656
   95MOL    C2111489   3.137   2.877   0.259 -0.5548 -0.2052 -0.1517
   95MOL    F2211490   3.109   2.996   0.210  0.5387  0.1299  0.2325
   95MOL    H2311491   3.221   2.717   0.157 -1.8017 -1.5420  0.2421
   95MOL    H2411492   3.226   2.859   0.066  0.4782  0.7068  1.7748
   95MOL    H2511493   3.238   2.897   0.296 -1.5473  0.9453  1.9858
   95MOL    C2611494   3.040   2.817   0.362 -0.2816 -0.2882 -0.2587
   95MOL    C2711495   3.042   2.884   0.501 -0.3305 -0.4664  0.4639
   95MOL    F2811496   3.166   2.866   0.554  0.0654 -0.3836 -0.1929
   95MOL    H2911497   2.943   2.830   0.315  0.5898  0.4369 -1.8935
   95MOL    H3011498   3.049   2.708   0.364  0.8940 -0.1823  1.8175
   95MOL    H3111499   2.976   2.830   0.569  0.3362  0.5930  1.9958
   95MOL    C3211500   3.003   3.033   0.511 -0.4781  0.4725 -0.0262
   95MOL    C3311501   3.007   3.101   0.654  0.5970  0.4618 -0.0647
   95MOL    F3411502   2.957   3.221   0.624  0.0906  0.1915 -0.1158
   95MOL    H3511503   3.066   3.096   0.447 -1.0135 -0.5130 -1.5541
   95MOL    H3611504   2.910   3.049   0.456 -1.0199  2.1775  1.3378
   95MOL    H3711505   3.108   3.114   0.693  1.5469  0.6325 -2.4503
   95MOL    C3811506   2.921   3.034   0.756 -0.4737 -0.9023  0.5142
   95MOL    C3911507   2.927   3.104   0.892  0.0975 -0.1627 -0.5154
   95MOL    F4011508   2.859   3.216   0.876  0.2308 -0.4220 -0.0087
   95MOL    H4111509   2.816   3.026   0.728 -0.5634  0.0382  0.5573
   95MOL    H4211510   2.954   2.931   0.772 -0.3877 -0.7620  1.2830
   95MOL    H4311511   3.034   3.118   0.903  0.1741 -0.0042 -1.4635
   95MOL    C4411512   2.862   3.039   1.019  0.0001  0.7034  0.3891
   95MOL    C4511513   2.851   3.126   1.145  0.9712 -0.3115  0.7234
   95MOL    F4611514   2.804   3.041   1.239 -0.3210  0.0236  0.5133
   95MOL    H4711515   2.761   3.019   0.983  0.7117 -1.5217 -0.4885
   95MOL    H4811516   2.909   2.944   1.045 -1.4355  0.1047  0.8438
   95MOL    H4911517   2.784   3.210   1.132  1.3578  0.3626  2.7858
   95MOL    C5011518   2.986   3.176   1.199 -0.4776  0.5025  0.6454
   95MOL    C5111519   2.990   3.249   1.335 -0.0565 -0.0907 -0.3125
   95MOL    F5211520   2.940   3.164   1.425  0.2630  0.2316  0.6836
   95MOL    H5311521   3.055   3.092   1.207 -0.8166  0.2094  0.5242
   95MOL    H5411522   3.030   3.241   1.124 -0.4362  0.1670  0.3765
   95MOL    H5511523   2.928   3.339   1.331  0.0609 -0.0288 -0.7190
   95MOL    C5611524   3.140   3.294   1.373 -0.3211  0.2060  0.8392
   95MOL    C5711525   3.170   3.373   1.506  0.5836 -0.0130  0.1451
   95MOL    F5811526   3.102   3.485   1.498  0.0741  0.5544 -0.1975
   95MOL    H5911527   3.216   3.218   1.355  0.0328  0.8807 -0.6659
   95MOL    H6011528   3.175   3.364   1.296 -0.6539 -1.5595 -0.9748
   95MOL    H6111529   3.277   3.394   1.502  0.9575 -1.7802  0.5243
   95MOL    C6211530   3.133   3.300   1.637 -0.0483 -0.6820 -0.0850
   95MOL    C6311531   3.181   3.156   1.649 -0.9355  0.0630  0.8362
   95MOL    F6411532   3.310   3.154   1.666 -0.4850 -0.1499  0.3469
   95MOL    H6511533   3.161   3.359   1.725  1.0423  0.1009 -0.9432
   95MOL    H6611534   3.025   3.292   1.646 -0.0072  0.5950  1.9721
   95MOL    H6711535   3.158   3.102   1.557  0.5979 -4.1435  2.7905
   95MOL    C6811536   3.118   3.074   1.766  0.1561  0.8964 -0.8863
   95MOL    C6911537   3.119   3.149   1.899  0.6599  0.9693 -0.3495
   95MOL    F7011538   3.016   3.238   1.901 -0.2764 -0.0228 -0.7769
   95MOL    H7111539   3.014   3.053   1.744  0.4210  1.0142 -2.3361
   95MOL    H7211540   3.164   2.976   1.780 -1.8004 -0.1107 -1.3176
   95MOL    H7311541   3.210   3.207   1.915  1.6536 -0.9664  1.3100
   95MOL    C7411542   3.089   3.052   2.019 -0.7125 -0.6617 -0.3766
   95MOL    C7511543   3.206   2.953   2.059 -0.5200 -0.9297 -0.7159
   95MOL    F7611544   3.309   3.015   2.118  0.1175  0.3368 -0.0459
   95MOL    H7711545   3.072   3.109   2.110  0.5019  0.1354 -0.6402
   95MOL    H7811546   2.991   3.009   2.000 -1.3897  0.2164  1.0333
   95MOL    H7911547   3.245   2.903   1.969  0.9620 -0.6300 -0.2476
   95MOL    C8011548   3.141   2.848   2.150 -0.2610 -0.1251  0.3978
   95MOL    C8111549   3.071   2.733   2.080 -0.8783  0.0170 -0.2860
   95MOL    F8211550   3.155   2.674   1.999 -0.1024  0.0692 -0.6468
   95MOL    H8311551   3.214   2.799   2.214  1.3082 -0.6893 -1.7506
   95MOL    H8411552   3.085   2.915   2.214  1.9550  2.5899 -0.3692
   95MOL    H8511553   2.988   2.764   2.017 -1.1481  0.4553  0.2890
   95MOL    C8611554   3.024   2.630   2.184  0.4861  0.0126  0.6058
   95MOL    C8711555   2.962   2.503   2.121  0.7953  0.5175  0.2182
   95MOL    F8811556   3.040   2.446   2.030  0.2396  0.6394 -0.2731
   95MOL    H8911557   3.111   2.597   2.241  1.8606  0.1063 -1.3905
   95MOL    H9011558   2.952   2.680   2.249 -2.0656 -0.8576 -1.4595
   95MOL    H9111559   2.875   2.541   2.068  1.5842  0.7355 -0.9379
   95MOL    C9211560   2.904   2.398   2.220  0.2926 -0.1595  0.5929
   95MOL    C9311561   2.787   2.306   2.158  0.0076  0.0605  0.6931
   95MOL    F9411562   2.823   2.230   2.049 -0.6256  0.5172 -0.3659
   95MOL    H9511563   2.982   2.340   2.270  0.4287 -1.1128 -0.6676
   95MOL    H9611564   2.861   2.452   2.304  2.3666  1.7550  0.4668
   95MOL    H9711565   2.717   2.382   2.124  0.0988 -0.3926 -0.5272
   95MOL    C9811566   2.720   2.210   2.257 -0.1436 -0.0946 -0.2066
   95MOL    C9911567   2.566   2.190   2.241 -0.6204  0.1815 -0.2745
   95MOL   F10011568   2.516   2.309   2.244  0.5082 -0.0086  0.6694
   95MOL   H10111569   2.786   2.123   2.257 -1.4256 -1.1086  0.9622
   95MOL   H10211570   2.748   2.249   2.355  1.3593  0.2942 -0.7752
   95MOL   H10311571   2.530   2.124   2.321  0.1090 -1.5822 -1.3660
   95MOL   C10411572   2.522   2.131   2.115 -0.7597  0.3135  0.1998
   95MOL   C10511573   2.375   2.119   2.100 -0.1344  0.1073 -0.0926
   95MOL   F10611574   2.351   2.068   1.983 -0.4246 -1.0946 -0.5609
   95MOL   H10711575   2.577   2.177   2.033 -0.1054  0.1725  0.5590
   95MOL   H10811576   2.554   2.029   2.097 -2.9973 -0.4967  0.6456
   95MOL   H10911577   2.336   2.221   2.092 -0.0138  0.3933  2.5768
   95MOL   C11011578   2.305   2.046   2.211 -0.2727 -0.6972  0.2701
   95MOL   C11111579   2.156   2.025   2.185  0.4296  0.2461  0.2036
   95MOL   F11211580   2.115   1.938   2.272  0.2215 -0.1221 -0.9666
   95MOL   H11311581   2.347   1.947   2.230 -1.0624 -0.5545  2.8599
   95MOL   H11411582   2.308   2.097   2.307 -1.0476 -1.3299  0.6366
   95MOL   H11511583   2.138   1.979   2.087 -0.1424 -0.0738  0.4542
   95MOL   C11611584   2.084   2.158   2.198  0.3416 -0.3099  0.1126
   95MOL   C11711585   1.933   2.154   2.211 -0.3065  0.2369  0.5447
   95MOL   F11811586   1.880   2.275   2.208 -0.0028 -0.5514 -0.1966
   95MOL   H11911587   2.117   2.209   2.288  1.6289  1.2538 -1.2209
   95MOL   H12011588   2.107   2.215   2.108 -2.1326 -1.3956 -1.2696
   95MOL   H12111589   1.892   2.112   2.303 -0.7169 -0.7538 -0.0873
   95MOL   H12211590   1.886   2.107   2.125 -0.0072  1.8298 -0.4917
   96MOL     C111591   2.374   3.023   3.018 -0.4319 -0.2901 -0.6754
   96MOL     C211592   2.347   3.160   3.076 -0.0285  0.3214 -0.5062
   96MOL     F311593   2.220   3.158   3.119 -0.1735 -0.1113 -0.4040
   96MOL     H411594   2.367   2.948   3.096  0.9825 -1.8655 -2.0195
   96MOL     H511595   2.475   3.020   2.977  0.1358  1.3965  0.5535
   96MOL     H611596   2.360   3.237   3.000  3.6625 -0.5965 -0.9374
   96MOL     H711597   2.292   3.006   2.947 -1.5468  1.1085  0.2306
   96MOL     C811598   2.435   3.186   3.200 -0.3637 -0.5916 -0.4342
   96MOL     C911599   2.426   3.321   3.273  0.4455  0.2468 -0.0799
   96MOL    F1011600   2.303   3.348   3.315 -0.1476  0.7143  0.2958
   96MOL    H1111601   2.410   3.104   3.267 -0.7610  0.1478  0.3339
   96MOL    H1211602   2.536   3.178   3.162 -0.1697  0.2909 -0.1268
   96MOL    H1311603   2.456   3.403   3.209 -0.5723 -0.4693 -1.5027
   96MOL    C1411604   2.517   3.324   3.398  0.1560  0.8398  0.1777
   96MOL    C1511605   2.545   3.462   3.462 -0.3680 -0.3451  0.9934
   96MOL    F1611606   2.591   3.551   3.374 -0.0008 -0.2025 -0.1486
   96MOL    H1711607   2.483   3.249   3.469  0.6760 -0.1807 -0.6510
   96MOL    H1811608   2.612   3.291   3.358 -0.3501  1.1280 -1.3029
   96MOL    H1911609   2.627   3.460   3.535  1.3981  1.0723 -0.8884
   96MOL    C2011610   2.420   3.527   3.528  0.3788  0.9664  0.3986
   96MOL    C2111611   2.365   3.459   3.651  0.3499 -0.1129  0.5446
   96MOL    F2211612   2.459   3.449   3.739  0.3475  0.1043 -0.0730
   96MOL    H2311613   2.458   3.624   3.559  1.2888 -0.2348  3.1665
   96MOL    H2411614   2.337   3.559   3.464 -0.9944 -2.4576  0.3429
   96MOL    H2511615   2.347   3.352   3.639  0.4764 -0.5599  3.8513
   96MOL    C2611616   2.239   3.527   3.707 -0.1591 -0.0740 -0.7069
   96MOL    C2711617   2.174   3.470   3.828  0.0220  0.4237  0.2665
   96MOL    F2811618   2.067   3.550   3.856  0.3889  0.1470  0.0483
   96MOL    H2911619   2.267   3.631   3.725  0.6424 -0.4353  0.1172
   96MOL    H3011620   2.161   3.534   3.631  0.0121 -0.6411 -0.9366
   96MOL    H3111621   2.248   3.467   3.908  0.1536  2.5784  0.2537
   96MOL    C3211622   2.119   3.328   3.813  0.0246 -0.5517  0.5959
   96MOL    C3311623   2.028   3.305   3.693  0.7124  0.0875 -0.2134
   96MOL    F3411624   2.095   3.284   3.578  0.2587 -0.1390 -0.4361
   96MOL    H3511625   2.195   3.251   3.804 -0.1494 -0.6099 -0.4677
   96MOL    H3611626   2.077   3.300   3.909  0.6086 -1.8617  0.4758
   96MOL    H3711627   1.962   3.392   3.679  1.0882 -0.0074 -2.8403
   96MOL    C3811628   1.939   3.184   3.724 -0.7057 -0.1838  0.1539
   96MOL    C3911629   1.815   3.211   3.818  0.3850 -0.6216 -0.6589
   96MOL    F4011630   1.743   3.313   3.769  0.0626 -0.3443  0.5652
   96MOL    H4111631   1.895   3.149   3.630  1.8165  1.9558 -1.9168
   96MOL    H4211632   2.006   3.109   3.765  2.2704  1.4197 -1.5941
   96MOL    H4311633   1.848   3.253   3.913  0.1357  2.7266 -2.0054
   96MOL    C4411634   1.724   3.091   3.843  0.7647 -0.7468  0.0714
   96MOL    C4511635   1.614   3.116   3.948  0.1039 -0.0589  0.0858
   96MOL    F4611636   1.673   3.131   4.063 -0.6202 -0.7207  0.0141
   96MOL    H4711637   1.681   3.071   3.745 -1.0957  2.2086  0.2185
   96MOL    H4811638   1.787   3.013   3.886  2.1577 -0.1528 -0.8171
   96MOL    H4911639   1.570   3.016   3.954  1.1257 -0.4722  0.8472
   96MOL    C5011640   1.509   3.223   3.918 -0.6188  0.5130  0.2561
   96MOL    C5111641   1.449   3.222   3.779 -0.1990  0.3808  0.3543
   96MOL    F5211642   1.384   3.104   3.760  0.2740 -0.0999 -0.1984
   96MOL    H5311643   1.446   3.224   4.007 -1.1912 -0.0064 -0.1337
   96MOL    H5411644   1.562   3.317   3.923 -1.3456  0.9433  0.0152
   96MOL    H5511645   1.521   3.238   3.698  1.0615  1.1763  1.6133
   96MOL    C5611646   1.330   3.323   3.759  0.3284  0.7794  0.0008
   96MOL    C5711647   1.346   3.461   3.812  0.2497 -0.1295 -0.2820
   96MOL    F5811648   1.458   3.504   3.760 -0.1279  0.1684  0.0879
   96MOL    H5911649   1.277   3.330   3.664  0.5467 -1.9129 -0.3748
   96MOL    H6011650   1.257   3.277   3.826  0.4282 -1.6464 -1.4744
   96MOL    H6111651   1.351   3.448   3.921  0.9001 -0.3918 -0.3403
   96MOL    C6211652   1.226   3.551   3.770 -0.0507 -0.1355 -0.6044
   96MOL    C6311653   1.101   3.532   3.860 -0.3623  0.2636  0.6480
   96MOL    F6411654   1.140   3.533   3.989  0.0912 -0.4090  0.5850
   96MOL    H6511655   1.261   3.654   3.785 -0.8763 -0.0924  1.1246
   96MOL    H6611656   1.192   3.544   3.667 -0.4556  1.6120 -0.6154
   96MOL    H6711657   1.064   3.430   3.849 -0.9149  0.4428  0.8296
   96MOL    C6811658   0.990   3.642   3.854  0.4227  0.1463  0.7214
   96MOL    C6911659   0.942   3.648   3.707  0.1783 -0.1987 -0.4697
   96MOL    F7011660   0.909   3.529   3.660  0.0889  0.2668  0.0284
   96MOL    H7111661   0.909   3.614   3.921 -0.1042 -0.8092 -0.3045
   96MOL    H7211662   1.024   3.740   3.888 -0.5173  0.9035 -0.4663
   96MOL    H7311663   1.024   3.691   3.650  2.7802 -2.2270  1.6122
   96MOL    C7411664   0.814   3.735   3.687 -0.4067 -0.8437  0.2626
   96MOL    C7511665   0.779   3.771   3.539 -0.1819  0.5727 -0.0606
   96MOL    F7611666   0.752   3.663   3.467  0.7027 -0.0637  0.3495
   96MOL    H7711667   0.732   3.682   3.736 -0.1635  1.1203  2.8479
   96MOL    H7811668   0.824   3.830   3.739 -0.6860 -0.1521 -0.9117
   96MOL    H7911669   0.866   3.811   3.487  0.6500 -1.0615  0.0311
   96MOL    C8011670   0.654   3.863   3.527 -0.3320 -0.5219  0.2797
   96MOL    C8111671   0.685   4.016   3.566  0.0811 -0.7681  0.0567
   96MOL    F8211672   0.796   4.055   3.505 -0.7482  0.0597  0.1669
   96MOL    H8311673   0.620   3.870   3.424 -0.7171  3.5133  0.5926
   96MOL    H8411674   0.576   3.830   3.595  0.0743 -0.5586  0.7338
   96MOL    H8511675   0.714   4.004   3.670  0.2405 -0.6183  0.0303
   96MOL    C8611676   0.568   4.115   3.556 -0.2563 -0.2066  0.2893
   96MOL    C8711677   0.504   4.106   3.413 -0.5008 -0.4602  0.2480
   96MOL    F8811678   0.421   4.001   3.402  0.2141 -0.6991  0.2436
   96MOL    H8911679   0.491   4.097   3.631  0.9496 -2.2742  1.0693
   96MOL    H9011680   0.612   4.213   3.577  0.0098 -0.0957 -0.7432
   96MOL    H9111681   0.584   4.072   3.348  0.1323  2.1442 -0.3888
   96MOL    C9211682   0.438   4.236   3.372 -1.0034  0.1126  0.3727
   96MOL    C9311683   0.315   4.280   3.445 -0.6533  0.4726  0.5059
   96MOL    F9411684   0.344   4.266   3.574 -0.1387 -0.2599 -0.3828
   96MOL    H9511685   0.503   4.323   3.380  0.0911 -0.6671  0.0563
   96MOL    H9611686   0.427   4.229   3.264 -0.5591 -2.4833  0.4622
   96MOL    H9711687   0.246   4.199   3.424  1.3140 -1.3692  0.9799
   96MOL    C9811688   0.258   4.411   3.393  0.8365  0.4631  0.5018
   96MOL    C9911689   0.125   4.451   3.462  0.0718  0.3505  0.3302
   96MOL   F10011690   0.084   4.564   3.414 -0.0045  0.0120 -0.3711
   96MOL   H10111691   0.331   4.486   3.423 -1.1221  2.6425 -0.0095
   96MOL   H10211692   0.263   4.416   3.284 -1.6489  0.0781  0.3371
   96MOL   H10311693   0.139   4.452   3.570 -0.5184 -2.1532  0.4555
   96MOL   C10411694   0.006   4.349   3.436 -0.1881  0.4438  0.6273
   96MOL   C10511695   7.876   4.407   3.485  0.0399 -0.4104  0.4397
   96MOL   F10611696   7.788   4.342   3.409 -0.3536 -0.0283  0.2073
   96MOL   H10711697   7.993   4.327   3.330  0.6724 -1.1725  0.8170
   96MOL   H10811698   0.030   4.251   3.478 -0.3663 -0.0566 -0.4127
   96MOL   H10911699   7.862   4.508   3.444  0.2098  0.1085  1.6520
   96MOL   C11011700   7.849   4.385   3.632 -0.0353  0.7459 -0.0975
   96MOL   C11111701   7.739   4.475   3.689 -0.1940 -0.3425 -0.1454
   96MOL   F11211702   7.644   4.491   3.596  0.1197  0.7976 -0.3509
   96MOL   H11311703   7.815   4.285   3.658  0.2601  0.3611 -1.1898
   96MOL   H11411704   7.933   4.388   3.700 -0.6741 -0.4170  0.7601
   96MOL   H11511705   7.782   4.574   3.694  0.2092 -0.4191 -1.6630
   96MOL   C11611706   7.675   4.422   3.816  0.4158 -0.3601  0.1836
   96MOL   C11711707   7.593   4.525   3.907  0.0138 -0.3635  0.5589
   96MOL   F11811708   7.562   4.474   4.025  0.3189 -0.0638  0.0871
   96MOL   H11911709   7.609   4.340   3.786  1.0654 -0.6386 -0.4940
   96MOL   H12011710   7.751   4.378   3.881  1.1608  0.7425  0.0693
   96MOL   H12111711   7.503   4.548   3.851  0.5884 -2.6529 -1.4025
   96MOL   H12211712   7.643   4.618   3.934  2.5453 -0.7728 -2.4239
   97MOL     C111713   4.025   7.607   3.560  0.1159 -0.2870 -0.0548
   97MOL     C211714   4.008   7.646   3.409  0.3666  0.8091 -0.0394
   97MOL     F311715   3.944   7.542   3.345  0.4028  0.4725  0.1477
   97MOL     H411716   4.059   7.699   3.608 -2.6819 -0.9199  3.3778
   97MOL     H511717   4.095   7.524   3.574 -0.4802 -0.4755  1.9676
   97MOL     H611718   4.110   7.649   3.371  0.6856 -2.0334  0.5174
   97MOL     H711719   3.929   7.581   3.605  0.7325 -4.2072 -0.7516
   97MOL     C811720   3.929   7.779   3.377 -0.7040  0.1647  0.3217
   97MOL     C911721   3.974   7.907   3.451 -0.6202  0.0396 -0.5818
   97MOL    F1011722   4.106   7.914   3.450 -0.3621  0.1856  0.0140
   97MOL    H1111723   3.949   7.799   3.272  1.7918 -0.9607  0.5577
   97MOL    H1211724   3.822   7.785   3.398 -1.2248  2.0711 -2.5956
   97MOL    H1311725   3.952   7.904   3.557 -1.0226 -0.2188 -0.6747
   97MOL    C1411726   3.916   0.032   3.391 -0.6123 -0.5357 -0.6979
   97MOL    C1511727   3.938   0.156   3.485  0.5022 -0.0946  0.5315
   97MOL    F1611728   3.883   0.269   3.432 -0.5072  0.0451 -0.2757
   97MOL    H1711729   3.963   0.042   3.293 -1.4020  2.8005 -0.8221
   97MOL    H1811730   3.812   0.016   3.364 -1.6703  1.1374  2.1746
   97MOL    H1911731   4.044   0.180   3.492  0.8933 -1.2718 -1.0305
   97MOL    C2011732   3.888   0.145   3.635 -0.0202 -0.4621 -1.1161
   97MOL    C2111733   3.747   0.105   3.659  0.5080 -0.0543  0.4064
   97MOL    F2211734   3.752   7.972   3.683 -0.1862  0.1789  0.3256
   97MOL    H2311735   3.957   0.085   3.693  0.7120  0.6988 -0.7867
   97MOL    H2411736   3.896   0.248   3.670 -0.4411 -1.3380  1.6002
   97MOL    H2511737   3.691   0.121   3.568  0.1927  0.4245  0.6812
   97MOL    C2611738   3.677   0.168   3.783  0.1895  0.4561 -0.7358
   97MOL    C2711739   3.586   0.291   3.754 -0.7335  0.5362 -0.0474
   97MOL    F2811740   3.474   0.252   3.697  0.1586  0.2779 -0.1483
   97MOL    H2911741   3.623   0.090   3.837 -0.0066  0.6524 -0.6478
   97MOL    H3011742   3.754   0.193   3.856  0.0266 -1.1768  0.0191
   97MOL    H3111743   3.633   0.367   3.692  1.2985  0.3620  1.2170
   97MOL    C3211744   3.535   0.350   3.892 -0.5925 -0.0342 -0.3101
   97MOL    C3311745   3.453   0.483   3.876  0.0676  0.6827  0.0222
   97MOL    F3411746   3.369   0.482   3.978  0.1616  0.1714 -0.3580
   97MOL    H3511747   3.475   0.270   3.935 -1.2434 -0.2291 -1.5593
   97MOL    H3611748   3.617   0.370   3.961 -0.4955 -1.0776 -0.1185
   97MOL    H3711749   3.387   0.458   3.793 -0.8726  0.5616  0.7984
   97MOL    C3811750   3.533   0.620   3.874  0.0605  1.0050 -0.1346
   97MOL    C3911751   3.619   0.638   3.748 -0.0565 -0.7016 -0.2546
   97MOL    F4011752   3.535   0.636   3.645 -0.3287  0.3501  0.2651
   97MOL    H4111753   3.458   0.695   3.899  1.7299  2.6316  0.0887
   97MOL    H4211754   3.594   0.623   3.965 -1.6167 -1.3665  1.1324
   97MOL    H4311755   3.693   0.559   3.740  0.2396 -0.4809  0.2869
   97MOL    C4411756   3.706   0.765   3.741  0.5882  0.1716  0.0254
   97MOL    C4511757   3.780   0.782   3.605 -0.6413  0.6661  0.6023
   97MOL    F4611758   3.867   0.882   3.628  0.1672  0.1902  0.0351
   97MOL    H4711759   3.635   0.848   3.746  0.1300 -0.1667 -0.7006
   97MOL    H4811760   3.770   0.773   3.828  1.1223  1.1703 -0.4507
   97MOL    H4911761   3.716   0.826   3.529 -2.0847  1.7657  2.3954
   97MOL    C5011762   3.870   0.673   3.549 -0.1495  0.3469 -0.1947
   97MOL    C5111763   3.979   0.627   3.646 -0.5032 -0.2104  0.2605
   97MOL    F5211764   3.924   0.561   3.745  0.2796 -0.2129  0.1083
   97MOL    H5311765   3.811   0.587   3.519 -0.7208  1.5420 -2.6332
   97MOL    H5411766   3.917   0.711   3.458 -3.8295  3.1820 -1.0070
   97MOL    H5511767   4.037   0.709   3.689  1.2722 -2.0439  1.4541
   97MOL    C5611768   4.058   0.521   3.583  0.1053 -0.7740 -0.2121
   97MOL    C5711769   4.196   0.490   3.650 -0.2582 -0.3927 -0.7881
   97MOL    F5811770   4.179   0.479   3.779 -0.4608 -0.0474 -0.8559
   97MOL    H5911771   3.995   0.433   3.571 -0.8684 -0.0525 -0.4781
   97MOL    H6011772   4.076   0.547   3.479 -1.5791  2.0932  0.1522
   97MOL    H6111773   4.264   0.574   3.638 -0.2578 -0.0922  1.1408
   97MOL    C6211774   4.264   0.363   3.599 -0.4579 -0.0645 -0.5033
   97MOL    C6311775   4.312   0.384   3.453 -0.0304  0.1819  0.5354
   97MOL    F6411776   4.404   0.483   3.452  0.0509  0.1970  0.0471
   97MOL    H6511777   4.353   0.345   3.659 -0.5637 -2.0119 -0.8927
   97MOL    H6611778   4.205   0.275   3.626  0.5734 -0.0351  2.0201
   97MOL    H6711779   4.230   0.423   3.392  0.2375 -1.8877 -1.1905
   97MOL    C6811780   4.355   0.267   3.376 -0.6134  0.8434 -0.4285
   97MOL    C6911781   4.358   0.283   3.224  0.1037  0.7672  0.6548
   97MOL    F7011782   4.453   0.368   3.185 -0.2735 -0.0771 -0.1473
   97MOL    H7111783   4.453   0.239   3.415 -0.6755 -0.5825 -1.2553
   97MOL    H7211784   4.290   0.185   3.408  0.2577 -0.0172 -0.8268
   97MOL    H7311785   4.268   0.332   3.188  0.7636  1.7075  0.2770
   97MOL    C7411786   4.396   0.152   3.152 -0.4443 -0.4231 -0.6198
   97MOL    C7511787   4.390   0.153   3.007  0.7909 -0.3145  0.5686
   97MOL    F7611788   4.465   0.058   2.962  0.0862  0.1269 -0.0240
   97MOL    H7711789   4.493   0.118   3.191 -0.4128  1.3231  0.8774
   97MOL    H7811790   4.318   0.083   3.185 -2.2814  2.0002  0.2883
   97MOL    H7911791   4.449   0.244   2.990  2.5296 -1.9100 -2.3576
   97MOL    C8011792   4.249   0.161   2.942 -0.3692 -0.2023  0.4010
   97MOL    C8111793   4.143   0.055   2.981  0.4139  0.8203  0.5544
   97MOL    F8211794   4.019   0.089   2.933 -0.9159  0.3990  0.4335
   97MOL    H8311795   4.190   0.252   2.958 -1.9177 -1.2917  1.0343
   97MOL    H8411796   4.266   0.160   2.835 -2.5043 -0.6774  0.0370
   97MOL    H8511797   4.135   0.038   3.088  1.8746 -1.1214  0.3856
   97MOL    C8611798   4.183   7.916   2.923  0.4392 -0.4762  0.0996
   97MOL    C8711799   4.264   7.827   3.012  0.7749  0.0271  0.4850
   97MOL    F8811800   4.202   7.807   3.129 -0.2805  0.0343 -0.1609
   97MOL    H8911801   4.096   7.866   2.881 -0.2145 -0.1355  1.0091
   97MOL    H9011802   4.238   7.928   2.830 -0.5832 -2.2403 -0.7434
   97MOL    H9111803   4.362   7.869   3.037  1.2328 -0.4576 -0.4673
   97MOL    C9211804   4.279   7.687   2.943  0.4156 -0.4626  0.7346
   97MOL    C9311805   4.396   7.683   2.847 -0.2406  0.2616 -0.3923
   97MOL    F9411806   4.508   7.714   2.920 -0.0415  0.2976  0.0892
   97MOL    H9511807   4.296   7.604   3.012  2.8175 -0.1233  0.5753
   97MOL    H9611808   4.187   7.663   2.889 -0.6046  2.8808  0.8674
   97MOL    H9711809   4.385   7.769   2.781 -0.2834 -0.1948 -0.9848
   97MOL    C9811810   4.404   7.555   2.758 -0.2929  0.1052  0.4068
   97MOL    C9911811   4.276   7.501   2.684 -0.2683  0.5852  0.6425
   97MOL   F10011812   4.249   7.587   2.584 -0.1269 -0.1389 -0.0460
   97MOL   H10111813   4.489   7.570   2.691  0.8852 -2.7918  1.1899
   97MOL   H10211814   4.438   7.473   2.821 -1.9788  0.5723  1.9706
   97MOL   H10311815   4.187   7.503   2.747  0.2495 -0.4180  1.4261
   97MOL   C10411816   4.306   7.363   2.631  0.1854  0.1726  0.0894
   97MOL   C10511817   4.184   7.298   2.557 -0.6095  0.0852  0.5357
   97MOL   F10611818   4.234   7.182   2.513 -0.3308  0.6278 -0.2467
   97MOL   H10711819   4.387   7.361   2.559 -0.2861 -1.6369 -0.4137
   97MOL   H10811820   4.327   7.303   2.719 -0.4784 -1.1376 -0.6419
   97MOL   H10911821   4.156   7.349   2.466  0.0300  0.3908  0.5062
   97MOL   C11011822   4.060   7.266   2.639  0.0449  0.2599  0.1219
   97MOL   C11111823   3.944   7.197   2.561  0.1971  0.2048 -0.0095
   97MOL   F11211824   3.852   7.166   2.651  0.2508 -0.1620  0.2187
   97MOL   H11311825   4.087   7.193   2.716 -1.7414 -2.3382 -1.6107
   97MOL   H11411826   4.023   7.356   2.688 -1.0571 -0.0325 -0.1573
   97MOL   H11511827   3.981   7.102   2.521  2.2429  0.9388  0.0866
   97MOL   C11611828   3.872   7.288   2.461  0.4373 -0.2520  0.4848
   97MOL   C11711829   3.821   7.426   2.517 -0.2642 -0.7389  0.3193
   97MOL   F11811830   3.927   7.503   2.533  0.3241  0.0049  0.0808
   97MOL   H11911831   3.950   7.295   2.385 -1.2846 -0.5526 -1.3622
   97MOL   H12011832   3.787   7.241   2.411 -0.5722 -0.3631  2.2694
   97MOL   H12111833   3.760   7.421   2.607 -1.2961 -0.1336 -0.3369
   97MOL   H12211834   3.761   7.481   2.444 -0.2043 -1.5994 -0.3925
   98MOL     C111835   3.651   0.404   0.323  0.0558  0.1106 -0.4589
   98MOL     C211836   3.550   0.526   0.309  0.3847 -0.0721  0.2434
   98MOL     F311837   3.556   0.563   0.179  0.2962 -0.0990 -0.4595
   98MOL     H411838   3.629   0.349   0.414  0.3409  0.1247 -0.3831
   98MOL     H511839   3.750   0.448   0.335  0.0735  0.2666 -1.1499
   98MOL     H611840   3.593   0.602   0.375  1.2812 -0.4248  0.0774
   98MOL     H711841   3.661   0.335   0.240  2.2644  0.1499 -0.2551
   98MOL     C811842   3.400   0.499   0.354 -0.4406 -0.0309 -0.1061
   98MOL     C911843   3.321   0.628   0.337 -0.2597 -0.2380  0.5239
   98MOL    F1011844   3.310   0.651   0.207 -0.3032  0.5898  0.2387
   98MOL    H1111845   3.356   0.424   0.289 -1.1934 -0.9155  1.4331
   98MOL    H1211846   3.389   0.473   0.459 -1.7813 -1.2106 -0.5354
   98MOL    H1311847   3.369   0.716   0.379  1.6319 -0.6655 -0.6912
   98MOL    C1411848   3.185   0.613   0.401  0.1733 -0.4672  0.1291
   98MOL    C1511849   3.111   0.745   0.384  0.3392 -0.0973  0.2141
   98MOL    F1611850   2.992   0.731   0.435  0.2972 -0.0027  0.3421
   98MOL    H1711851   3.124   0.535   0.356  0.5911  0.6048 -2.3462
   98MOL    H1811852   3.184   0.591   0.508 -4.1066  1.0108  0.4696
   98MOL    H1911853   3.110   0.774   0.279  1.2112 -1.3458 -0.1562
   98MOL    C2011854   3.189   0.851   0.463 -0.3811  0.0472  0.1811
   98MOL    C2111855   3.095   0.961   0.518 -0.1704 -0.5701  0.3295
   98MOL    F2211856   3.177   1.032   0.593 -0.1711  0.2026  0.2443
   98MOL    H2311857   3.244   0.805   0.545 -0.6265  1.0952  0.9506
   98MOL    H2411858   3.259   0.895   0.392 -0.1022  0.4066  0.6781
   98MOL    H2511859   3.025   0.908   0.583 -1.4784 -0.4512 -0.9494
   98MOL    C2611860   3.019   1.041   0.418 -0.4163 -0.5972  0.0532
   98MOL    C2711861   2.914   1.139   0.473 -0.7715 -0.5293  0.4757
   98MOL    F2811862   2.817   1.063   0.524 -0.4093 -0.2206  0.1355
   98MOL    H2911863   3.091   1.097   0.358  2.3735 -2.5119  1.5102
   98MOL    H3011864   2.977   0.991   0.331 -1.1322 -1.4606  0.8832
   98MOL    H3111865   2.873   1.199   0.392 -0.7864 -0.8376  0.2498
   98MOL    C3211866   2.970   1.225   0.585 -0.7489 -0.5363  0.0355
   98MOL    C3311867   3.089   1.317   0.539  0.0212 -0.6483 -0.1831
   98MOL    F3411868   3.050   1.388   0.438  0.7192 -0.3195 -0.1250
   98MOL    H3511869   2.883   1.274   0.627 -1.1102 -1.2682  0.1522
   98MOL    H3611870   2.995   1.159   0.667 -1.9455 -1.7079 -0.5158
   98MOL    H3711871   3.177   1.262   0.505  0.3049  0.6489 -1.5952
   98MOL    C3811872   3.139   1.416   0.645 -0.3975 -0.3684  0.0919
   98MOL    C3911873   3.230   1.352   0.750  0.7320  0.4572 -0.7814
   98MOL    F4011874   3.341   1.310   0.693  0.0669  0.4002  0.0352
   98MOL    H4111875   3.176   1.507   0.598 -1.6136  0.4138  0.6262
   98MOL    H4211876   3.046   1.454   0.688 -0.1555  0.7224 -0.3203
   98MOL    H4311877   3.191   1.254   0.777 -0.4016  0.3409 -2.7329
   98MOL    C4411878   3.260   1.449   0.871  0.1945  0.1486 -0.0741
   98MOL    C4511879   3.131   1.470   0.956  0.1983  1.0545 -0.0599
   98MOL    F4611880   3.094   1.347   0.992 -0.6577  0.1593  1.0463
   98MOL    H4711881   3.344   1.407   0.927  2.0517  0.7516 -2.3081
   98MOL    H4811882   3.281   1.547   0.829  2.7641  0.2859  1.4391
   98MOL    H4911883   3.041   1.505   0.905 -0.6105  0.7158  1.0974
   98MOL    C5011884   3.150   1.557   1.083 -0.4204  0.0795 -0.1324
   98MOL    C5111885   3.131   1.706   1.044  0.1762 -0.6861  0.2256
   98MOL    F5211886   2.998   1.721   1.034 -0.0549 -0.4382 -0.2597
   98MOL    H5311887   3.076   1.535   1.161 -0.3618 -1.1677 -0.4187
   98MOL    H5411888   3.247   1.546   1.131 -0.2305 -0.0528 -0.5489
   98MOL    H5511889   3.178   1.729   0.949 -0.9349 -0.8752 -0.3752
   98MOL    C5611890   3.186   1.806   1.148 -0.2320  1.2636  0.8174
   98MOL    C5711891   3.156   1.947   1.101 -0.0292  0.3098  0.6300
   98MOL    F5811892   3.153   2.018   1.211 -0.2835  0.2763  0.2349
   98MOL    H5911893   3.132   1.777   1.238  0.1247  0.0695  0.6581
   98MOL    H6011894   3.291   1.783   1.167  0.5941  0.0699 -4.3519
   98MOL    H6111895   3.060   1.949   1.050 -0.8602 -0.6965  2.1025
   98MOL    C6211896   3.258   2.004   0.999  0.3209 -0.0269 -0.8849
   98MOL    C6311897   3.219   2.133   0.924 -0.2801  0.1375 -1.1758
   98MOL    F6411898   3.104   2.125   0.853 -0.0333  0.1277  0.4965
   98MOL    H6511899   3.346   2.018   1.061 -1.0335  1.1318  0.8232
   98MOL    H6611900   3.296   1.936   0.923  0.6550 -0.8675  0.0282
   98MOL    H6711901   3.301   2.147   0.853  1.1418  1.4424  0.6619
   98MOL    C6811902   3.211   2.253   1.029  0.2706 -0.1549  0.7467
   98MOL    C6911903   3.183   2.392   0.960  0.1923  0.0743  0.3701
   98MOL    F7011904   3.055   2.406   0.941  0.7100  0.0832 -0.3145
   98MOL    H7111905   3.129   2.226   1.096 -2.2918 -1.8243 -2.8895
   98MOL    H7211906   3.301   2.256   1.090  1.9138 -0.6595 -1.5750
   98MOL    H7311907   3.223   2.404   0.859  1.2010  0.0790  0.7602
   98MOL    C7411908   3.236   2.509   1.044  0.1607 -0.0739 -0.2320
   98MOL    C7511909   3.229   2.657   0.994  0.3194  0.2869  0.0765
   98MOL    F7611910   3.100   2.691   0.965  0.4550  0.3326  0.2288
   98MOL    H7711911   3.203   2.495   1.147  1.1731 -0.8627 -0.0016
   98MOL    H7811912   3.342   2.489   1.061  0.6875  2.9480  0.2226
   98MOL    H7911913   3.285   2.657   0.900  0.5973  0.6296  0.2382
   98MOL    C8011914   3.292   2.773   1.079  0.1500 -0.9850  0.6240
   98MOL    C8111915   3.288   2.917   1.023 -0.5373 -0.1972 -0.8906
   98MOL    F8211916   3.172   2.944   0.973 -0.3042  0.1286  0.7913
   98MOL    H8311917   3.240   2.779   1.175  0.0960 -1.2018  0.6093
   98MOL    H8411918   3.393   2.746   1.109  0.9993  0.0134 -1.2952
   98MOL    H8511919   3.353   2.921   0.936 -0.8417 -2.0636 -1.2220
   98MOL    C8611920   3.332   3.023   1.130  0.2703 -0.1201 -0.4646
   98MOL    C8711921   3.484   3.014   1.170  0.2594 -0.0903 -0.1985
   98MOL    F8811922   3.537   3.071   1.058 -0.4493  0.7231  0.1603
   98MOL    H8911923   3.314   3.125   1.095  1.5156  0.8600  1.6445
   98MOL    H9011924   3.270   3.009   1.218 -1.4745 -0.9281 -1.7995
   98MOL    H9111925   3.520   2.912   1.179 -0.1105 -0.2417 -0.4342
   98MOL    C9211926   3.511   3.098   1.298 -0.8023 -0.0314 -0.0208
   98MOL    C9311927   3.658   3.087   1.353  0.6480 -0.5555 -0.7154
   98MOL    F9411928   3.750   3.122   1.254 -0.1204  0.0507 -0.0171
   98MOL    H9511929   3.497   3.202   1.266 -1.3846  0.3184  1.3512
   98MOL    H9611930   3.436   3.075   1.373 -0.2092 -0.8783  0.3168
   98MOL    H9711931   3.688   2.982   1.355  0.8020 -0.4896  3.1008
   98MOL    C9811932   3.679   3.140   1.495 -0.0314 -0.1076  0.1207
   98MOL    C9911933   3.690   3.287   1.511 -0.2036 -0.1341 -0.0175
   98MOL   F10011934   3.579   3.351   1.468 -0.1255 -0.2505 -0.0347
   98MOL   H10111935   3.591   3.109   1.551 -1.0003  1.9490 -0.2290
   98MOL   H10211936   3.767   3.091   1.538 -0.0724  1.7559  2.4127
   98MOL   H10311937   3.768   3.319   1.442  0.4563  0.5867  1.0548
   98MOL   C10411938   3.724   3.327   1.656  0.2542  0.7300 -0.1183
   98MOL   C10511939   3.786   3.467   1.663 -0.1010  0.0800  0.3916
   98MOL   F10611940   3.713   3.564   1.600 -0.1411 -0.5878 -0.1232
   98MOL   H10711941   3.639   3.308   1.723 -0.1866 -1.1986 -1.1860
   98MOL   H10811942   3.793   3.249   1.688  1.0688  1.8521  0.9059
   98MOL   H10911943   3.885   3.462   1.617  0.9552 -0.0254  2.6488
   98MOL   C11011944   3.791   3.510   1.808 -0.1219  0.3158  0.1971
   98MOL   C11111945   3.852   3.646   1.824 -0.4313 -0.3476 -0.3390
   98MOL   F11211946   3.870   3.653   1.959  0.2289 -0.3801  0.1378
   98MOL   H11311947   3.693   3.513   1.855  0.0272  1.1872  0.4595
   98MOL   H11411948   3.857   3.442   1.861 -2.5904 -1.6543  0.8452
   98MOL   H11511949   3.767   3.711   1.802 -1.2489 -0.4831  2.2124
   98MOL   C11611950   3.980   3.670   1.751  0.2236  0.7188  0.1731
   98MOL   C11711951   4.063   3.794   1.797  0.9205  0.9489  0.3540
   98MOL   F11811952   4.153   3.818   1.714 -0.1634 -0.3583 -0.1269
   98MOL   H11911953   4.032   3.579   1.779  1.5031  1.1796 -0.6547
   98MOL   H12011954   3.969   3.664   1.643  1.0987 -2.4959  0.2263
   98MOL   H12111955   4.112   3.776   1.893  1.6905 -2.0419 -0.5223
   98MOL   H12211956   4.006   3.885   1.811  0.2629  0.6934 -0.6178
   99MOL     C111957   7.193   2.814   1.089 -0.1743 -0.1091  0.4774
   99MOL     C211958   7.092   2.734   1.007 -0.2558 -0.7281 -0.1568
   99MOL     F311959   7.103   2.607   1.041 -1.0837  0.0189  0.1497
   99MOL     H411960   7.175   2.921   1.093  1.0009  0.1811 -1.2421
   99MOL     H511961   7.293   2.801   1.045  1.2354  0.1722  3.4699
   99MOL     H611962   7.106   2.750   0.900 -0.6969  0.1728 -0.0839
   99MOL     H711963   7.206   2.784   1.193  2.3187 -0.8253 -0.0018
   99MOL     C811964   6.946   2.761   1.043  0.8114 -0.2948 -0.1629
   99MOL     C911965   6.897   2.893   0.973 -0.1368 -0.0371  0.3878
   99MOL    F1011966   6.866   2.867   0.846  0.0447  0.4185  0.5522
   99MOL    H1111967   6.879   2.681   1.015 -0.5855  0.3947  1.1138
   99MOL    H1211968   6.941   2.778   1.151  0.2514  0.2132 -0.2653
   99MOL    H1311969   6.983   2.960   0.973 -1.3609  1.5802 -1.1877
   99MOL    C1411970   6.780   2.966   1.041  0.6655 -0.2429 -0.6885
   99MOL    C1511971   6.832   3.074   1.136 -1.1732  0.6100  0.2322
   99MOL    F1611972   6.894   3.165   1.061 -0.2258 -0.1558  0.1165
   99MOL    H1711973   6.727   3.007   0.954  0.1850 -1.4143 -0.9546
   99MOL    H1811974   6.708   2.896   1.083 -1.6820  2.3185 -0.2644
   99MOL    H1911975   6.902   3.034   1.209 -0.6973 -1.7207 -1.4600
   99MOL    C2011976   6.717   3.154   1.208 -0.2346 -0.8184  0.1262
   99MOL    C2111977   6.657   3.070   1.325 -0.3606 -0.2245  0.1500
   99MOL    F2211978   6.757   3.022   1.400 -0.7962 -0.6909  0.1086
   99MOL    H2311979   6.756   3.248   1.248  0.6694 -1.9744  2.0377
   99MOL    H2411980   6.634   3.181   1.142 -0.4211  2.0956  1.4614
   99MOL    H2511981   6.606   2.980   1.289 -0.1143 -0.4577  0.3750
   99MOL    C2611982   6.547   3.136   1.418 -0.6534  0.2382  0.5973
   99MOL    C2711983   6.596   3.263   1.486 -0.0393  1.1319  0.7469
   99MOL    F2811984   6.595   3.358   1.400 -0.2215 -0.3178  0.0402
   99MOL    H2911985   6.462   3.151   1.352 -0.0577  2.3831  0.2844
   99MOL    H3011986   6.516   3.061   1.491  1.0050 -0.0264  1.0546
   99MOL    H3111987   6.701   3.248   1.511  0.4328  1.9571 -0.6963
   99MOL    C3211988   6.506   3.300   1.601  0.5251 -0.1481 -0.7389
   99MOL    C3311989   6.568   3.416   1.687  0.5113 -0.6167 -0.3434
   99MOL    F3411990   6.588   3.514   1.603 -0.1830 -0.6428  0.1578
   99MOL    H3511991   6.410   3.334   1.563 -0.5203  0.5084  2.3402
   99MOL    H3611992   6.481   3.213   1.662  0.1855  1.0392  0.8568
   99MOL    H3711993   6.662   3.369   1.718  0.7490 -1.1366 -1.8261
   99MOL    C3811994   6.491   3.473   1.807  0.0857  0.6108 -0.6655
   99MOL    C3911995   6.558   3.591   1.878  0.1838 -0.4575 -0.4195
   99MOL    F4011996   6.466   3.633   1.971 -0.2257  0.3172  0.4321
   99MOL    H4111997   6.386   3.496   1.788 -0.3541 -1.0549 -0.3285
   99MOL    H4211998   6.483   3.383   1.867  1.5750 -0.0373 -1.4238
   99MOL    H4311999   6.580   3.674   1.810  2.5050  0.1445  0.9998
   99MOL    C4412000   6.695   3.569   1.948 -0.1399 -0.0197 -0.7450
   99MOL    C4512001   6.702   3.433   2.027 -0.2010 -0.1580 -0.3541
   99MOL    F4612002   6.703   3.323   1.947  0.0359 -0.4977  0.2384
   99MOL    H4712003   6.776   3.567   1.875  0.6277 -0.2424  0.1138
   99MOL    H4812004   6.718   3.644   2.023 -0.2987  0.5205 -1.2250
   99MOL    H4912005   6.614   3.411   2.087  0.3999 -0.7855  0.3144
   99MOL    C5012006   6.829   3.432   2.113  0.5673 -0.7110  0.5081
   99MOL    C5112007   6.850   3.314   2.201 -0.2535 -0.1610 -0.5339
   99MOL    F5212008   6.743   3.308   2.282 -0.3031  0.4143  0.0822
   99MOL    H5312009   6.922   3.441   2.057 -0.0005 -1.0748 -0.5006
   99MOL    H5412010   6.819   3.519   2.178 -1.7181 -2.2092  2.2249
   99MOL    H5512011   6.940   3.337   2.258 -0.9905  0.0983  0.5349
   99MOL    C5612012   6.884   3.180   2.126  0.1726 -0.4800 -0.2137
   99MOL    C5712013   6.997   3.189   2.028 -0.8158  0.2093  0.9065
   99MOL    F5812014   7.102   3.250   2.085 -0.6249 -0.4845  0.0029
   99MOL    H5912015   6.915   3.115   2.208 -0.1077 -0.2239  0.0985
   99MOL    H6012016   6.796   3.130   2.085 -0.1785 -0.5197  0.5722
   99MOL    H6112017   6.965   3.244   1.941  0.6364 -0.0237  0.2048
   99MOL    C6212018   7.032   3.051   1.969 -0.0618  0.0170 -0.2630
   99MOL    C6312019   7.154   3.037   1.878  0.5712 -0.5334 -0.0029
   99MOL    F6412020   7.178   2.915   1.834  0.0267 -0.2930 -0.7234
   99MOL    H6512021   7.052   2.985   2.054 -1.6279 -1.0920 -0.7307
   99MOL    H6612022   6.953   2.990   1.926  1.4945 -1.0402 -1.7170
   99MOL    H6712023   7.249   3.059   1.927  0.4524  1.4296 -0.5801
   99MOL    C6812024   7.156   3.122   1.747 -0.2517  0.1237  0.0371
   99MOL    C6912025   7.041   3.087   1.651 -0.3225 -0.1576  0.0210
   99MOL    F7012026   6.927   3.136   1.695 -0.1034  0.3181  0.1476
   99MOL    H7112027   7.161   3.226   1.779  1.0188  0.0836 -0.0085
   99MOL    H7212028   7.250   3.094   1.700 -0.3736  0.5746 -0.4738
   99MOL    H7312029   7.024   2.980   1.634  0.9240 -0.3028 -0.3094
   99MOL    C7412030   7.068   3.143   1.507 -0.1248 -0.5326 -0.4211
   99MOL    C7512031   7.172   3.059   1.418 -0.4293  0.5359 -0.0215
   99MOL    F7612032   7.117   2.960   1.359 -0.8727  0.4971  0.1459
   99MOL    H7712033   6.985   3.176   1.446  1.7262  2.6205 -1.3444
   99MOL    H7812034   7.126   3.233   1.527  0.3878 -1.3070  1.6854
   99MOL    H7912035   7.252   3.022   1.482 -0.1681  0.0683 -0.6182
   99MOL    C8012036   7.239   3.137   1.306  0.1476  0.2699 -0.3564
   99MOL    C8112037   7.338   3.248   1.347 -0.3533  0.1898 -0.0167
   99MOL    F8212038   7.424   3.199   1.433  0.6076  0.1630  0.6878
   99MOL    H8312039   7.291   3.084   1.226  1.0907  1.1512 -0.3354
   99MOL    H8412040   7.154   3.189   1.260 -1.5613 -1.7022  0.4603
   99MOL    H8512041   7.288   3.327   1.403  0.3133  0.2013  0.5756
   99MOL    C8612042   7.422   3.294   1.223  0.3466  0.6289 -0.7647
   99MOL    C8712043   7.517   3.413   1.255  0.7273  0.5147 -0.2303
   99MOL    F8812044   7.612   3.418   1.152  0.1011  0.1040  0.1650
   99MOL    H8912045   7.489   3.211   1.197  0.1354  0.5888 -1.1869
   99MOL    H9012046   7.354   3.302   1.138  0.3682  0.7836 -0.7668
   99MOL    H9112047   7.570   3.410   1.350 -1.5117 -0.8978  0.9988
   99MOL    C9212048   7.441   3.546   1.252  0.0836 -0.5729  0.4195
   99MOL    C9312049   7.532   3.672   1.247 -0.3859  0.1068 -0.3367
   99MOL    F9412050   7.615   3.683   1.139  0.2421  0.4207  0.3419
   99MOL    H9512051   7.384   3.539   1.159 -0.9168  2.6994  0.7394
   99MOL    H9612052   7.375   3.543   1.338  0.7134  1.5950  1.0101
   99MOL    H9712053   7.590   3.670   1.339 -0.2151 -1.4912 -0.4735
   99MOL    C9812054   7.445   3.794   1.241  0.3299 -0.2646 -0.5632
   99MOL    C9912055   7.352   3.810   1.353  0.2040  0.1064  0.8203
   99MOL   F10012056   7.429   3.829   1.454  0.0011  0.3049 -0.3740
   99MOL   H10112057   7.503   3.886   1.231 -1.3471  0.8280 -0.4639
   99MOL   H10212058   7.392   3.796   1.145  0.0404  0.2516 -0.3934
   99MOL   H10312059   7.280   3.731   1.372  1.0468 -0.8029  0.2771
   99MOL   C10412060   7.255   3.934   1.350 -0.1456  0.1648  0.1716
   99MOL   C10512061   7.177   3.943   1.216 -0.2366 -0.1683 -1.0411
   99MOL   F10612062   7.083   3.844   1.209 -0.1324 -0.2531  0.1394
   99MOL   H10712063   7.190   3.925   1.437  0.8649 -1.9702  0.7501
   99MOL   H10812064   7.303   4.031   1.357  2.0117 -0.8781  0.2171
   99MOL   H10912065   7.241   3.925   1.129  0.8198 -0.4449 -0.2132
   99MOL   C11012066   7.103   4.081   1.212  0.6611  0.0251 -1.2788
   99MOL   C11112067   7.022   4.110   1.080 -0.2774 -0.0865 -0.0115
   99MOL   F11212068   6.958   4.224   1.097 -0.4891 -0.0704 -0.1040
   99MOL   H11312069   7.044   4.106   1.300  0.2770  0.2774 -1.6093
   99MOL   H11412070   7.184   4.154   1.216  2.0940 -1.4902 -1.9853
   99MOL   H11512071   6.950   4.027   1.080 -0.0725 -0.2879 -1.5249
   99MOL   C11612072   7.095   4.098   0.944 -0.6445  0.2172 -0.5126
   99MOL   C11712073   7.001   4.099   0.821 -0.0059  0.3191 -0.3750
   99MOL   F11812074   6.935   3.980   0.825  0.8588  0.2866  0.5669
   99MOL   H11912075   7.175   4.172   0.935 -0.2613 -0.0712  0.4675
   99MOL   H12012076   7.139   3.999   0.950  0.9093  0.9267  0.1722
   99MOL   H12112077   7.048   4.121   0.725 -0.2911 -0.4639 -0.6959
   99MOL   H12212078   6.924   4.176   0.815  0.6249  1.0403  0.5877
  100MOL     C112079   1.560   2.149   3.178 -0.4214  0.1762  0.1314
  100MOL     C212080   1.486   2.250   3.268  0.2440  1.1252  0.0040
  100MOL     F312081   1.504   2.218   3.398  0.3525  0.3872 -0.2173
  100MOL     H412082   1.520   2.158   3.077  0.4014 -1.2568 -0.3523
  100MOL     H512083   1.542   2.045   3.207  0.4752 -0.4259 -1.3839
  100MOL     H612084   1.379   2.236   3.247  0.5887 -0.8018 -0.5652
  100MOL     H712085   1.666   2.174   3.169 -0.4521 -0.0210 -0.8973
  100MOL     C812086   1.529   2.396   3.258  0.4178  0.0314 -0.3058
  100MOL     C912087   1.413   2.497   3.289  0.8706  0.4703 -0.1171
  100MOL    F1012088   1.354   2.481   3.408 -0.3306 -0.0193 -0.2906
  100MOL    H1112089   1.628   2.402   3.305  0.5983  0.2585 -0.7100
  100MOL    H1212090   1.541   2.413   3.151  1.7870  0.4828 -0.0988
  100MOL    H1312091   1.344   2.478   3.207  0.4457 -0.8733  0.5439
  100MOL    C1412092   1.465   2.650   3.297 -0.4329 -0.2781 -0.5222
  100MOL    C1512093   1.495   2.698   3.158  0.1175  0.2728  0.0880
  100MOL    F1612094   1.389   2.691   3.081  0.4449 -0.4428 -0.5784
  100MOL    H1712095   1.386   2.708   3.345 -0.7127  0.2510 -1.6194
  100MOL    H1812096   1.555   2.667   3.356 -0.6664  0.9850 -0.5054
  100MOL    H1912097   1.571   2.632   3.116 -0.4142  0.1082 -0.6350
  100MOL    C2012098   1.544   2.846   3.156 -0.2200  0.4706  0.1954
  100MOL    C2112099   1.583   2.899   3.014 -0.2894 -0.3751 -0.5139
  100MOL    F2212100   1.574   3.036   3.031  0.5430 -0.5285  0.2516
  100MOL    H2312101   1.467   2.910   3.200 -1.1501 -0.0128 -0.7151
  100MOL    H2412102   1.630   2.847   3.223  0.3629 -1.9467 -0.4829
  100MOL    H2512103   1.513   2.865   2.938 -0.1273 -0.2952 -0.6980
  100MOL    C2612104   1.726   2.873   2.978  0.0452 -0.5671  0.0130
  100MOL    C2712105   1.776   2.939   2.845 -0.1711  0.0976  0.4424
  100MOL    F2812106   1.687   2.899   2.753 -0.2310  0.5675  0.2131
  100MOL    H2912107   1.779   2.919   3.061 -3.0230  0.8965  1.2193
  100MOL    H3012108   1.744   2.766   2.974  1.9530 -0.2519 -0.3412
  100MOL    H3112109   1.867   2.887   2.814 -0.3825 -2.2675  3.4497
  100MOL    C3212110   1.788   3.095   2.846 -0.2156 -0.4020 -0.0180
  100MOL    C3312111   1.865   3.155   2.967 -0.4845 -0.1697 -0.1853
  100MOL    F3412112   1.988   3.100   2.978  0.3737 -0.2349  0.3598
  100MOL    H3512113   1.841   3.112   2.753  0.6193 -0.9783  0.3462
  100MOL    H3612114   1.685   3.133   2.844  0.0067  0.3004  1.0885
  100MOL    H3712115   1.806   3.143   3.057  0.1695 -0.3680  0.2223
  100MOL    C3812116   1.893   3.318   2.958  0.2397  0.9779  0.1189
  100MOL    C3912117   1.994   3.366   2.852 -0.0628  0.3083 -0.2229
  100MOL    F4012118   1.953   3.369   2.722 -0.0831  0.3273 -0.3665
  100MOL    H4112119   1.803   3.377   2.940  0.1465  0.6712 -0.4576
  100MOL    H4212120   1.926   3.359   3.053  0.9481 -1.4821  0.9797
  100MOL    H4312121   2.088   3.310   2.854 -1.0093 -1.2761  2.6906
  100MOL    C4412122   2.045   3.511   2.875  0.2533 -0.9163 -0.0232
  100MOL    C4512123   2.154   3.524   2.990  0.1957  0.7798  0.8664
  100MOL    F4612124   2.260   3.452   2.953  0.0651 -0.1095 -0.2533
  100MOL    H4712125   2.078   3.544   2.776 -1.5254  0.7067 -0.1157
  100MOL    H4812126   1.968   3.581   2.909 -0.2720 -1.8395  0.7087
  100MOL    H4912127   2.116   3.476   3.080 -0.2314 -0.7339 -0.0999
  100MOL    C5012128   2.195   3.668   3.006  0.3012 -0.0324  0.0166
  100MOL    C5112129   2.318   3.704   3.092 -0.2540  0.0548  0.3374
  100MOL    F5212130   2.415   3.629   3.042  0.2756  0.1100 -0.0007
  100MOL    H5312131   2.229   3.695   2.907 -0.6910 -1.6408 -0.7841
  100MOL    H5412132   2.116   3.742   3.020  0.6146  0.6207 -1.6309
  100MOL    H5512133   2.307   3.679   3.197 -1.3326 -1.2157 -0.0550
  100MOL    C5612134   2.342   3.851   3.064 -0.3664 -0.0843  0.5250
  100MOL    C5712135   2.473   3.909   3.130  0.5262 -0.4292  0.0363
  100MOL    F5812136   2.486   4.039   3.095 -0.3604 -0.2368  0.0119
  100MOL    H5912137   2.353   3.867   2.957  0.0607 -3.2367  0.0413
  100MOL    H6012138   2.252   3.905   3.092 -1.4404 -0.8294 -1.3874
  100MOL    H6112139   2.554   3.849   3.089  2.2639  0.3522  2.2687
  100MOL    C6212140   2.468   3.920   3.280 -0.7825  0.0381 -0.7815
  100MOL    C6312141   2.588   3.989   3.353 -0.0210  0.0151  0.4302
  100MOL    F6412142   2.568   3.970   3.490 -0.0735  0.0438 -0.2544
  100MOL    H6512143   2.385   3.984   3.310 -0.5680  0.1988 -0.5233
  100MOL    H6612144   2.452   3.820   3.322  0.8523  0.2400  0.3650
  100MOL    H6712145   2.581   4.096   3.336 -1.7216 -0.0220  0.8411
  100MOL    C6812146   2.733   3.942   3.317  0.0650  0.3160 -0.5544
  100MOL    C6912147   2.843   4.042   3.345  0.3759 -0.1332  0.1004
  100MOL    F7012148   2.827   4.144   3.259 -0.0294 -0.3723 -0.4266
  100MOL    H7112149   2.742   3.848   3.371 -0.3211  0.1502 -0.7796
  100MOL    H7212150   2.745   3.913   3.213 -2.5007  1.6800 -1.2785
  100MOL    H7312151   2.935   3.992   3.315  1.8806  1.7022  1.5139
  100MOL    C7412152   2.849   4.099   3.489  0.1047  0.2166 -0.0475
  100MOL    C7512153   2.986   4.168   3.523  0.1470  0.1551  0.5370
  100MOL    F7612154   3.007   4.270   3.443  0.7091 -0.3580  0.2660
  100MOL    H7712155   2.782   4.184   3.493  0.1660  0.4140 -2.2354
  100MOL    H7812156   2.823   4.031   3.570  0.8834  2.2392  1.9211
  100MOL    H7912157   3.063   4.091   3.516  0.8220  0.8929 -0.2083
  100MOL    C8012158   2.984   4.224   3.667  0.1176 -0.2320 -0.2520
  100MOL    C8112159   3.109   4.297   3.716  0.1764 -0.8366 -0.0572
  100MOL    F8212160   3.124   4.411   3.644 -0.2969 -0.0178 -0.1693
  100MOL    H8312161   2.897   4.288   3.682  0.3460  0.8483 -3.0635
  100MOL    H8412162   2.981   4.140   3.736  1.0993  1.2653  1.6486
  100MOL    H8512163   3.201   4.244   3.689 -0.7860 -1.8849 -1.3825
  100MOL    C8612164   3.111   4.322   3.865 -0.3409 -0.3000  0.7199
  100MOL    C8712165   3.247   4.362   3.928  0.0725  0.5070  0.5867
  100MOL    F8812166   3.206   4.417   4.049  0.0948  0.0780 -0.0933
  100MOL    H8912167   3.033   4.396   3.889  0.7604  0.6014  1.5755
  100MOL    H9012168   3.083   4.229   3.914 -2.1343  0.8652  1.9747
  100MOL    H9112169   3.294   4.440   3.868  1.5508  0.1944  1.3060
  100MOL    C9212170   3.340   4.247   3.948 -0.1676 -0.0777 -0.0807
  100MOL    C9312171   3.439   4.252   4.070  0.3967  1.0006 -0.3343
  100MOL    F9412172   3.497   4.128   4.061  0.1573 -0.3780  0.0333
  100MOL    H9512173   3.284   4.154   3.952  1.2337 -0.9252 -0.1186
  100MOL    H9612174   3.391   4.213   3.858  0.1846 -1.1365  0.5145
  100MOL    H9712175   3.378   4.234   4.158  1.6908 -0.1371  0.3510
  100MOL    C9812176   3.534   4.375   4.077  0.2675  0.3709 -0.1107
  100MOL    C9912177   3.625   4.371   4.201 -0.4481 -0.1622  0.2861
  100MOL   F10012178   3.549   4.337   4.309  0.1272  0.8863 -0.2536
  100MOL   H10112179   3.601   4.387   3.992  1.2655  1.4272  0.8111
  100MOL   H10212180   3.462   4.457   4.071  0.2530  0.3291 -0.5458
  100MOL   H10312181   3.651   4.472   4.231 -0.7784  0.0787 -0.2172
  100MOL   C10412182   3.746   4.279   4.190  0.7587  0.0158  0.0257
  100MOL   C10512183   3.870   4.333   4.101  0.1405  0.0440  0.0872
  100MOL   F10612184   3.908   4.454   4.150 -0.1715  0.0349  0.2034
  100MOL   H10712185   3.789   4.264   4.289 -0.4820 -1.9192  0.3022
  100MOL   H10812186   3.722   4.176   4.166 -0.9433  0.3032  0.3796
  100MOL   H10912187   3.833   4.343   3.999 -0.5148 -2.1536  0.0812
  100MOL   C11012188   3.988   4.248   4.099 -0.0740 -0.5415 -0.0541
  100MOL   C11112189   4.102   4.302   4.019  0.3496  0.0680 -0.1695
  100MOL   F11212190   4.207   4.225   4.045 -0.2825  0.5394  0.1640
  100MOL   H11312191   4.022   4.231   4.201 -1.9639  0.2277  0.7201
  100MOL   H11412192   3.956   4.146   4.075 -2.0079 -0.0055  0.1950
  100MOL   H11512193   4.120   4.408   4.034  0.1415  0.3535 -1.8736
  100MOL   C11612194   4.096   4.276   3.872 -0.3153  0.5252  0.5600
  100MOL   C11712195   4.200   4.344   3.786 -0.0001  0.4014  0.0165
  100MOL   F11812196   4.182   4.478   3.774 -0.3186  0.0335  0.3445
  100MOL   H11912197   4.108   4.171   3.849 -1.4914  0.2989  0.9328
  100MOL   H12012198   3.999   4.299   3.826 -0.4401  0.8960  1.0051
  100MOL   H12112199   4.208   4.310   3.683  1.6620 -0.9802  0.5676
  100MOL   H12212200   4.295   4.338   3.838  0.8491 -0.1382 -1.5740
  101MOL     C112201   7.200   6.849   3.440  0.2238 -0.2999  0.4882
  101MOL     C212202   7.154   6.984   3.384  0.7173  0.1845  0.0352
  101MOL     F312203   7.109   7.048   3.491 -0.3025  0.2869 -0.0545
  101MOL     H412204   7.234   6.784   3.360  2.8394  2.9496 -1.1237
  101MOL     H512205   7.116   6.810   3.500 -0.6053 -0.3900 -0.7131
  101MOL     H612206   7.062   6.977   3.326  1.0661 -1.2270 -0.3892
  101MOL     H712207   7.289   6.856   3.502 -0.3584  2.0693  1.0822
  101MOL     C812208   7.267   7.054   3.307  0.1745  0.4147  0.3939
  101MOL     C912209   7.217   7.157   3.203  0.5146 -0.1976 -0.2987
  101MOL    F1012210   7.160   7.264   3.253  0.3843  0.1355  0.5164
  101MOL    H1112211   7.342   7.097   3.373  4.9772 -2.3697 -2.8780
  101MOL    H1212212   7.320   6.975   3.252 -1.1005 -0.1477 -0.0511
  101MOL    H1312213   7.132   7.109   3.155  0.2611  1.2351 -1.3033
  101MOL    C1412214   7.320   7.188   3.096 -0.4912  0.8920 -0.4931
  101MOL    C1512215   7.261   7.258   2.971  0.1545  0.7099  0.8000
  101MOL    F1612216   7.237   7.380   3.023  0.0952 -0.1702 -0.1951
  101MOL    H1712217   7.405   7.251   3.123 -1.6505  2.5852 -0.6586
  101MOL    H1812218   7.368   7.100   3.055  0.8656 -0.0599  2.9443
  101MOL    H1912219   7.163   7.220   2.941  0.5370 -0.4422  0.9812
  101MOL    C2012220   7.352   7.256   2.850 -0.2703  0.2848  0.7507
  101MOL    C2112221   7.334   7.139   2.761 -0.4414 -0.0401 -0.0719
  101MOL    F2212222   7.213   7.117   2.708  0.4327  0.4975 -0.5069
  101MOL    H2312223   7.328   7.350   2.801 -0.1217  0.0465  0.2096
  101MOL    H2412224   7.455   7.254   2.886 -0.7689 -1.5338  2.1116
  101MOL    H2512225   7.359   7.049   2.817  0.1566  0.0001 -0.2693
  101MOL    C2612226   7.436   7.151   2.647 -0.1725 -0.1239  0.5595
  101MOL    C2712227   7.454   7.012   2.579 -0.3594  0.5096 -0.5215
  101MOL    F2812228   7.351   7.005   2.495  0.2261 -0.2197 -0.0319
  101MOL    H2912229   7.389   7.223   2.580  2.3926 -0.3984 -1.6532
  101MOL    H3012230   7.533   7.192   2.676 -0.5370  0.3748  1.0538
  101MOL    H3112231   7.457   6.930   2.650  0.1320  1.8388  1.0391
  101MOL    C3212232   7.587   7.020   2.489 -0.5307  0.3103  0.5227
  101MOL    C3312233   7.616   6.905   2.386 -0.9046  0.3967  0.3563
  101MOL    F3412234   7.708   6.950   2.298  0.0183  0.8290  0.3836
  101MOL    H3512235   7.567   7.110   2.431  0.1388  0.6147  0.7705
  101MOL    H3612236   7.663   7.040   2.565 -1.1685  2.6597  0.5693
  101MOL    H3712237   7.522   6.887   2.333 -1.8653  1.3989  1.6958
  101MOL    C3812238   7.657   6.770   2.452 -0.0558  0.0245 -0.4014
  101MOL    C3912239   7.762   6.769   2.568 -0.0211  0.0120 -0.7637
  101MOL    F4012240   7.704   6.808   2.686  0.2507  0.2442 -0.0795
  101MOL    H4112241   7.559   6.724   2.467  0.9237 -1.6884  0.8431
  101MOL    H4212242   7.700   6.706   2.375  5.8669  0.2752  2.4415
  101MOL    H4312243   7.847   6.830   2.539  0.5099 -0.8641 -1.0814
  101MOL    C4412244   7.816   6.623   2.593  0.2252 -0.1802  0.5913
  101MOL    C4512245   7.891   6.601   2.727  0.4374  0.7040 -0.0323
  101MOL    F4612246   7.899   6.470   2.740 -0.1895  0.1748 -0.0759
  101MOL    H4712247   7.728   6.566   2.619 -1.1393  1.8791  0.6364
  101MOL    H4812248   7.871   6.591   2.505  0.1733  1.5793 -0.0953
  101MOL    H4912249   7.834   6.623   2.818 -0.7334 -1.2358 -0.2674
  101MOL    C5012250   0.024   6.666   2.740 -0.0793 -0.4934  0.5553
  101MOL    C5112251   0.125   6.618   2.633 -0.4479  0.3343  0.5387
  101MOL    F5212252   0.229   6.693   2.656 -0.9020 -0.4785  0.1085
  101MOL    H5312253   0.010   6.772   2.719 -0.7910 -0.7240 -0.1652
  101MOL    H5412254   0.080   6.662   2.833  1.5761  0.6889 -0.3593
  101MOL    H5512255   0.094   6.637   2.531 -0.2833 -0.9633  0.2363
  101MOL    C5612256   0.178   6.475   2.653  0.1307 -1.0137 -0.1717
  101MOL    C5712257   0.326   6.460   2.607  0.4728 -0.0001  0.5838
  101MOL    F5812258   0.349   6.330   2.646 -0.0550  0.4856 -0.2806
  101MOL    H5912259   0.162   6.435   2.753  0.2673  0.0199  0.2764
  101MOL    H6012260   0.121   6.406   2.592  1.2075 -0.7576 -1.4889
  101MOL    H6112261   0.392   6.520   2.668 -1.0559  0.8883  1.4070
  101MOL    C6212262   0.355   6.462   2.454  0.1744  0.1576 -0.1051
  101MOL    C6312263   0.503   6.444   2.413  0.5646  0.3078  0.0563
  101MOL    F6412264   0.530   6.411   2.287  0.1049 -0.4333  0.0838
  101MOL    H6512265   0.298   6.387   2.400  0.9523  0.4652 -1.3760
  101MOL    H6612266   0.314   6.554   2.412  1.2028  0.5603 -0.2371
  101MOL    H6712267   0.544   6.360   2.469 -0.8038 -1.9250 -2.1433
  101MOL    C6812268   0.585   6.568   2.436  0.5926 -0.4697 -0.1716
  101MOL    C6912269   0.726   6.565   2.376 -0.6203 -0.4942  0.2148
  101MOL    F7012270   0.780   6.677   2.413 -0.2459 -0.1471  0.2707
  101MOL    H7112271   0.526   6.659   2.424 -0.5905 -1.0906  0.7173
  101MOL    H7212272   0.595   6.572   2.545  1.7158 -1.8433 -0.2105
  101MOL    H7312273   0.721   6.564   2.267 -0.6781 -1.0860  0.2227
  101MOL    C7412274   0.812   6.444   2.424  0.5246 -0.1563 -0.1413
  101MOL    C7512275   0.951   6.456   2.370  0.2679  0.3241 -0.5057
  101MOL    F7612276   1.023   6.383   2.450 -0.2816 -0.2951 -0.2041
  101MOL    H7712277   0.819   6.441   2.533 -0.1555 -1.2695 -0.1269
  101MOL    H7812278   0.775   6.346   2.393  0.9713 -0.6169  0.7743
  101MOL    H7912279   0.987   6.557   2.392 -1.1245  0.4256  1.4032
  101MOL    C8012280   0.972   6.422   2.220 -1.0080 -0.6354  0.4462
  101MOL    C8112281   0.918   6.286   2.179 -0.2014  0.0994 -0.3439
  101MOL    F8212282   0.782   6.292   2.185 -0.0037  0.7305  0.8931
  101MOL    H8312283   0.927   6.496   2.154  0.8006  0.3884  0.3253
  101MOL    H8412284   1.079   6.425   2.200 -1.3338  0.1607 -1.2645
  101MOL    H8512285   0.956   6.213   2.251 -0.9370  2.3059  2.3913
  101MOL    C8612286   0.973   6.248   2.047  0.1391  0.6200  1.5819
  101MOL    C8712287   0.973   6.098   2.004 -0.3397 -1.1500  0.0807
  101MOL    F8812288   1.092   6.050   2.026  0.1400 -0.2022 -0.3423
  101MOL    H8912289   0.910   6.302   1.977  0.6194  0.1736  0.7875
  101MOL    H9012290   1.073   6.286   2.024  0.4890 -0.7724  0.7200
  101MOL    H9112291   0.954   6.104   1.897 -2.6099  1.0902  0.5494
  101MOL    C9212292   0.873   6.008   2.075  0.4411 -0.4698  0.2934
  101MOL    C9312293   0.734   6.041   2.010 -0.0575 -0.0779  0.0709
  101MOL    F9412294   0.736   5.997   1.884 -0.2597 -0.2883 -0.0780
  101MOL    H9512295   0.910   5.910   2.044  0.6519 -0.2676 -0.0917
  101MOL    H9612296   0.868   6.018   2.184  0.9649  0.1557  0.2601
  101MOL    H9712297   0.714   6.148   1.999  0.0363  0.2743  2.9067
  101MOL    C9812298   0.625   5.970   2.088 -0.2466  0.6604 -0.1511
  101MOL    C9912299   0.486   6.004   2.048 -0.3248  0.6357  0.6249
  101MOL   F10012300   0.467   5.974   1.917  0.0742 -0.2678 -0.2202
  101MOL   H10112301   0.634   5.861   2.084  0.1698  0.7332 -1.4038
  101MOL   H10212302   0.643   5.983   2.195  2.7950 -0.8582 -0.4071
  101MOL   H10312303   0.480   6.112   2.061  0.8546  0.4456  2.9381
  101MOL   C10412304   0.371   5.931   2.116  0.6622 -0.7678 -0.0463
  101MOL   C10512305   0.329   5.975   2.249  0.7759 -0.4461  0.5207
  101MOL   F10612306   0.286   6.102   2.250  0.4170 -0.1824  0.1672
  101MOL   H10712307   0.290   5.937   2.043 -0.5643 -1.3570  1.2613
  101MOL   H10812308   0.404   5.828   2.130  1.8168 -0.5697 -1.1356
  101MOL   H10912309   0.401   5.978   2.330 -0.6837  1.2666  1.8060
  101MOL   C11012310   0.199   5.900   2.291 -0.0642 -0.3010 -0.2022
  101MOL   C11112311   0.159   5.913   2.442 -0.0716  0.5147 -0.1894
  101MOL   F11212312   0.265   5.884   2.512 -0.8639 -0.0388 -0.1080
  101MOL   H11312313   0.115   5.934   2.230 -0.0236 -0.6318 -0.4449
  101MOL   H11412314   0.215   5.797   2.259 -3.1398 -0.5392 -1.1936
  101MOL   H11512315   0.086   5.834   2.458  0.9061 -0.5226 -0.8015
  101MOL   C11612316   0.109   6.047   2.491  0.5044  0.7900  0.4931
  101MOL   C11712317   0.092   6.056   2.649 -0.3465 -0.5627 -0.0593
  101MOL   F11812318   0.034   6.162   2.685 -0.0432  0.3386 -0.6031
  101MOL   H11912319   0.182   6.125   2.471  1.9502  0.1860  3.2163
  101MOL   H12012320   0.012   6.068   2.446  1.7125  1.2741 -1.9324
  101MOL   H12112321   0.187   6.046   2.702 -0.5322  0.7177  0.5297
  101MOL   H12212322   0.031   5.974   2.688  0.2878 -1.5076 -1.0214
  102MOL     C112323   5.933   4.935   1.049  0.4680  0.2004 -0.6622
  102MOL     C212324   5.804   4.859   1.062 -0.3794  0.2189 -0.8567
  102MOL     F312325   5.832   4.753   1.133  0.4916 -0.1848 -0.1204
  102MOL     H412326   5.945   4.984   1.145 -2.0730  0.5283 -0.4777
  102MOL     H512327   5.935   5.008   0.968  2.2963  0.1495 -0.6899
  102MOL     H612328   5.759   4.828   0.967 -1.3320 -2.6437  0.4734
  102MOL     H712329   6.018   4.867   1.049 -0.6989 -1.2993 -0.6172
  102MOL     C812330   5.704   4.947   1.137  1.2084  0.5383 -0.6660
  102MOL     C912331   5.649   5.068   1.057  0.5544  0.4737 -0.1914
  102MOL    F1012332   5.583   5.023   0.950  0.4425 -0.1156  0.5887
  102MOL    H1112333   5.625   4.879   1.169  0.9620  1.4315  0.6511
  102MOL    H1212334   5.744   4.974   1.235 -0.3100  0.8736 -0.1224
  102MOL    H1312335   5.734   5.127   1.022 -0.5278  0.9998 -1.9373
  102MOL    C1412336   5.555   5.155   1.152  0.3407  0.3731 -0.6182
  102MOL    C1512337   5.621   5.225   1.267  1.0960 -0.0808 -0.4470
  102MOL    F1612338   5.732   5.298   1.223  0.5342  0.2694 -0.2319
  102MOL    H1712339   5.526   5.236   1.085 -0.2936  0.7960  0.1625
  102MOL    H1812340   5.463   5.103   1.179  0.0503  1.5779  0.7652
  102MOL    H1912341   5.647   5.151   1.343  0.8128 -1.1727 -1.3973
  102MOL    C2012342   5.515   5.321   1.329 -0.5899  0.3949 -0.4795
  102MOL    C2112343   5.553   5.391   1.457  0.0860  0.2186  0.2180
  102MOL    F2212344   5.461   5.481   1.467 -0.2178 -0.4987 -0.3561
  102MOL    H2312345   5.495   5.402   1.259  0.4500 -0.0135 -1.2627
  102MOL    H2412346   5.425   5.266   1.357 -0.2340  1.1490  2.2808
  102MOL    H2512347   5.645   5.446   1.439 -1.3236  2.6454  0.2490
  102MOL    C2612348   5.540   5.300   1.580  0.0854 -0.3662 -0.5793
  102MOL    C2712349   5.602   5.357   1.715 -0.1383 -0.2705  0.2505
  102MOL    F2812350   5.737   5.352   1.705  0.3406 -0.4266 -0.1756
  102MOL    H2912351   5.431   5.300   1.591  0.2271 -0.6904  1.0949
  102MOL    H3012352   5.564   5.196   1.556 -2.6194 -1.1983  0.0816
  102MOL    H3112353   5.574   5.297   1.801 -2.0207  1.2802  0.7628
  102MOL    C3212354   5.573   5.508   1.755 -0.5090 -0.0680  0.4892
  102MOL    C3312355   5.430   5.535   1.783  0.2418 -0.5541  0.4624
  102MOL    F3412356   5.395   5.457   1.893  0.1271  0.1934 -0.4890
  102MOL    H3512357   5.639   5.533   1.838  0.8493 -0.7401 -0.3671
  102MOL    H3612358   5.609   5.571   1.674 -0.2663  0.9956  1.4180
  102MOL    H3712359   5.369   5.504   1.698  0.1821 -0.3824  0.4423
  102MOL    C3812360   5.404   5.683   1.819 -0.1635 -0.1923  0.5160
  102MOL    C3912361   5.391   5.765   1.695 -0.3649  0.6540 -0.3732
  102MOL    F4012362   5.299   5.714   1.615 -0.2901  0.0843  0.2146
  102MOL    H4112363   5.303   5.689   1.862  0.8692  1.5014  2.8124
  102MOL    H4212364   5.481   5.717   1.888  1.8549 -0.1954 -1.7101
  102MOL    H4312365   5.486   5.771   1.641 -0.4011 -0.0120 -0.5224
  102MOL    C4412366   5.335   5.904   1.727  0.7084  0.5236 -0.2430
  102MOL    C4512367   5.426   5.987   1.814 -0.0359  0.3753  0.7274
  102MOL    F4612368   5.552   5.985   1.770  0.7793 -0.0125  0.2024
  102MOL    H4712369   5.333   5.955   1.630  1.6852  1.6641  0.3184
  102MOL    H4812370   5.233   5.908   1.764  0.1488 -0.2556 -1.6411
  102MOL    H4912371   5.430   5.929   1.906  1.9292 -1.0436 -0.2129
  102MOL    C5012372   5.383   6.130   1.834 -0.7898 -0.4073 -0.7244
  102MOL    C5112373   5.232   6.156   1.877  0.1872  0.0584 -0.3322
  102MOL    F5212374   5.217   6.104   1.992  0.0155 -0.4331 -0.2074
  102MOL    H5312375   5.451   6.172   1.908 -0.9184 -0.3903 -0.6149
  102MOL    H5412376   5.412   6.187   1.746  1.2765  2.2900  1.6194
  102MOL    H5512377   5.156   6.104   1.819  0.3821 -1.1256  0.4505
  102MOL    C5612378   5.205   6.304   1.883  0.3919 -0.4407 -0.6795
  102MOL    C5712379   5.068   6.327   1.953 -0.1925 -0.1493  0.8791
  102MOL    F5812380   5.064   6.447   2.008 -0.6878 -0.1110  0.6340
  102MOL    H5912381   5.279   6.370   1.929 -0.4306 -0.7060  1.0639
  102MOL    H6012382   5.204   6.338   1.779 -0.0891 -1.5831 -1.0519
  102MOL    H6112383   5.053   6.263   2.039  0.6952 -0.5635  0.7327
  102MOL    C6212384   4.952   6.306   1.853  0.3109 -0.1840 -0.6925
  102MOL    C6312385   4.805   6.330   1.905  0.3548 -0.0637  0.1022
  102MOL    F6412386   4.803   6.464   1.923  0.2642 -0.3473 -0.1086
  102MOL    H6512387   4.973   6.354   1.757  1.2039 -1.9013 -1.3867
  102MOL    H6612388   4.958   6.203   1.816  2.4546  0.1959 -1.4701
  102MOL    H6712389   4.807   6.304   2.011  0.5318  0.6350  0.2744
  102MOL    C6812390   4.698   6.291   1.798 -0.2000 -0.5440  0.5051
  102MOL    C6912391   4.716   6.349   1.651  0.3415  0.0340  0.6784
  102MOL    F7012392   4.818   6.288   1.586 -0.7675 -0.0440 -0.0533
  102MOL    H7112393   4.706   6.183   1.799 -0.5145 -0.6067 -1.2973
  102MOL    H7212394   4.602   6.318   1.842  1.2074  0.5307  3.0006
  102MOL    H7312395   4.743   6.454   1.660  0.2744  0.3845 -2.5378
  102MOL    C7412396   4.578   6.348   1.581  0.0054 -0.5051  0.3737
  102MOL    C7512397   4.584   6.421   1.445 -0.6205 -0.8148  0.6999
  102MOL    F7612398   4.475   6.384   1.385  0.0007 -0.7201  0.4198
  102MOL    H7712399   4.568   6.244   1.551  0.8368 -0.1930 -1.0554
  102MOL    H7812400   4.494   6.379   1.643 -1.4905  0.7494 -2.2180
  102MOL    H7912401   4.663   6.371   1.391 -1.4216 -1.6659  0.2959
  102MOL    C8012402   4.587   6.575   1.457 -0.6546  0.0669  0.8208
  102MOL    C8112403   4.708   6.636   1.397 -0.6017 -0.1274 -0.0350
  102MOL    F8212404   4.811   6.590   1.464 -0.3226 -0.2888 -0.2003
  102MOL    H8312405   4.504   6.622   1.404 -1.0995 -0.2658  1.2175
  102MOL    H8412406   4.574   6.599   1.562 -1.3003 -1.0654  1.0027
  102MOL    H8512407   4.720   6.742   1.422  0.3416 -0.3372  0.4076
  102MOL    C8612408   4.730   6.634   1.245 -0.0520 -0.1568  0.0027
  102MOL    C8712409   4.632   6.719   1.164  0.7368 -0.2435 -0.5612
  102MOL    F8812410   4.597   6.836   1.220 -0.2826 -0.2267 -0.0641
  102MOL    H8912411   4.833   6.663   1.224  0.2069 -0.8628  0.2994
  102MOL    H9012412   4.725   6.530   1.212 -0.1739  0.5733 -2.3817
  102MOL    H9112413   4.539   6.661   1.159  0.0957  0.4544  2.3519
  102MOL    C9212414   4.686   6.749   1.022  0.7693  0.0870 -0.2063
  102MOL    C9312415   4.722   6.624   0.937  0.0882  0.3730  0.9618
  102MOL    F9412416   4.616   6.542   0.943 -0.5385  0.0191 -0.1717
  102MOL    H9512417   4.608   6.801   0.966  0.1948  2.1429  2.4076
  102MOL    H9612418   4.762   6.827   1.035  0.7475  0.5342 -2.6049
  102MOL    H9712419   4.816   6.577   0.968  0.1820 -0.6540 -0.8482
  102MOL    C9812420   4.743   6.655   0.781 -0.1968 -0.8657 -0.1205
  102MOL    C9912421   4.820   6.531   0.709 -0.0079 -0.1406 -0.6155
  102MOL   F10012422   4.742   6.420   0.693 -0.4422 -0.3234 -0.2989
  102MOL   H10112423   4.649   6.670   0.728 -0.1406 -1.5346 -0.4204
  102MOL   H10212424   4.802   6.746   0.785  1.6619 -2.0488  0.0905
  102MOL   H10312425   4.904   6.502   0.772  0.4391 -1.7151 -1.9061
  102MOL   C10412426   4.895   6.558   0.580 -0.0089 -0.1155 -0.6056
  102MOL   C10512427   4.819   6.598   0.453  0.3483  0.3545  0.3874
  102MOL   F10612428   4.888   6.670   0.363 -0.3222 -0.9775 -0.0401
  102MOL   H10712429   4.975   6.631   0.597 -0.9944  0.3867  2.3137
  102MOL   H10812430   4.960   6.473   0.560 -0.6366 -1.0913  1.3998
  102MOL   H10912431   4.733   6.660   0.479  0.4644  0.7745 -0.2154
  102MOL   C11012432   4.772   6.471   0.366  0.3753  0.4253 -0.2998
  102MOL   C11112433   4.637   6.495   0.287 -0.0363  0.0147 -0.0958
  102MOL   F11212434   4.619   6.382   0.206  0.1888  0.1447  0.0488
  102MOL   H11312435   4.851   6.459   0.292  0.9689 -0.1726  0.4257
  102MOL   H11412436   4.775   6.389   0.438  1.8930  0.9089  0.1978
  102MOL   H11512437   4.640   6.584   0.224  1.6902  0.5352  0.6894
  102MOL   C11612438   4.517   6.509   0.378  0.0062 -0.0051  0.2368
  102MOL   C11712439   4.393   6.529   0.297 -0.3252  0.5608 -0.2424
  102MOL   F11812440   4.398   6.644   0.226  0.2620  0.1111  0.1559
  102MOL   H11912441   4.502   6.417   0.433 -1.1250 -0.0899 -0.2157
  102MOL   H12012442   4.525   6.592   0.449 -1.4060  1.6057 -1.4475
  102MOL   H12112443   4.300   6.548   0.350 -1.8214  0.6666 -2.8376
  102MOL   H12212444   4.367   6.441   0.237  1.5895 -0.6075  0.5781
  103MOL     C112445   1.169   4.308   6.473 -1.2959 -0.3804 -0.4101
  103MOL     C212446   1.054   4.257   6.387 -0.6249 -0.0626  0.6291
  103MOL     F312447   1.103   4.210   6.269  0.0467 -0.3259 -0.1057
  103MOL     H412448   1.205   4.228   6.538 -2.2793 -0.4856  0.0098
  103MOL     H512449   1.137   4.388   6.539 -1.0482 -1.3237  0.8794
  103MOL     H612450   0.986   4.334   6.352 -1.0017 -1.2302 -1.2749
  103MOL     H712451   1.248   4.348   6.410 -1.9392 -2.5155 -2.6609
  103MOL     C812452   0.963   4.162   6.470 -0.2581  0.4966  0.8759
  103MOL     C912453   0.840   4.121   6.393  0.6059  0.0415 -0.0162
  103MOL    F1012454   0.867   4.034   6.300  0.3706 -0.3007 -0.9040
  103MOL    H1112455   1.023   4.082   6.512 -1.0147 -0.5815 -0.0775
  103MOL    H1212456   0.921   4.209   6.559  0.4812  0.8775  1.0236
  103MOL    H1312457   0.790   4.207   6.349  0.0149  0.3587  1.2292
  103MOL    C1412458   0.731   4.050   6.477 -0.3801  0.8025  0.3355
  103MOL    C1512459   0.615   3.993   6.409  0.0008  0.0322  0.7661
  103MOL    F1612460   0.551   3.923   6.504  0.1577  0.6834  0.4051
  103MOL    H1712461   0.778   3.972   6.536 -0.9399  0.5146  0.3972
  103MOL    H1812462   0.695   4.120   6.552  0.4367  0.8521  0.6896
  103MOL    H1912463   0.650   3.916   6.340  0.6352 -0.4943  1.6703
  103MOL    C2012464   0.514   4.095   6.349 -0.6095 -0.6256 -0.5051
  103MOL    C2112465   0.383   4.047   6.286  0.5201  0.0244  0.3844
  103MOL    F2212466   0.422   3.983   6.180 -0.0895 -0.3358  0.7834
  103MOL    H2312467   0.496   4.181   6.414  1.6853 -0.0392 -0.6069
  103MOL    H2412468   0.566   4.139   6.264 -1.6151  2.5383  0.4369
  103MOL    H2512469   0.340   4.138   6.244 -1.0198  0.1006  2.0739
  103MOL    C2612470   0.287   3.951   6.359 -0.4255 -0.2299 -0.8791
  103MOL    C2712471   0.223   4.024   6.484 -0.4618 -0.0209  0.1267
  103MOL    F2812472   0.136   4.105   6.432  0.4607 -1.2498 -0.4089
  103MOL    H2912473   0.203   3.923   6.297 -1.3636  1.4758 -0.4327
  103MOL    H3012474   0.342   3.861   6.387 -0.4554  0.7521  2.6740
  103MOL    H3112475   0.303   4.084   6.529 -0.7647  2.0801 -2.0415
  103MOL    C3212476   0.162   3.930   6.590 -0.5486  0.4090 -0.4350
  103MOL    C3312477   0.256   3.846   6.675 -0.4749  0.0691  0.6357
  103MOL    F3412478   0.344   3.924   6.747  0.4167 -0.6640 -0.2329
  103MOL    H3512479   0.100   3.991   6.657  1.7452  3.7220 -1.1896
  103MOL    H3612480   0.099   3.864   6.530 -0.3542 -1.2488  1.1415
  103MOL    H3712481   0.313   3.786   6.605  2.3206  1.3374  1.7668
  103MOL    C3812482   0.177   3.761   6.771  0.3533 -0.0957 -0.0343
  103MOL    C3912483   0.248   3.637   6.830  0.2297 -0.1721 -0.1963
  103MOL    F4012484   0.331   3.586   6.738  0.4877  0.2137 -0.0312
  103MOL    H4112485   0.136   3.830   6.845 -1.7349 -0.6830 -0.6053
  103MOL    H4212486   0.087   3.724   6.722  0.2505  0.1129 -0.0027
  103MOL    H4312487   0.182   3.557   6.865 -1.7557  1.2748 -0.5171
  103MOL    C4412488   0.343   3.675   6.938 -0.1826 -0.0563 -0.5879
  103MOL    C4512489   0.274   3.720   7.068  0.3701  0.2825 -0.5071
  103MOL    F4612490   0.219   3.618   7.133  0.2782  0.7043  0.4279
  103MOL    H4712491   0.413   3.595   6.960 -0.0347  0.3498  0.4435
  103MOL    H4812492   0.411   3.752   6.902 -0.0708  1.0426  1.8757
  103MOL    H4912493   0.189   3.780   7.038 -0.0498 -0.2038 -0.2966
  103MOL    C5012494   0.355   3.811   7.161 -0.8474  0.6311 -0.0576
  103MOL    C5112495   0.375   3.953   7.108 -0.6781  1.2194  0.1881
  103MOL    F5212496   0.255   4.012   7.102 -0.6794 -0.1263  0.4449
  103MOL    H5312497   0.306   3.818   7.258 -0.1516 -1.7522  0.4939
  103MOL    H5412498   0.453   3.766   7.182 -0.5227  0.2881 -2.2242
  103MOL    H5512499   0.423   3.955   7.010  1.8673  0.5044  1.3609
  103MOL    C5612500   0.467   4.036   7.204 -0.3425  0.3606 -0.2231
  103MOL    C5712501   0.502   4.177   7.155  0.5664  0.0305 -0.4983
  103MOL    F5812502   0.545   4.250   7.257 -0.2331  0.2013 -0.1300
  103MOL    H5912503   0.420   4.033   7.302 -1.2782  2.2361 -0.6003
  103MOL    H6012504   0.560   3.980   7.215  0.0414  0.5145 -2.4760
  103MOL    H6112505   0.423   4.231   7.102  1.1134  1.4338  0.0896
  103MOL    C6212506   0.618   4.169   7.052 -0.0386 -0.6678  0.2532
  103MOL    C6312507   0.649   4.298   6.975  0.8763 -0.1554 -0.3669
  103MOL    F6412508   0.668   4.403   7.053  0.5972  0.2148 -0.2059
  103MOL    H6512509   0.710   4.134   7.099  0.6000 -0.7852 -1.0713
  103MOL    H6612510   0.597   4.090   6.980 -0.0342  0.5264 -1.0693
  103MOL    H6712511   0.553   4.317   6.928  0.9098  0.8778 -0.0421
  103MOL    C6812512   0.765   4.284   6.860  0.1323 -0.0023 -0.1422
  103MOL    C6912513   0.789   4.414   6.779 -0.2486  0.0700 -0.4751
  103MOL    F7012514   0.910   4.397   6.716 -0.1110  0.2969  0.4916
  103MOL    H7112515   0.854   4.253   6.913  0.8860  2.1342 -0.1115
  103MOL    H7212516   0.737   4.205   6.790  0.5089 -0.6590  0.4450
  103MOL    H7312517   0.788   4.507   6.836  1.3652 -0.6488  0.7652
  103MOL    C7412518   0.677   4.436   6.672  1.0777 -0.5185 -0.4012
  103MOL    C7512519   0.705   4.544   6.566 -0.1053  0.2984  0.0505
  103MOL    F7612520   0.826   4.537   6.517 -0.1028 -0.6872 -0.0332
  103MOL    H7712521   0.660   4.341   6.622 -0.5441 -1.3507  1.6676
  103MOL    H7812522   0.579   4.463   6.710 -0.2058 -0.8785 -3.3513
  103MOL    H7912523   0.700   4.641   6.616 -1.6010  0.0012  0.4769
  103MOL    C8012524   0.604   4.545   6.448 -0.2267 -0.9685 -0.2726
  103MOL    C8112525   0.623   4.664   6.351 -0.6296  0.0521  0.8236
  103MOL    F8212526   0.551   4.651   6.245  0.5331  0.1079 -0.2902
  103MOL    H8312527   0.617   4.446   6.405 -0.2263 -1.3513  0.5988
  103MOL    H8412528   0.508   4.527   6.495  0.5275 -0.3692  1.5552
  103MOL    H8512529   0.728   4.675   6.322 -1.3436  2.1765 -1.0332
  103MOL    C8612530   0.585   4.800   6.415  0.3019 -0.0270  0.2301
  103MOL    C8712531   0.455   4.802   6.495 -0.0368 -0.4109 -0.1551
  103MOL    F8812532   0.461   4.742   6.616 -0.0848 -0.1665  0.2034
  103MOL    H8912533   0.671   4.827   6.477  1.2143 -0.8363 -0.6805
  103MOL    H9012534   0.586   4.874   6.335  3.2871  0.6309  0.8030
  103MOL    H9112535   0.375   4.745   6.449 -0.0349  1.2667 -2.3255
  103MOL    C9212536   0.382   4.939   6.525  0.0277 -0.4129  0.6235
  103MOL    C9312537   0.466   5.038   6.615 -0.0098  0.0511 -0.1247
  103MOL    F9412538   0.571   5.082   6.543 -0.3880 -0.2578 -0.2469
  103MOL    H9512539   0.354   4.986   6.431  0.8736 -0.8938  0.1212
  103MOL    H9612540   0.291   4.924   6.583  0.3091 -0.6871  0.9991
  103MOL    H9712541   0.515   4.980   6.693  1.8775 -0.6123 -1.7356
  103MOL    C9812542   0.384   5.155   6.678  0.4055 -0.0917  0.4543
  103MOL    C9912543   0.466   5.242   6.773  0.5876  0.4210  0.2657
  103MOL   F10012544   0.415   5.363   6.791 -0.0598 -0.2348  0.1858
  103MOL   H10112545   0.358   5.219   6.594  0.6303 -3.5663 -2.3506
  103MOL   H10212546   0.285   5.122   6.712 -1.0825  1.8386 -1.8749
  103MOL   H10312547   0.566   5.258   6.732 -0.3319  3.1234 -1.0548
  103MOL   C10412548   0.486   5.172   6.905  0.1616  0.2357  0.6066
  103MOL   C10512549   0.582   5.244   6.995  0.3248  0.9824 -0.6881
  103MOL   F10612550   0.581   5.182   7.114  0.7707  0.3101 -0.3681
  103MOL   H10712551   0.391   5.146   6.952  0.4051 -1.9397 -0.0274
  103MOL   H10812552   0.523   5.070   6.893 -2.1678 -0.5451 -0.1159
  103MOL   H10912553   0.542   5.343   7.015  0.1387  1.0670 -1.4639
  103MOL   C11012554   0.729   5.270   6.951 -0.7099 -0.3259  0.5547
  103MOL   C11112555   0.806   5.129   6.924  0.4110 -0.3290  0.8070
  103MOL   F11212556   0.781   5.085   6.801 -0.4400 -0.0616 -0.1478
  103MOL   H11312557   0.734   5.323   6.856 -2.6998  0.7842  1.0436
  103MOL   H11412558   0.781   5.333   7.023  1.2357 -3.2411  1.7977
  103MOL   H11512559   0.771   5.053   6.994 -0.8796  1.2373  1.9008
  103MOL   C11612560   0.964   5.130   6.936 -0.0408 -0.5998 -0.5959
  103MOL   C11712561   1.030   5.167   7.071 -0.4222  0.7323  0.2068
  103MOL   F11812562   1.052   5.295   7.073 -0.1037  0.1952  0.3067
  103MOL   H11912563   0.988   5.025   6.915  0.4444 -0.4672 -0.7241
  103MOL   H12012564   1.003   5.187   6.851  1.3144 -0.8724 -0.1650
  103MOL   H12112565   1.125   5.114   7.079 -0.3508  0.1906 -3.3561
  103MOL   H12212566   0.969   5.151   7.160  0.4865  0.2662  0.7492
  104MOL     C112567   7.248   3.373   0.487 -0.3969 -0.2836 -0.1027
  104MOL     C212568   7.196   3.459   0.371 -0.1098  0.6724  0.3059
  104MOL     F312569   7.209   3.592   0.405  0.4546  0.1554  0.3427
  104MOL     H412570   7.257   3.273   0.445 -0.1831  0.6373 -2.3364
  104MOL     H512571   7.181   3.380   0.572 -0.1777  0.1996  0.0336
  104MOL     H612572   7.091   3.436   0.351 -0.2940  1.8042 -0.1132
  104MOL     H712573   7.348   3.408   0.515 -1.2255  1.3357  0.9132
  104MOL     C812574   7.261   3.430   0.238 -0.8361 -0.4994  0.4213
  104MOL     C912575   7.204   3.491   0.108 -0.5019  0.5464  0.2314
  104MOL    F1012576   7.276   3.438   0.007  0.2574 -0.5391  0.0176
  104MOL    H1112577   7.365   3.462   0.236 -1.3540  1.3889  1.8793
  104MOL    H1212578   7.249   3.322   0.230 -0.6144 -0.5656  0.9783
  104MOL    H1312579   7.221   3.599   0.103  0.2839  0.3898 -0.6864
  104MOL    C1412580   7.057   3.471   0.073 -0.5218  0.3947  0.4490
  104MOL    C1512581   7.017   3.324   0.042 -0.1724 -0.2567  0.5436
  104MOL    F1612582   6.995   3.257   0.158 -0.6593  0.2514 -0.2070
  104MOL    H1712583   6.989   3.508   0.150  0.2978 -1.3473  2.0523
  104MOL    H1812584   7.032   3.528   7.986  1.4379  0.2006 -0.2390
  104MOL    H1912585   7.091   3.270   7.987 -2.0001 -1.7196 -0.4984
  104MOL    C2012586   6.880   3.300   7.974 -0.5045  0.0015 -0.0823
  104MOL    C2112587   6.841   3.164   7.938  0.0318 -0.1993 -0.1049
  104MOL    F2212588   6.723   3.159   7.886 -0.1501 -0.3546  0.1269
  104MOL    H2312589   6.802   3.345   0.033 -1.0935 -0.7166 -0.2904
  104MOL    H2412590   6.885   3.359   7.882  4.0526  2.2083  1.4602
  104MOL    H2512591   6.830   3.107   0.027  0.9369  0.9125  0.7104
  104MOL    C2612592   6.934   3.112   7.827 -0.2055 -0.1369 -0.3687
  104MOL    C2712593   6.905   2.958   7.806  0.2049  0.4410  0.1997
  104MOL    F2812594   6.963   2.928   7.684 -0.1499 -0.5340  0.1113
  104MOL    H2912595   6.906   3.165   7.736  0.2317  0.4494 -0.1652
  104MOL    H3012596   7.039   3.129   7.851 -0.9887  2.3985  1.4754
  104MOL    H3112597   6.798   2.948   7.788  0.0758 -1.7240  1.9664
  104MOL    C3212598   6.963   2.861   7.915  0.1621  0.5580  0.5349
  104MOL    C3312599   7.107   2.874   7.961  0.1829 -0.7930  0.3320
  104MOL    F3412600   7.127   2.784   0.059  0.4878 -0.6757  0.4490
  104MOL    H3512601   6.900   2.874   8.003  1.0717  0.3635  1.2183
  104MOL    H3612602   6.946   2.759   7.879 -1.5506  0.5430  1.3413
  104MOL    H3712603   7.111   2.968   0.013 -1.6407 -1.0753  0.9861
  104MOL    C3812604   7.213   2.869   7.853  0.5435 -0.3634  0.9093
  104MOL    C3912605   7.351   2.822   7.900 -0.4806  0.3884 -0.1605
  104MOL    F4012606   7.432   2.805   7.801  0.5021 -0.8636 -0.0923
  104MOL    H4112607   7.178   2.799   7.777  0.0053 -0.1027  0.9100
  104MOL    H4212608   7.224   2.957   7.789 -0.8988  0.8316  2.2664
  104MOL    H4312609   7.341   2.720   7.935  0.0369 -0.1721 -1.5867
  104MOL    C4412610   7.424   2.896   0.009 -0.2339 -0.1941  0.2460
  104MOL    C4512611   7.485   3.028   7.969 -0.1475  0.9901 -0.0679
  104MOL    F4612612   7.382   3.112   7.966 -0.0323  0.3285  0.0903
  104MOL    H4712613   7.361   2.903   0.098 -0.3010 -1.2918  0.2889
  104MOL    H4812614   7.501   2.833   0.054  0.6880  0.8737  0.1951
  104MOL    H4912615   7.526   3.021   7.868  0.5383 -0.5949  0.2962
  104MOL    C5012616   7.583   3.087   0.068  0.4928 -0.0807 -1.0614
  104MOL    C5112617   7.617   3.236   0.041  0.4020 -0.4266  0.9596
  104MOL    F5212618   7.712   3.269   0.128  0.3024  0.2237 -0.4862
  104MOL    H5312619   7.541   3.086   0.169 -0.3721 -0.4689 -1.4208
  104MOL    H5412620   7.668   3.018   0.070  0.5361 -0.0070 -0.0149
  104MOL    H5512621   7.536   3.303   0.068 -1.5865 -2.4807  0.3010
  104MOL    C5612622   7.653   3.277   7.901 -0.3866 -0.2850  1.1216
  104MOL    C5712623   7.690   3.427   7.872  0.2230 -0.2951 -0.0913
  104MOL    F5812624   7.583   3.503   7.898 -0.5809  0.1709 -0.1149
  104MOL    H5912625   7.725   3.206   7.862  0.7329  0.6728  1.4193
  104MOL    H6012626   7.567   3.251   7.839  0.4284 -0.4404  0.0490
  104MOL    H6112627   7.704   3.448   7.765 -1.7449  1.7494  0.0084
  104MOL    C6212628   7.818   3.472   7.944 -0.5227 -0.2179  0.5133
  104MOL    C6312629   7.858   3.620   7.934 -0.8903  0.5408  0.3301
  104MOL    F6412630   7.880   3.643   7.807 -0.6229  0.2855 -0.1197
  104MOL    H6512631   7.821   3.445   0.046  2.3739  0.7081  0.7195
  104MOL    H6612632   7.899   3.412   7.901  0.4211  1.2635  0.1687
  104MOL    H6712633   7.956   3.645   7.975 -1.6320  3.7560  0.2512
  104MOL    C6812634   7.767   3.732   7.985 -0.3002  0.0386 -0.2095
  104MOL    C6912635   7.764   3.738   0.135 -0.1230 -0.3068 -0.1531
  104MOL    F7012636   7.885   3.761   0.184 -0.4525 -0.2552 -0.3991
  104MOL    H7112637   7.794   3.831   7.948 -2.8429  1.5526  1.7993
  104MOL    H7212638   7.664   3.714   7.954  0.0911 -0.7357 -1.0788
  104MOL    H7312639   7.724   3.643   0.170  1.7928 -1.6906 -1.6532
  104MOL    C7412640   7.668   3.849   0.185  0.1572  0.1573 -0.3047
  104MOL    C7512641   7.523   3.817   0.171 -0.4396  0.3341 -0.2856
  104MOL    F7612642   7.490   3.699   0.209 -0.2314  0.5162  0.0588
  104MOL    H7712643   7.687   3.877   0.288 -3.2321 -1.4437  0.8410
  104MOL    H7812644   7.694   3.934   0.121 -1.3388  0.2074 -0.8740
  104MOL    H7912645   7.491   3.828   0.068 -0.2163 -0.1987 -0.4092
  104MOL    C8012646   7.444   3.926   0.250 -0.3324 -0.1354  0.3426
  104MOL    C8112647   7.289   3.917   0.256  0.6215 -0.5805 -0.4353
  104MOL    F8212648   7.228   3.998   0.345 -0.3936  0.3519 -0.1759
  104MOL    H8312649   7.471   3.907   0.354  0.0205  1.1839  0.5002
  104MOL    H8412650   7.486   4.023   0.223  1.8958 -0.9578  0.7273
  104MOL    H8512651   7.261   3.816   0.286  0.4519 -1.0890 -2.2059
  104MOL    C8612652   7.216   3.940   0.112  0.4304 -0.1926 -0.4799
  104MOL    C8712653   7.064   3.947   0.127  0.4008 -0.1236 -0.0222
  104MOL    F8812654   7.010   3.987   0.012  0.4496 -0.3537  0.5253
  104MOL    H8912655   7.254   4.027   0.058 -1.7039  0.7307 -0.5582
  104MOL    H9012656   7.233   3.849   0.055 -1.9368 -1.7958  1.2400
  104MOL    H9112657   7.052   4.042   0.179 -0.5093  0.6934 -1.7077
  104MOL    C9212658   6.992   3.820   0.181  0.6830  0.5012  0.2260
  104MOL    C9312659   6.921   3.838   0.315 -0.2508 -0.4487 -0.9035
  104MOL    F9412660   6.852   3.953   0.314  0.3599  0.4180  0.2665
  104MOL    H9512661   6.917   3.793   0.107 -0.0292  0.6764  0.8746
  104MOL    H9612662   7.067   3.742   0.191  0.9182  0.5634 -1.0413
  104MOL    H9712663   6.988   3.853   0.399  0.8261 -1.0903 -1.6323
  104MOL    C9812664   6.823   3.721   0.339 -0.4566 -1.0632 -0.5429
  104MOL    C9912665   6.728   3.750   0.458 -0.0564 -0.3756 -0.1185
  104MOL   F10012666   6.617   3.671   0.453  0.5836  0.1383  0.5049
  104MOL   H10112667   6.755   3.711   0.254 -1.6680  0.3913  0.2396
  104MOL   H10212668   6.877   3.627   0.354 -0.3595 -0.9410 -0.1327
  104MOL   H10312669   6.688   3.850   0.445 -2.4895 -1.3778 -0.6652
  104MOL   C10412670   6.798   3.739   0.592 -0.3786 -0.4526  0.0890
  104MOL   C10512671   6.704   3.767   0.711 -0.4279 -0.5042 -0.2941
  104MOL   F10612672   6.789   3.754   0.814  0.2632  0.4214 -0.0185
  104MOL   H10712673   6.829   3.635   0.603  0.8286 -0.1243 -0.1894
  104MOL   H10812674   6.878   3.813   0.598 -1.2152  0.6960 -2.3123
  104MOL   H10912675   6.630   3.688   0.715 -0.3981 -0.4536  1.9119
  104MOL   C11012676   6.639   3.903   0.716 -0.2070 -0.1240 -0.3196
  104MOL   C11112677   6.574   3.928   0.850 -0.0755 -0.5680  0.1289
  104MOL   F11212678   6.519   4.049   0.841 -0.8482  0.2601 -0.1738
  104MOL   H11312679   6.712   3.980   0.689 -0.0328 -0.1200  0.1554
  104MOL   H11412680   6.571   3.929   0.635  0.7793 -0.2285 -1.1974
  104MOL   H11512681   6.644   3.933   0.934  0.7231  0.7621 -0.6065
  104MOL   C11612682   6.445   3.839   0.877 -0.3535 -0.1175 -0.0492
  104MOL   C11712683   6.361   3.882   0.996 -0.3174 -0.6519  0.0835
  104MOL   F11812684   6.251   3.797   1.004 -0.1790 -0.2118 -0.1969
  104MOL   H11912685   6.375   3.851   0.794 -1.6921 -0.1998  1.0684
  104MOL   H12012686   6.469   3.733   0.881 -1.1133 -0.2714  0.3555
  104MOL   H12112687   6.327   3.985   0.981  1.0749 -0.1706  0.0833
  104MOL   H12212688   6.414   3.890   1.091 -2.9310  0.6751  1.4561
  105MOL     C112689   6.272   5.693   0.041 -0.0469  0.1310 -0.6002
  105MOL     C212690   6.423   5.714   7.994  0.4755  0.1976 -0.0801
  105MOL     F312691   6.454   5.840   7.983 -0.3335 -0.4406  0.0740
  105MOL     H412692   6.192   5.726   7.977 -0.4791  3.1630  1.2802
  105MOL     H512693   6.252   5.734   0.140 -1.5649 -2.1386  0.0507
  105MOL     H612694   6.438   5.674   7.893 -1.0407 -2.0162  0.5471
  105MOL     H712695   6.246   5.588   0.041  0.3446  0.0361 -0.4314
  105MOL     C812696   6.527   5.660   0.097 -0.6243  0.3423 -0.3902
  105MOL     C912697   6.655   5.604   0.030 -0.4667 -0.5264  0.4788
  105MOL    F1012698   6.746   5.698   7.980  0.0737  0.8517 -0.2386
  105MOL    H1112699   6.555   5.728   0.177 -0.3741  0.8637 -0.9134
  105MOL    H1212700   6.470   5.577   0.139  0.0214  0.4710  0.7618
  105MOL    H1312701   6.624   5.541   7.950 -0.1925 -1.2931  0.9543
  105MOL    C1412702   6.727   5.499   0.112 -0.1381  0.8387 -0.9811
  105MOL    C1512703   6.859   5.442   0.047  0.4697  0.0093  0.3646
  105MOL    F1612704   6.903   5.348   0.127 -0.1486  0.6399 -0.3798
  105MOL    H1712705   6.763   5.532   0.210  0.7435 -2.8375  0.0121
  105MOL    H1812706   6.653   5.422   0.132 -1.6430  2.4336 -0.1993
  105MOL    H1912707   6.929   5.526   0.048  0.4784  0.0826 -2.5756
  105MOL    C2012708   6.857   5.390   7.903 -0.2381 -0.2132  0.0888
  105MOL    C2112709   6.752   5.269   7.864  0.8215  0.5474 -0.2735
  105MOL    F2212710   6.629   5.312   7.873  0.3152  0.2660  0.0050
  105MOL    H2312711   6.816   5.475   7.849 -1.0186 -0.5827  0.0887
  105MOL    H2412712   6.954   5.356   7.868  0.3375  0.3127  1.1494
  105MOL    H2512713   6.759   5.200   7.948 -2.5798 -0.3515 -0.6502
  105MOL    C2612714   6.772   5.195   7.732 -0.9066  0.0022  0.0841
  105MOL    C2712715   6.707   5.246   7.602 -0.3950  0.4124 -0.4631
  105MOL    F2812716   6.746   5.374   7.576 -0.7450 -0.2169 -0.2610
  105MOL    H2912717   6.878   5.192   7.707 -1.4308 -1.5757 -2.1144
  105MOL    H3012718   6.744   5.090   7.741 -1.4845  0.2138  0.7718
  105MOL    H3112719   6.598   5.251   7.615 -0.1968 -0.4295  1.7947
  105MOL    C3212720   6.737   5.148   7.490 -0.0868  0.6235 -0.1151
  105MOL    C3312721   6.693   5.192   7.345  1.2053 -0.0574 -0.3862
  105MOL    F3412722   6.716   5.098   7.259  0.2909  0.1730 -0.1385
  105MOL    H3512723   6.843   5.123   7.480 -0.9901 -2.9375 -1.4196
  105MOL    H3612724   6.680   5.061   7.522 -0.6455 -0.0171 -2.7175
  105MOL    H3712725   6.756   5.275   7.315  0.8586 -0.0119 -0.9795
  105MOL    C3812726   6.542   5.234   7.326  0.6122 -0.0741  0.8569
  105MOL    C3912727   6.490   5.243   7.178  0.1723 -0.5610 -0.5105
  105MOL    F4012728   6.472   5.117   7.126 -0.0194 -0.5026 -0.0238
  105MOL    H4112729   6.488   5.165   7.390 -0.4454 -0.4770 -0.4573
  105MOL    H4212730   6.525   5.329   7.377  0.2919  0.0435  0.5323
  105MOL    H4312731   6.573   5.291   7.126  0.2378  0.3772  0.4373
  105MOL    C4412732   6.356   5.322   7.166  0.3351  0.5564  0.3006
  105MOL    C4512733   6.232   5.240   7.207  0.7446 -0.2683 -0.6604
  105MOL    F4612734   6.230   5.212   7.344 -0.2286  0.3831  0.1668
  105MOL    H4712735   6.363   5.422   7.209  0.9741  0.1400  1.1682
  105MOL    H4812736   6.346   5.344   7.060  3.9739  1.0093  0.0212
  105MOL    H4912737   6.219   5.142   7.162  1.3784  0.0481 -1.5412
  105MOL    C5012738   6.087   5.298   7.179 -0.3931  0.1281 -0.2364
  105MOL    C5112739   5.970   5.209   7.217  0.2302 -0.2931  0.1558
  105MOL    F5212740   5.862   5.291   7.230 -0.4492 -0.4678  0.1012
  105MOL    H5312741   6.068   5.376   7.252 -1.0489 -2.6789  2.7503
  105MOL    H5412742   6.066   5.327   7.076 -2.5591  1.3367  0.5073
  105MOL    H5512743   5.979   5.186   7.323  1.7562  1.3635  0.4032
  105MOL    C5612744   5.931   5.081   7.138  0.1798 -0.4292  0.1036
  105MOL    C5712745   5.824   5.002   7.222 -0.7069 -0.1038  0.6510
  105MOL    F5812746   5.714   5.069   7.221 -0.2137  0.3447  0.2883
  105MOL    H5912747   5.890   5.112   7.042  0.3059 -0.8058 -0.0707
  105MOL    H6012748   6.019   5.017   7.127  0.2452 -0.1114 -1.2469
  105MOL    H6112749   5.863   4.998   7.324  2.2093 -0.5089 -0.4322
  105MOL    C6212750   5.803   4.863   7.165 -0.1626 -0.1568  0.1894
  105MOL    C6312751   5.713   4.767   7.245 -0.5087 -0.3843 -0.1511
  105MOL    F6412752   5.587   4.794   7.217  0.0523  0.6158  0.2783
  105MOL    H6512753   5.776   4.874   7.061 -2.9460 -1.3119  0.7475
  105MOL    H6612754   5.906   4.828   7.156 -0.5303 -1.4402  0.8402
  105MOL    H6712755   5.718   4.791   7.352 -0.3528  3.1153 -0.8581
  105MOL    C6812756   5.730   4.617   7.223 -0.2545  0.4599 -0.0888
  105MOL    C6912757   5.852   4.561   7.285  0.6196  0.6822 -0.4663
  105MOL    F7012758   5.839   4.568   7.418 -0.3751  0.5833  0.2166
  105MOL    H7112759   5.647   4.555   7.259  0.1286 -1.0394 -1.6910
  105MOL    H7212760   5.725   4.594   7.116 -1.6268 -0.9680  0.2530
  105MOL    H7312761   5.932   4.634   7.269 -1.1726  2.6218 -0.8630
  105MOL    C7412762   5.880   4.424   7.233  0.2350 -0.4165 -0.5823
  105MOL    C7512763   6.017   4.365   7.279 -0.0449  0.2528  0.8203
  105MOL    F7612764   6.002   4.303   7.396 -0.2253  0.2479 -0.5009
  105MOL    H7712765   5.801   4.352   7.253  0.4781 -0.7548 -0.8394
  105MOL    H7812766   5.890   4.433   7.125 -1.8477 -1.0146 -0.8372
  105MOL    H7912767   6.080   4.452   7.299  1.3269 -0.1763 -1.4717
  105MOL    C8012768   6.092   4.267   7.183 -1.1073  0.4563  0.6313
  105MOL    C8112769   6.035   4.121   7.189 -0.5226 -0.5837  0.6431
  105MOL    F8212770   5.940   4.122   7.099  0.7599  0.2085 -0.5709
  105MOL    H8312771   6.095   4.306   7.081 -1.9821 -1.6929 -0.2279
  105MOL    H8412772   6.189   4.271   7.232  0.1287 -0.8239 -1.6283
  105MOL    H8512773   5.986   4.105   7.285 -0.0766  3.4864  1.6511
  105MOL    C8612774   6.130   4.011   7.138  0.2140  1.3144  0.3526
  105MOL    C8712775   6.060   3.873   7.109 -0.0839  0.0411 -0.2758
  105MOL    F8812776   6.156   3.804   7.049  0.0444 -0.0980 -0.6738
  105MOL    H8912777   6.181   4.042   7.047  1.1488 -0.7280  0.1571
  105MOL    H9012778   6.209   4.004   7.212  1.8963 -3.3902 -1.7353
  105MOL    H9112779   5.982   3.903   7.040 -0.9572  0.9328  1.0704
  105MOL    C9212780   6.016   3.795   7.234 -0.2101 -0.2703 -0.1403
  105MOL    C9312781   5.897   3.704   7.220 -0.6589  0.2650 -0.0674
  105MOL    F9412782   5.925   3.585   7.158  0.4118  0.3815  0.3849
  105MOL    H9512783   6.103   3.731   7.252  0.4062  0.3498 -0.8873
  105MOL    H9612784   6.001   3.864   7.317 -1.9510 -1.3631  0.4747
  105MOL    H9712785   5.819   3.754   7.163 -0.5495  1.0992  0.5065
  105MOL    C9812786   5.836   3.673   7.358  0.2445 -0.6198  0.0009
  105MOL    C9912787   5.704   3.596   7.349  0.2449  0.2151 -0.0006
  105MOL   F10012788   5.735   3.475   7.306 -0.2275  0.0073  0.0657
  105MOL   H10112789   5.907   3.611   7.412  0.2286 -0.6130  0.0296
  105MOL   H10212790   5.817   3.760   7.421  2.1994 -0.8929  1.0081
  105MOL   H10312791   5.638   3.643   7.277  2.2800  0.1737 -1.9637
  105MOL   C10412792   5.638   3.583   7.479 -0.1881  0.6922 -0.6273
  105MOL   C10512793   5.584   3.709   7.549 -0.4198  0.1096 -0.4177
  105MOL   F10612794   5.512   3.780   7.466 -0.4638 -0.0051 -0.1644
  105MOL   H10712795   5.550   3.520   7.467  1.5276 -1.7474 -0.6590
  105MOL   H10812796   5.705   3.517   7.534 -2.4100 -1.3193 -0.2489
  105MOL   H10912797   5.664   3.775   7.584 -1.5313  0.2780  1.8387
  105MOL   C11012798   5.499   3.679   7.677 -0.6348  0.5787  0.2884
  105MOL   C11112799   5.463   3.795   7.762  0.1356 -0.3565 -0.1786
  105MOL   F11212800   5.385   3.880   7.690 -0.4315 -0.2098 -0.1395
  105MOL   H11312801   5.418   3.613   7.646 -0.7114  1.3852 -1.2657
  105MOL   H11412802   5.569   3.621   7.738  1.3045  1.8245 -0.6939
  105MOL   H11512803   5.557   3.849   7.769 -0.5208  1.0079 -1.6254
  105MOL   C11612804   5.407   3.764   7.904 -0.7318 -0.2921  0.1907
  105MOL   C11712805   5.383   3.894   8.002  0.1142 -0.2639 -0.0631
  105MOL   F11812806   5.372   3.837   0.120  0.2930  0.2761  0.2272
  105MOL   H11912807   5.314   3.708   7.897  0.0623 -1.7296  0.9852
  105MOL   H12012808   5.484   3.700   7.946 -1.6060 -0.9354  0.8393
  105MOL   H12112809   5.294   3.948   7.970  0.4227  0.6177  0.5355
  105MOL   H12212810   5.475   3.952   7.996 -1.1355  1.7579 -0.2472
  106MOL     C112811   0.193   4.313   5.935  0.3915 -0.0960  0.5386
  106MOL     C212812   0.320   4.231   5.909 -0.3503  0.0296 -0.1587
  106MOL     F312813   0.301   4.158   5.800  0.5933  0.2703 -0.1781
  106MOL     H412814   0.172   4.384   5.856  0.3160 -1.3262 -0.5612
  106MOL     H512815   0.208   4.367   6.029  0.3183  0.2635  0.3414
  106MOL     H612816   0.339   4.159   5.988 -0.4205 -0.1149 -0.2732
  106MOL     H712817   0.105   4.250   5.945  0.3354 -0.4398 -1.9076
  106MOL     C812818   0.440   4.319   5.885  0.5131  0.1529 -0.2877
  106MOL     C912819   0.587   4.263   5.882 -0.2434  0.2888  1.3014
  106MOL    F1012820   0.600   4.212   6.001 -0.0002  0.3299 -0.3688
  106MOL    H1112821   0.422   4.371   5.790  2.2853  2.9015  0.8092
  106MOL    H1212822   0.427   4.404   5.952  1.0943 -1.0624  1.4209
  106MOL    H1312823   0.657   4.347   5.871  0.9466 -0.9790 -1.2411
  106MOL    C1412824   0.614   4.150   5.772 -0.2673 -0.4583 -0.2223
  106MOL    C1512825   0.597   4.193   5.622 -0.4550  0.0233 -0.0532
  106MOL    F1612826   0.666   4.302   5.598  0.2432 -0.5648  0.3678
  106MOL    H1712827   0.715   4.114   5.790 -0.6025 -1.3458 -0.0779
  106MOL    H1812828   0.548   4.065   5.790  0.3096 -0.4955  1.8433
  106MOL    H1912829   0.490   4.208   5.606 -0.3270  2.8003  1.4540
  106MOL    C2012830   0.651   4.077   5.538  0.2556  0.5426 -0.4849
  106MOL    C2112831   0.569   3.948   5.544  0.0436 -0.4784  0.0591
  106MOL    F2212832   0.444   3.986   5.527 -0.2373  0.1897 -0.5842
  106MOL    H2312833   0.651   4.098   5.431 -2.0660  0.3892 -0.5574
  106MOL    H2412834   0.756   4.067   5.565 -0.0406  0.9610  0.8822
  106MOL    H2512835   0.576   3.898   5.641 -1.4650 -0.0798  0.4017
  106MOL    C2612836   0.598   3.838   5.442 -0.1181  0.8720  0.5272
  106MOL    C2712837   0.496   3.722   5.452 -0.8028 -0.1608  0.4521
  106MOL    F2812838   0.380   3.773   5.401 -0.9420 -0.0408 -0.3416
  106MOL    H2912839   0.577   3.887   5.347  2.4696 -0.7164 -0.9156
  106MOL    H3012840   0.705   3.827   5.455  0.5495  3.2728 -2.2579
  106MOL    H3112841   0.495   3.687   5.555  2.5896  1.4535  1.1092
  106MOL    C3212842   0.533   3.587   5.376  0.2469  0.8018  0.7863
  106MOL    C3312843   0.649   3.510   5.426 -0.7175 -0.5923  0.4441
  106MOL    F3412844   0.622   3.482   5.546  0.1465  0.0301  0.0783
  106MOL    H3512845   0.443   3.525   5.381  0.3122  0.6449  0.0875
  106MOL    H3612846   0.547   3.601   5.269 -0.1955  2.5633  0.9477
  106MOL    H3712847   0.741   3.567   5.440 -2.1394  1.4490  1.7706
  106MOL    C3812848   0.684   3.383   5.346 -0.2437 -0.2392 -0.4062
  106MOL    C3912849   0.755   3.407   5.205  0.4699 -0.2668 -0.1505
  106MOL    F4012850   0.875   3.472   5.216 -0.4868 -0.0716 -0.2303
  106MOL    H4112851   0.747   3.321   5.410 -1.9402 -0.5913  0.9660
  106MOL    H4212852   0.592   3.329   5.325  0.2860 -0.8051 -1.2811
  106MOL    H4312853   0.689   3.474   5.151 -0.3290  0.7429  2.0230
  106MOL    C4412854   0.781   3.271   5.129  0.6330  0.0336  0.1682
  106MOL    C4512855   0.651   3.205   5.075  0.3486  0.1323 -0.1392
  106MOL    F4612856   0.617   3.285   4.975 -0.0876 -0.0013  0.5405
  106MOL    H4712857   0.854   3.293   5.052  1.7184 -0.5836  1.0175
  106MOL    H4812858   0.821   3.202   5.204 -0.5524 -0.0323  0.7693
  106MOL    H4912859   0.569   3.209   5.147 -0.2759 -0.3361 -0.8115
  106MOL    C5012860   0.662   3.059   5.028  0.3581  0.8960  0.5892
  106MOL    C5112861   0.682   2.958   5.143  0.6276 -0.4852 -0.0569
  106MOL    F5212862   0.576   2.960   5.218 -0.2531 -0.0323 -0.2458
  106MOL    H5312863   0.572   3.035   4.971  1.7641  0.9224 -1.7400
  106MOL    H5412864   0.744   3.050   4.957 -0.2603 -0.2988 -0.0042
  106MOL    H5512865   0.764   2.991   5.207  0.8865  2.1562 -1.6843
  106MOL    C5612866   0.698   2.816   5.088  0.0569  0.0781  0.7102
  106MOL    C5712867   0.838   2.782   5.034 -0.1585 -1.0411  0.2563
  106MOL    F5812868   0.901   2.707   5.124 -0.4665  0.0047  0.4408
  106MOL    H5912869   0.678   2.752   5.174  0.4392 -0.1314  0.6457
  106MOL    H6012870   0.613   2.813   5.020 -0.0657  1.4245  0.7789
  106MOL    H6112871   0.907   2.866   5.019  0.6176 -1.6388  0.4424
  106MOL    C6212872   0.831   2.716   4.895  0.9549  0.2071  0.6682
  106MOL    C6312873   0.959   2.695   4.817  0.0747  0.8193 -0.2201
  106MOL    F6412874   0.938   2.610   4.711 -0.1003 -0.0605 -0.0634
  106MOL    H6512875   0.776   2.623   4.909  0.2232  0.3907 -0.8980
  106MOL    H6612876   0.770   2.776   4.828  1.2813  1.2570  1.3054
  106MOL    H6712877   1.038   2.644   4.872 -1.3366 -0.4287  0.6862
  106MOL    C6812878   1.020   2.828   4.761 -0.1056 -0.2780  0.5991
  106MOL    C6912879   1.156   2.804   4.696 -0.4197 -0.2227  0.2603
  106MOL    F7012880   1.195   2.909   4.619  0.4283  0.4418 -0.0750
  106MOL    H7112881   0.957   2.867   4.681  1.0594  0.1029 -0.1402
  106MOL    H7212882   1.016   2.901   4.841  4.7253 -0.6832  1.3179
  106MOL    H7312883   1.152   2.721   4.626  0.4905  0.0797 -0.1596
  106MOL    C7412884   1.268   2.797   4.797  1.1454  0.1999  0.2392
  106MOL    C7512885   1.399   2.761   4.729 -0.1594  0.1094  0.4621
  106MOL    F7612886   1.485   2.787   4.825  0.3155  0.0326  0.0628
  106MOL    H7712887   1.270   2.900   4.831 -1.3546  0.2199  0.3967
  106MOL    H7812888   1.249   2.729   4.880  2.4200  0.9499  1.1683
  106MOL    H7912889   1.432   2.838   4.660  2.9238 -0.9644  0.6806
  106MOL    C8012890   1.400   2.612   4.692 -0.0340 -0.0230 -0.1013
  106MOL    C8112891   1.528   2.549   4.633  0.1444  0.3642  0.3104
  106MOL    F8212892   1.550   2.627   4.528 -0.1226  0.0257  0.4816
  106MOL    H8312893   1.392   2.551   4.782  0.2779 -2.7506 -1.8399
  106MOL    H8412894   1.314   2.587   4.629  0.3891 -1.1172 -0.2567
  106MOL    H8512895   1.511   2.451   4.587  0.4591 -0.2898  1.5543
  106MOL    C8612896   1.656   2.545   4.718  0.3822  0.6467  0.1172
  106MOL    C8712897   1.662   2.429   4.821 -0.2761 -0.1756 -0.7878
  106MOL    F8812898   1.642   2.304   4.761 -0.1727  0.1798 -0.5480
  106MOL    H8912899   1.746   2.533   4.657  2.0914 -1.3388  2.8379
  106MOL    H9012900   1.684   2.635   4.773 -1.5058  0.6299  1.1601
  106MOL    H9112901   1.591   2.449   4.902 -0.3239 -0.6120 -0.7202
  106MOL    C9212902   1.808   2.420   4.879  0.0583 -0.2747 -0.2535
  106MOL    C9312903   1.817   2.342   5.011 -0.7420 -0.2081 -0.8061
  106MOL    F9412904   1.765   2.220   4.994  0.2369 -0.1014  0.2252
  106MOL    H9512905   1.880   2.387   4.804 -1.2739  0.0678 -1.7250
  106MOL    H9612906   1.840   2.523   4.898  0.1399 -0.0636 -1.4685
  106MOL    H9712907   1.748   2.397   5.074 -1.0344 -0.3494 -1.0010
  106MOL    C9812908   1.958   2.334   5.073 -0.0528  0.8775  0.1296
  106MOL    C9912909   2.012   2.477   5.110 -0.2673  0.0637  0.3107
  106MOL   F10012910   1.911   2.552   5.155 -0.1479  0.2327  0.1287
  106MOL   H10112911   1.960   2.266   5.158 -1.0110  1.2810  0.4775
  106MOL   H10212912   2.034   2.303   5.001  0.1257 -0.3990  0.8503
  106MOL   H10312913   2.040   2.532   5.021 -1.5162 -0.5201 -0.4530
  106MOL   C10412914   2.124   2.486   5.211 -0.1438  0.4704 -0.0699
  106MOL   C10512915   2.268   2.437   5.162  0.1456 -0.8897 -0.1994
  106MOL   F10612916   2.347   2.499   5.250  0.1068 -0.2190 -0.1336
  106MOL   H10712917   2.140   2.590   5.238  1.5096  0.0948  0.4948
  106MOL   H10812918   2.095   2.434   5.302  0.5876  0.0256 -0.0837
  106MOL   H10912919   2.283   2.478   5.062 -1.2982  0.1097 -0.0231
  106MOL   C11012920   2.317   2.293   5.175  0.5030  0.6319  0.2917
  106MOL   C11112921   2.299   2.231   5.315  1.1710  0.2198 -0.3253
  106MOL   F11212922   2.164   2.215   5.323  0.7938 -0.0855  0.2527
  106MOL   H11312923   2.284   2.233   5.090 -2.4234  2.7040 -0.1230
  106MOL   H11412924   2.423   2.304   5.154  0.8539 -0.7203  1.2795
  106MOL   H11512925   2.329   2.299   5.395 -0.3590  1.5347 -0.8385
  106MOL   C11612926   2.361   2.090   5.318  0.5174 -0.0670  0.3894
  106MOL   C11712927   2.334   2.009   5.446  0.5573  0.1174  0.6677
  106MOL   F11812928   2.364   2.070   5.562  0.4596  0.4291  0.4817
  106MOL   H11912929   2.320   2.044   5.228  0.2643 -0.6051  0.7777
  106MOL   H12012930   2.470   2.087   5.309  0.5340 -1.7751  1.0190
  106MOL   H12112931   2.398   1.921   5.449 -2.2421 -1.9449  2.1848
  106MOL   H12212932   2.232   1.970   5.454  0.0906  1.1940  0.1629
  107MOL     C112933   4.574   4.824   6.724  0.2193  0.7401 -0.4372
  107MOL     C212934   4.594   4.946   6.633 -0.1756 -0.4267  0.2647
  107MOL     F312935   4.491   4.943   6.543 -0.4252  0.6236  0.4779
  107MOL     H412936   4.553   4.740   6.657 -0.4663 -0.5153  1.3133
  107MOL     H512937   4.505   4.825   6.808  0.4300 -0.0456 -0.2480
  107MOL     H612938   4.690   4.947   6.581 -0.4004  0.3169 -0.1352
  107MOL     H712939   4.676   4.811   6.760  0.3023  1.0192 -0.5686
  107MOL     C812940   4.570   5.072   6.712 -0.0453 -0.1516 -0.5474
  107MOL     C912941   4.699   5.127   6.770 -0.3115 -0.2509 -0.2052
  107MOL    F1012942   4.780   5.151   6.675 -0.4688 -0.0637  0.8230
  107MOL    H1112943   4.535   5.155   6.650  2.4446  0.4180 -1.2535
  107MOL    H1212944   4.500   5.057   6.794  1.1581  1.3912  0.8172
  107MOL    H1312945   4.747   5.049   6.829 -2.4834  0.1701  2.2367
  107MOL    C1412946   4.683   5.261   6.848  0.0591 -0.2867 -0.7254
  107MOL    C1512947   4.798   5.313   6.930 -0.2194 -0.4900  0.2976
  107MOL    F1612948   4.840   5.214   7.009  0.0593 -0.5145 -0.0871
  107MOL    H1712949   4.652   5.331   6.771  0.9831  1.1530  0.1833
  107MOL    H1812950   4.604   5.248   6.921 -0.0844  3.2735 -0.1574
  107MOL    H1912951   4.765   5.401   6.984 -0.3059  0.1872 -0.8285
  107MOL    C2012952   4.928   5.336   6.851  0.3460 -0.0205  0.1925
  107MOL    C2112953   4.907   5.444   6.736  0.3198 -0.2994  0.3988
  107MOL    F2212954   4.834   5.541   6.778  0.0675  0.3697  0.3998
  107MOL    H2312955   5.009   5.358   6.920 -0.5155 -0.4645  1.3545
  107MOL    H2412956   4.958   5.245   6.799 -0.1076  0.3891 -0.8151
  107MOL    H2512957   4.855   5.394   6.654  1.1560  1.0329 -0.9787
  107MOL    C2612958   5.041   5.505   6.684  0.4459 -0.1699 -0.1253
  107MOL    C2712959   5.132   5.395   6.613  0.1120 -0.2662 -0.0857
  107MOL    F2812960   5.066   5.343   6.506  0.4805 -0.1790  0.5411
  107MOL    H2912961   5.033   5.580   6.606  1.8819  2.1990  1.9061
  107MOL    H3012962   5.107   5.557   6.753 -1.0409  1.1616  0.3206
  107MOL    H3112963   5.137   5.312   6.683 -0.5678 -1.1487 -1.0657
  107MOL    C3212964   5.272   5.442   6.576 -0.1018  0.1790 -0.3981
  107MOL    C3312965   5.270   5.531   6.448  0.0702  0.0799 -0.4984
  107MOL    F3412966   5.203   5.651   6.462 -0.4581 -0.1163  0.0084
  107MOL    H3512967   5.306   5.496   6.664 -1.0956 -0.5910  0.4696
  107MOL    H3612968   5.341   5.360   6.560 -0.8272 -0.2709 -1.3200
  107MOL    H3712969   5.215   5.477   6.371 -2.9184  1.5538  0.5691
  107MOL    C3812970   5.402   5.557   6.388  0.2492 -0.1766 -0.2601
  107MOL    C3912971   5.511   5.623   6.473 -0.1579 -0.0879 -0.1390
  107MOL    F4012972   5.529   5.554   6.590 -0.4405  0.1836  0.5124
  107MOL    H4112973   5.450   5.470   6.344  1.5234  1.4372 -2.2145
  107MOL    H4212974   5.385   5.623   6.302  0.3601 -0.2632 -0.3492
  107MOL    H4312975   5.487   5.721   6.513 -1.2332 -0.6795  0.7113
  107MOL    C4412976   5.646   5.622   6.393  0.3227 -0.1994  0.2187
  107MOL    C4512977   5.659   5.727   6.278  0.0732 -0.2447 -0.5957
  107MOL    F4612978   5.648   5.843   6.340  0.1739  0.2595 -0.7084
  107MOL    H4712979   5.730   5.634   6.460 -1.1426  0.9100  1.9002
  107MOL    H4812980   5.654   5.521   6.353 -2.5937  0.9880 -3.7104
  107MOL    H4912981   5.569   5.726   6.217 -0.5943 -0.5938  0.3975
  107MOL    C5012982   5.789   5.696   6.190  0.3571  0.2660 -0.4525
  107MOL    C5112983   5.819   5.799   6.078  0.4229 -0.2399  0.6756
  107MOL    F5212984   5.935   5.774   6.018 -0.1871 -0.0084 -0.0392
  107MOL    H5312985   5.879   5.681   6.251 -0.2779 -1.1327  0.1677
  107MOL    H5412986   5.769   5.595   6.154 -0.6269  0.7740 -1.3519
  107MOL    H5512987   5.826   5.897   6.126 -1.6487  0.7236 -0.9114
  107MOL    C5612988   5.700   5.806   5.978 -0.1424  0.0557  0.0007
  107MOL    C5712989   5.688   5.924   5.888  0.3171  0.8515 -0.2274
  107MOL    F5812990   5.802   5.929   5.818 -0.6676 -0.2514 -0.4036
  107MOL    H5912991   5.703   5.710   5.927  1.9304  0.0913  0.0195
  107MOL    H6012992   5.604   5.795   6.028  0.5475 -1.8429  0.9786
  107MOL    H6112993   5.686   6.017   5.945  2.3788 -0.0440  1.3661
  107MOL    C6212994   5.567   5.925   5.791 -0.0103 -0.7997 -0.3094
  107MOL    C6312995   5.561   6.058   5.711 -0.0158  0.4770  0.8132
  107MOL    F6412996   5.666   6.062   5.628 -0.2613 -0.4711 -0.2428
  107MOL    H6512997   5.563   5.836   5.727  2.6297  0.4310 -2.2748
  107MOL    H6612998   5.480   5.920   5.857  0.6347 -2.2007  0.4453
  107MOL    H6712999   5.565   6.147   5.773 -1.9775  1.7450 -0.8297
  107MOL    C6813000   5.440   6.071   5.619 -0.3283  0.2044 -0.2904
  107MOL    C6913001   5.433   5.989   5.489 -0.3943 -0.3377  0.1519
  107MOL    F7013002   5.423   5.857   5.520  0.5765 -0.0411  0.0970
  107MOL    H7113003   5.352   6.052   5.682  0.1662  2.5876  1.1950
  107MOL    H7213004   5.439   6.177   5.596 -0.2655 -0.0071 -1.3021
  107MOL    H7313005   5.532   5.995   5.444 -1.9372  1.0294 -3.1674
  107MOL    C7413006   5.318   6.032   5.394  0.3706  0.3847 -0.3450
  107MOL    C7513007   5.313   5.967   5.255 -0.4620 -0.0018  0.0950
  107MOL    F7613008   5.261   5.846   5.266  0.0340 -0.0489  0.2712
  107MOL    H7713009   5.223   6.022   5.445  0.8637  0.2634  0.5712
  107MOL    H7813010   5.333   6.134   5.360  0.4510  0.4147 -0.2209
  107MOL    H7913011   5.411   5.941   5.217 -0.9806 -1.2620 -0.3935
  107MOL    C8013012   5.241   6.043   5.143 -0.4900 -0.3577  0.5240
  107MOL    C8113013   5.104   6.097   5.176  0.3557 -0.6484  0.8395
  107MOL    F8213014   5.115   6.205   5.255  0.5028 -0.0471  0.1727
  107MOL    H8313015   5.301   6.130   5.114  0.0369 -1.1577 -0.8495
  107MOL    H8413016   5.243   5.979   5.055 -0.2283 -0.7348  0.8094
  107MOL    H8513017   5.045   6.022   5.230 -2.4874  1.3285  0.5716
  107MOL    C8613018   5.024   6.143   5.050  0.3654 -0.6639 -0.6575
  107MOL    C8713019   5.073   6.280   4.997 -0.2839 -0.3393  0.3269
  107MOL    F8813020   5.203   6.261   4.952  0.4322 -0.1852  0.1261
  107MOL    H8913021   5.028   6.069   4.970  0.4195  0.0386 -1.3110
  107MOL    H9013022   4.922   6.152   5.088  0.9966  2.4983  0.4604
  107MOL    H9113023   5.084   6.351   5.078 -2.0686 -1.2220  1.3745
  107MOL    C9213024   4.989   6.349   4.890 -0.0385 -0.2102 -1.0238
  107MOL    C9313025   4.851   6.396   4.943 -0.1362 -0.1277  0.1685
  107MOL    F9413026   4.875   6.476   5.048 -0.2355  0.1408 -0.1541
  107MOL    H9513027   5.032   6.444   4.858  0.3088 -0.2303 -0.6143
  107MOL    H9613028   4.984   6.297   4.795 -1.0769 -1.3563 -0.3450
  107MOL    H9713029   4.794   6.314   4.986  0.0005 -0.2472  0.1217
  107MOL    C9813030   4.761   6.469   4.845 -0.8123 -0.8319  0.3329
  107MOL    C9913031   4.623   6.516   4.894  0.5930 -0.7656  0.2755
  107MOL   F10013032   4.624   6.625   4.972 -0.0678  0.4330  0.1893
  107MOL   H10113033   4.817   6.545   4.790 -1.2762 -1.6211 -1.2590
  107MOL   H10213034   4.751   6.402   4.760 -0.1189  0.7580 -1.0436
  107MOL   H10313035   4.575   6.428   4.936 -1.2552 -1.2400 -2.6745
  107MOL   C10413036   4.536   6.567   4.772  0.4887 -0.0975 -0.1500
  107MOL   C10513037   4.398   6.619   4.817  0.5392  0.0886 -0.1562
  107MOL   F10613038   4.419   6.735   4.876  0.5427  0.5960 -0.2399
  107MOL   H10713039   4.596   6.648   4.731  1.6390 -0.8446  0.0262
  107MOL   H10813040   4.531   6.486   4.699 -1.6085 -0.3510  0.2349
  107MOL   H10913041   4.358   6.558   4.898  1.8004  0.5157  0.8040
  107MOL   C11013042   4.295   6.643   4.706  0.4552 -0.6177 -0.4280
  107MOL   C11113043   4.242   6.522   4.632 -0.0987  0.0008  0.0891
  107MOL   F11213044   4.178   6.447   4.719 -0.0325  0.4561  0.1275
  107MOL   H11313045   4.203   6.686   4.747  0.0032 -0.8358 -1.2032
  107MOL   H11413046   4.345   6.710   4.636 -1.5491  0.8309 -0.5312
  107MOL   H11513047   4.329   6.474   4.587 -0.5184  0.1384 -0.8738
  107MOL   C11613048   4.150   6.568   4.519  0.2639  0.3363 -0.0012
  107MOL   C11713049   4.126   6.469   4.403 -0.4002  0.1647 -0.0337
  107MOL   F11813050   4.237   6.439   4.339  0.5809 -0.6581  0.3751
  107MOL   H11913051   4.056   6.611   4.554 -0.5095 -1.8508  0.6408
  107MOL   H12013052   4.184   6.656   4.464 -1.4520  1.6496  0.9655
  107MOL   H12113053   4.057   6.515   4.333  0.6822 -0.1464 -1.3154
  107MOL   H12213054   4.086   6.370   4.426  0.0262  0.2807  1.2957
  108MOL     C113055   3.827   3.590   7.581 -0.0621  0.0904  0.4878
  108MOL     C213056   3.869   3.731   7.560 -0.3530  0.1306 -0.4497
  108MOL     F313057   3.805   3.775   7.456 -0.0096 -0.9516 -0.0104
  108MOL     H413058   3.722   3.582   7.609 -0.0542 -0.4641  0.3677
  108MOL     H513059   3.893   3.544   7.654 -0.9856 -2.0066  0.0328
  108MOL     H613060   3.975   3.728   7.537 -0.2123 -1.3701  0.3059
  108MOL     H713061   3.845   3.530   7.492 -0.5483  0.8902 -0.1592
  108MOL     C813062   3.844   3.823   7.682 -0.8030  0.3589 -0.1950
  108MOL     C913063   3.953   3.927   7.721  0.3800 -0.6327  0.2973
  108MOL    F1013064   4.054   3.868   7.783  0.0247 -0.4483 -0.0648
  108MOL    H1113065   3.752   3.878   7.665 -1.6126 -0.5995  1.0088
  108MOL    H1213066   3.835   3.760   7.770  3.8144 -0.7024 -0.3303
  108MOL    H1313067   3.912   3.993   7.798  0.9324  1.4981 -1.1724
  108MOL    C1413068   4.003   4.012   7.601 -0.0095 -0.0742  0.4633
  108MOL    C1513069   4.071   4.151   7.644  0.7153 -0.4213  0.9560
  108MOL    F1613070   3.981   4.225   7.712  0.2160  0.0111 -0.0408
  108MOL    H1713071   4.077   3.953   7.547  0.6536 -0.3351  1.6142
  108MOL    H1813072   3.920   4.028   7.533  0.1674 -0.1607  0.2295
  108MOL    H1913073   4.101   4.199   7.551  1.3538 -1.3022  0.6960
  108MOL    C2013074   4.187   4.143   7.742  0.3026  0.5676  0.1393
  108MOL    C2113075   4.273   4.268   7.772  0.5602  0.9826  1.0472
  108MOL    F2213076   4.366   4.231   7.857 -0.4349  0.1956  0.1378
  108MOL    H2313077   4.144   4.091   7.827  0.4274  0.1456 -0.0542
  108MOL    H2413078   4.258   4.067   7.708  0.7966  0.2435  1.8344
  108MOL    H2513079   4.206   4.340   7.818 -2.3174 -0.3870 -0.8609
  108MOL    C2613080   4.348   4.333   7.660 -0.1654  0.5032 -0.1376
  108MOL    C2713081   4.464   4.249   7.585  0.4791  0.4357  0.3003
  108MOL    F2813082   4.401   4.164   7.506 -0.5004  0.3493 -0.1660
  108MOL    H2913083   4.286   4.363   7.575 -1.3305  1.5660  1.0649
  108MOL    H3013084   4.392   4.424   7.700 -1.2146  1.8228 -1.9042
  108MOL    H3113085   4.532   4.200   7.654  0.2866 -0.2409  0.0155
  108MOL    C3213086   4.554   4.339   7.491 -0.4333  0.4839 -0.5286
  108MOL    C3313087   4.666   4.264   7.420  0.6239  0.7720 -0.4417
  108MOL    F3413088   4.611   4.185   7.333 -0.2924  0.0070 -0.4773
  108MOL    H3513089   4.491   4.392   7.420 -0.5010 -2.7937 -3.0106
  108MOL    H3613090   4.602   4.408   7.561  2.9604 -1.6281 -0.6676
  108MOL    H3713091   4.728   4.203   7.487 -0.3291 -1.2718 -1.3765
  108MOL    C3813092   4.758   4.374   7.356 -0.1471  0.0810 -0.3167
  108MOL    C3913093   4.878   4.321   7.272  0.0630  0.1882 -0.2940
  108MOL    F4013094   4.945   4.419   7.224 -0.3646 -0.6038 -0.6253
  108MOL    H4113095   4.696   4.439   7.294  0.0270  1.0165  0.4788
  108MOL    H4213096   4.798   4.440   7.432 -1.2119 -0.7917  1.0155
  108MOL    H4313097   4.850   4.255   7.190  0.9881  2.4452 -2.4669
  108MOL    C4413098   4.982   4.243   7.361 -0.8423 -0.3614 -0.1649
  108MOL    C4513099   5.092   4.169   7.276 -0.3047 -0.8572  0.4205
  108MOL    F4613100   5.180   4.268   7.245  0.1022 -0.5707 -0.6353
  108MOL    H4713101   5.033   4.305   7.435 -2.9310 -1.5734  2.3672
  108MOL    H4813102   4.920   4.164   7.404 -0.3149 -0.8687 -0.3255
  108MOL    H4913103   5.041   4.142   7.184  1.9630 -0.7538 -0.8966
  108MOL    C5013104   5.178   4.058   7.337 -0.2275  0.5073  0.2240
  108MOL    C5113105   5.100   3.927   7.361  0.1482  0.4693 -0.6369
  108MOL    F5213106   5.043   3.876   7.248 -0.4755 -0.3860 -0.4352
  108MOL    H5313107   5.259   4.038   7.268 -0.3064  1.1532 -0.0583
  108MOL    H5413108   5.213   4.079   7.438 -1.1850  0.1701  0.6340
  108MOL    H5513109   5.025   3.936   7.440  1.3795 -2.6875  0.9647
  108MOL    C5613110   5.203   3.815   7.394  0.6292 -0.0642 -0.1331
  108MOL    C5713111   5.129   3.701   7.468  0.5414 -0.0257 -0.2660
  108MOL    F5813112   5.085   3.751   7.582 -0.1715  0.1380  0.1282
  108MOL    H5913113   5.257   3.771   7.311  0.9782 -0.9260  0.5366
  108MOL    H6013114   5.286   3.853   7.455  0.7830 -0.6561  0.0225
  108MOL    H6113115   5.201   3.625   7.501  0.4479 -0.2658 -0.6175
  108MOL    C6213116   5.017   3.633   7.385 -0.0416  0.2559  0.2590
  108MOL    C6313117   4.984   3.492   7.436  0.2097 -0.3825 -0.1601
  108MOL    F6413118   5.082   3.407   7.408 -0.6499 -0.1304 -0.2680
  108MOL    H6513119   4.917   3.677   7.394 -0.3916 -0.6161  0.6142
  108MOL    H6613120   5.045   3.636   7.280 -1.8764  0.9806 -0.2378
  108MOL    H6713121   4.901   3.450   7.379 -0.9608  1.7600 -0.0742
  108MOL    C6813122   4.942   3.483   7.585 -0.1116 -0.6143 -0.4637
  108MOL    C6913123   4.926   3.343   7.642 -0.8640  0.4616  0.2050
  108MOL    F7013124   5.045   3.294   7.661 -0.4245 -0.6976 -0.3245
  108MOL    H7113125   5.007   3.540   7.651 -0.9434  0.7407 -0.7863
  108MOL    H7213126   4.848   3.538   7.588  0.9510  1.1573  1.2830
  108MOL    H7313127   4.886   3.279   7.565 -2.5310 -1.7229  2.7997
  108MOL    C7413128   4.832   3.330   7.760 -0.3094 -0.4491 -0.0075
  108MOL    C7513129   4.816   3.189   7.812 -0.0501 -0.2584 -0.7749
  108MOL    F7613130   4.932   3.125   7.850 -0.6690 -0.1372  0.2307
  108MOL    H7713131   4.859   3.398   7.840 -0.1583  1.6140 -1.7501
  108MOL    H7813132   4.738   3.375   7.727 -0.1409 -0.3503 -0.3636
  108MOL    H7913133   4.756   3.133   7.741 -1.9553 -0.8589  1.2597
  108MOL    C8013134   4.747   3.193   7.946  0.6562  0.0936  0.1106
  108MOL    C8113135   4.594   3.232   7.922 -0.5368 -0.2909  0.5227
  108MOL    F8213136   4.540   3.151   7.831 -0.2219 -0.0592 -0.0647
  108MOL    H8313137   4.755   3.093   7.988 -0.3138  0.4896  1.2388
  108MOL    H8413138   4.796   3.260   0.013  1.4214  0.4066 -0.7068
  108MOL    H8513139   4.569   3.328   7.875  0.6743 -0.3080 -0.1681
  108MOL    C8613140   4.510   3.231   0.044 -0.3567  0.7374 -0.0689
  108MOL    C8713141   4.565   3.321   0.150 -0.8713  0.0590  0.4724
  108MOL    F8813142   4.594   3.445   0.105 -0.5684  0.6502 -0.0986
  108MOL    H8913143   4.411   3.272   0.023 -0.2847  1.4019  0.8680
  108MOL    H9013144   4.497   3.128   0.076 -0.9703  1.3773  1.7660
  108MOL    H9113145   4.650   3.273   0.200  0.0112  0.2911 -0.7928
  108MOL    C9213146   4.448   3.342   0.257  0.1448 -0.9954 -0.1225
  108MOL    C9313147   4.494   3.393   0.392 -0.3702  0.1152 -0.4366
  108MOL    F9413148   4.394   3.428   0.475 -0.0176 -0.1995 -0.2499
  108MOL    H9513149   4.366   3.403   0.219  0.1709  0.2757  1.7820
  108MOL    H9613150   4.398   3.247   0.270  1.3614 -1.3271  2.3237
  108MOL    H9713151   4.555   3.483   0.383  0.5230 -0.4212  0.0947
  108MOL    C9813152   4.569   3.283   0.478  0.1278 -0.3423  0.4030
  108MOL    C9913153   4.612   3.346   0.615  0.0031  0.0745 -0.8590
  108MOL   F10013154   4.641   3.242   0.694 -0.5447  0.0838  0.2195
  108MOL   H10113155   4.504   3.196   0.475  1.3221 -1.2576  0.3241
  108MOL   H10213156   4.662   3.250   0.430 -0.4367  1.1079 -1.7965
  108MOL   H10313157   4.536   3.400   0.673  0.5182 -0.6502  0.5103
  108MOL   C10413158   4.734   3.444   0.610 -0.2760  0.0896 -0.2865
  108MOL   C10513159   4.787   3.501   0.748 -0.3926  0.0424  0.4945
  108MOL   F10613160   4.806   3.410   0.844 -0.4002  0.1369  0.3334
  108MOL   H10713161   4.811   3.378   0.568 -0.7679 -1.0073  0.5054
  108MOL   H10813162   4.710   3.518   0.534  0.3444  1.1387  0.5264
  108MOL   H10913163   4.718   3.577   0.783 -1.3429  0.2823 -1.8222
  108MOL   C11013164   4.923   3.578   0.727  0.8798 -0.3276 -0.5178
  108MOL   C11113165   4.975   3.660   0.848 -0.8276 -0.3016  0.6976
  108MOL   F11213166   4.881   3.739   0.907  0.2126  0.3112  0.2644
  108MOL   H11313167   4.998   3.510   0.688  1.5786 -0.4848  1.0935
  108MOL   H11413168   4.893   3.655   0.655  2.2844 -0.4287 -1.2291
  108MOL   H11513169   5.039   3.737   0.806 -1.8160  0.7492  1.1057
  108MOL   C11613170   5.051   3.572   0.953  0.2067  0.5243 -0.1861
  108MOL   C11713171   5.124   3.662   1.061 -0.1288 -0.1801  0.1522
  108MOL   F11813172   5.202   3.754   1.020  0.2440  0.0831  0.3150
  108MOL   H11913173   4.975   3.512   1.002  0.2414 -0.8977 -1.8408
  108MOL   H12013174   5.118   3.498   0.908  1.9392  1.5960  0.5752
  108MOL   H12113175   5.189   3.594   1.117 -0.9127 -1.8233 -0.8932
  108MOL   H12213176   5.055   3.698   1.138 -1.5050  1.5266 -1.8250
  109MOL     C113177   1.123   1.703   3.195  0.2409  0.1250  0.6024
  109MOL     C213178   1.068   1.784   3.089  0.0991  0.3180 -0.2196
  109MOL     F313179   1.137   1.768   2.971 -0.4922  0.4258  0.1748
  109MOL     H413180   1.211   1.756   3.230  0.6737  1.3204 -2.1823
  109MOL     H513181   1.157   1.606   3.157  1.5961  0.2897  1.3707
  109MOL     H613182   1.082   1.888   3.117  0.1893 -0.3788  2.4262
  109MOL     H713183   1.050   1.691   3.275 -0.5842 -1.9707 -0.4139
  109MOL     C813184   0.923   1.751   3.058  0.1769 -0.1096 -0.1786
  109MOL     C913185   0.862   1.828   2.943  1.1632 -0.3524 -0.0131
  109MOL    F1013186   0.741   1.792   2.915  0.3621  0.7023 -0.5798
  109MOL    H1113187   0.929   1.644   3.036 -2.6813 -0.3484  0.0984
  109MOL    H1213188   0.863   1.755   3.148  0.3038 -2.3369  0.0358
  109MOL    H1313189   0.921   1.795   2.857  0.4742 -1.2588 -0.1413
  109MOL    C1413190   0.858   1.979   2.968  0.5484 -0.5421  0.1646
  109MOL    C1513191   0.775   2.062   2.880 -0.7928  0.1212  0.4005
  109MOL    F1613192   0.748   2.188   2.915 -0.1853  0.0864  0.3907
  109MOL    H1713193   0.817   1.991   3.068 -1.9132 -0.0050 -0.8747
  109MOL    H1813194   0.952   2.035   2.973 -0.1845  0.8449 -1.2547
  109MOL    H1913195   0.674   2.020   2.884 -0.2529 -1.1850  0.4331
  109MOL    C2013196   0.809   2.078   2.726 -0.0387  0.0571 -0.2217
  109MOL    C2113197   0.940   2.154   2.695  0.0342  0.2235 -0.6052
  109MOL    F2213198   1.048   2.078   2.719 -0.3886  0.3938 -0.1768
  109MOL    H2313199   0.806   1.976   2.686  1.7732 -0.0950 -0.0124
  109MOL    H2413200   0.732   2.137   2.676 -0.0054 -0.3945 -0.8210
  109MOL    H2513201   0.952   2.230   2.772 -1.3555 -1.1208  0.9850
  109MOL    C2613202   0.952   2.203   2.550  0.0309 -0.0532  0.3914
  109MOL    C2713203   0.844   2.311   2.515 -0.0494  1.3490 -0.0023
  109MOL    F2813204   0.850   2.411   2.601  0.0424 -0.1417  0.7841
  109MOL    H2913205   1.055   2.236   2.537  0.4074 -1.0037  0.8893
  109MOL    H3013206   0.936   2.111   2.492 -1.4626  0.4962 -0.0817
  109MOL    H3113207   0.741   2.278   2.524  0.0290  0.9656 -0.4575
  109MOL    C3213208   0.865   2.359   2.371 -0.6224 -0.0232 -0.4385
  109MOL    C3313209   0.982   2.458   2.351  0.0047  0.1392 -0.5956
  109MOL    F3413210   1.095   2.380   2.345 -0.5105 -0.2114 -0.0578
  109MOL    H3513211   0.880   2.275   2.302  0.2622 -1.1396  1.0867
  109MOL    H3613212   0.770   2.402   2.339 -2.0506 -1.2777  2.0204
  109MOL    H3713213   1.001   2.525   2.435 -0.4195 -0.3757 -0.0909
  109MOL    C3813214   0.971   2.539   2.221  0.5267 -0.2907  0.4008
  109MOL    C3913215   1.061   2.661   2.215 -0.1378 -0.2472  0.8383
  109MOL    F4013216   1.048   2.711   2.086 -0.3770  0.0605 -0.0788
  109MOL    H4113217   0.993   2.474   2.136  0.7834  0.3608 -0.0256
  109MOL    H4213218   0.865   2.565   2.225  0.5635 -0.2171  0.8890
  109MOL    H4313219   1.162   2.622   2.214 -0.1646 -0.3262 -0.7507
  109MOL    C4413220   1.035   2.776   2.311 -0.2066 -0.2007 -0.3584
  109MOL    C4513221   0.899   2.851   2.293 -0.0817  0.4088 -0.2199
  109MOL    F4613222   0.801   2.774   2.341 -0.2561 -0.2234 -0.8159
  109MOL    H4713223   1.038   2.739   2.414 -0.6325  2.4974  0.6639
  109MOL    H4813224   1.122   2.842   2.314 -1.2355  1.1463  0.4794
  109MOL    H4913225   0.875   2.853   2.187 -1.3564 -0.4809  0.0449
  109MOL    C5013226   0.888   2.988   2.350  0.1104 -0.0774 -0.0413
  109MOL    C5113227   0.928   3.115   2.266  0.0478 -0.4444  0.1216
  109MOL    F5213228   0.851   3.131   2.156 -0.2594 -0.5820 -0.0093
  109MOL    H5313229   0.781   3.000   2.367  0.0563 -2.0592  1.1899
  109MOL    H5413230   0.942   2.986   2.444 -0.2393  0.1535  0.1659
  109MOL    H5513231   1.030   3.108   2.228  0.2796 -0.3602  0.7197
  109MOL    C5613232   0.896   3.243   2.343 -0.2854  0.4800  0.2357
  109MOL    C5713233   0.997   3.273   2.457  0.8821 -0.0728 -0.6438
  109MOL    F5813234   1.116   3.275   2.397 -0.1176 -0.3206  0.4566
  109MOL    H5913235   0.906   3.329   2.277  0.8343 -0.1747 -0.4426
  109MOL    H6013236   0.796   3.246   2.386 -0.2812 -2.6794  0.6179
  109MOL    H6113237   0.994   3.206   2.544 -0.1963  0.8546  0.0421
  109MOL    C6213238   0.967   3.416   2.513 -0.0319 -0.0359  0.2752
  109MOL    C6313239   1.049   3.471   2.632  0.1202  0.3488 -0.0174
  109MOL    F6413240   1.015   3.599   2.647 -0.2728  0.2318  0.1772
  109MOL    H6513241   0.980   3.488   2.432  0.3178  2.4507  2.4386
  109MOL    H6613242   0.859   3.423   2.529 -0.1913  0.1681 -0.8624
  109MOL    H6713243   1.154   3.461   2.604  0.1228  0.2856  0.0160
  109MOL    C6813244   1.035   3.390   2.758  0.0189 -0.2710 -0.4932
  109MOL    C6913245   0.913   3.412   2.845  0.0720 -0.0182 -0.4396
  109MOL    F7013246   0.802   3.381   2.775 -0.4431 -0.5585  0.2429
  109MOL    H7113247   1.052   3.284   2.739  1.2857 -0.0660 -0.5571
  109MOL    H7213248   1.114   3.419   2.827 -1.1311  1.4838  0.1031
  109MOL    H7313249   0.893   3.518   2.861 -1.0633 -0.3756  0.6017
  109MOL    C7413250   0.903   3.337   2.983  0.0681 -0.0327  0.1310
  109MOL    C7513251   0.775   3.380   3.065 -0.4083 -0.4864 -0.2792
  109MOL    F7613252   0.669   3.328   3.003 -0.4738 -0.8547 -0.6731
  109MOL    H7713253   0.914   3.230   2.971  3.2214  0.2011  0.3960
  109MOL    H7813254   0.995   3.355   3.039  0.9699 -2.9808 -0.3333
  109MOL    H7913255   0.765   3.488   3.055 -1.2128 -0.6322 -1.1282
  109MOL    C8013256   0.775   3.328   3.208 -0.5929 -0.2856  0.4058
  109MOL    C8113257   0.669   3.390   3.293 -0.2242  0.5933 -0.2673
  109MOL    F8213258   0.549   3.362   3.247  0.5183 -0.2442  0.4805
  109MOL    H8313259   0.773   3.219   3.218 -1.1048 -0.3903 -0.7368
  109MOL    H8413260   0.868   3.360   3.255 -0.2708 -3.1334  1.8817
  109MOL    H8513261   0.662   3.498   3.285 -0.6462  0.4231 -2.3125
  109MOL    C8613262   0.683   3.357   3.442 -0.3635  0.6002 -0.1137
  109MOL    C8713263   0.557   3.383   3.532  0.4510  0.1270 -0.2370
  109MOL    F8813264   0.462   3.294   3.508 -0.1407 -0.0773 -0.3138
  109MOL    H8913265   0.709   3.251   3.444 -2.5134  0.0233 -0.7351
  109MOL    H9013266   0.767   3.415   3.480  0.4203  0.1794 -1.1565
  109MOL    H9113267   0.517   3.482   3.511  0.6904  0.3047  0.1375
  109MOL    C9213268   0.577   3.387   3.684 -0.2957 -0.1563 -0.4261
  109MOL    C9313269   0.457   3.425   3.769  0.1595 -0.1429 -0.5702
  109MOL    F9413270   0.489   3.400   3.891  0.5851 -0.5686  0.1906
  109MOL    H9513271   0.617   3.291   3.717 -3.3625 -1.9810 -1.8081
  109MOL    H9613272   0.661   3.448   3.717 -1.3444  1.5155 -0.7765
  109MOL    H9713273   0.370   3.363   3.745  0.0496 -0.6380  1.0474
  109MOL    C9813274   0.418   3.573   3.759 -0.5667  0.0665  0.5189
  109MOL    C9913275   0.289   3.623   3.828  0.2904 -0.0311  0.3028
  109MOL   F10013276   0.306   3.609   3.961 -0.3702  0.3760 -0.0797
  109MOL   H10113277   0.498   3.643   3.787 -0.6725  0.1741  0.5534
  109MOL   H10213278   0.408   3.600   3.654  0.4030 -0.6333  0.2392
  109MOL   H10313279   0.207   3.554   3.809  0.9559  0.0045 -3.1737
  109MOL   C10413280   0.264   3.767   3.794 -0.4829  0.5315 -0.2356
  109MOL   C10513281   0.123   3.804   3.766  0.6390  0.7743  0.3286
  109MOL   F10613282   0.042   3.760   3.856 -0.0676  0.0191 -0.5345
  109MOL   H10713283   0.307   3.826   3.875  0.3582 -0.1570 -0.1717
  109MOL   H10813284   0.332   3.797   3.714 -0.7556  1.3008 -0.1885
  109MOL   H10913285   0.092   3.756   3.673  0.5444 -0.3497  0.9373
  109MOL   C11013286   0.104   3.956   3.760  0.4798 -0.1353  0.4403
  109MOL   C11113287   0.143   4.038   3.892  0.0991 -0.5916  1.2086
  109MOL   F11213288   0.268   4.072   3.892 -0.4855  0.0058  0.1770
  109MOL   H11313289   0.144   3.998   3.667 -0.5779 -1.3230 -0.5739
  109MOL   H11413290   8.002   3.973   3.738  0.2127  1.0546  2.5465
  109MOL   H11513291   0.133   3.969   3.976 -0.4446 -0.9579  0.8496
  109MOL   C11613292   0.043   4.157   3.908 -0.3654  0.4604  0.5438
  109MOL   C11713293   0.042   4.236   4.037 -0.1227 -0.2101  0.4297
  109MOL   F11813294   7.951   4.330   4.022  0.1784  0.2927  0.5610
  109MOL   H11913295   0.051   4.230   3.828 -0.1717  0.6861  0.7675
  109MOL   H12013296   7.946   4.116   3.890  0.0147 -0.6123  0.8174
  109MOL   H12113297   0.137   4.288   4.052 -1.1650  2.3047 -1.3790
  109MOL   H12213298   0.026   4.175   4.126  0.0435 -2.4644 -1.0335
  110MOL     C113299   1.109   7.885   5.950 -0.1932  0.0207 -0.1038
  110MOL     C213300   1.065   0.027   5.948 -0.3643 -0.1784 -0.0378
  110MOL     F313301   1.107   0.077   5.829 -0.1490  0.5793  0.6147
  110MOL     H413302   1.042   7.828   6.014 -0.3852  2.8423  2.3217
  110MOL     H513303   1.213   7.870   5.977  0.3024  1.0787 -1.3334
  110MOL     H613304   1.120   0.073   6.030 -1.6969  1.3916 -0.0131
  110MOL     H713305   1.109   7.851   5.846 -0.3309  0.5055 -0.2654
  110MOL     C813306   0.912   0.052   5.952  0.3705 -0.0228 -0.2029
  110MOL     C913307   0.838   7.987   6.072 -0.4693  0.0882 -0.4156
  110MOL    F1013308   0.911   0.003   6.181  0.4419  0.0670  0.2994
  110MOL    H1113309   0.888   0.157   5.936  1.1063 -0.3544 -3.9451
  110MOL    H1213310   0.875   0.011   5.858  2.5719 -1.8946 -0.3067
  110MOL    H1313311   0.828   7.883   6.042  0.4855  0.3586 -1.7332
  110MOL    C1413312   0.699   0.047   6.105  0.3418 -0.2656  0.5294
  110MOL    C1513313   0.602   7.969   6.192 -0.4124 -0.0080 -0.2038
  110MOL    F1613314   0.499   0.036   6.232  0.8645 -0.5511  0.0495
  110MOL    H1713315   0.710   0.147   6.148 -0.3926  0.2132 -0.3630
  110MOL    H1813316   0.649   0.069   6.010 -0.6130  0.3692  1.1661
  110MOL    H1913317   0.656   7.945   6.283  0.2255 -0.0190 -0.5793
  110MOL    C2013318   0.546   7.847   6.114 -0.8758 -0.3677  0.0283
  110MOL    C2113319   0.467   7.742   6.191 -0.6368  0.3050 -0.4700
  110MOL    F2213320   0.382   7.681   6.106 -0.3197 -1.0258 -0.1452
  110MOL    H2313321   0.478   7.882   6.036 -1.1100  0.0254  0.4053
  110MOL    H2413322   0.626   7.798   6.058 -1.4435 -0.4066 -0.7603
  110MOL    H2513323   0.414   7.786   6.275 -1.3047 -3.0267  0.9332
  110MOL    C2613324   0.551   7.627   6.255  0.2044  0.0401 -0.3373
  110MOL    C2713325   0.464   7.523   6.324 -0.9527 -0.0114 -0.3343
  110MOL    F2813326   0.544   7.433   6.376  0.5843 -0.4295  0.2850
  110MOL    H2913327   0.604   7.569   6.179 -0.3549 -2.2277  0.9504
  110MOL    H3013328   0.622   7.672   6.325  0.4024 -1.5462  0.5171
  110MOL    H3113329   0.407   7.471   6.247 -0.4827  0.4948 -1.0285
  110MOL    C3213330   0.362   7.570   6.427  0.8355 -0.0057 -0.5483
  110MOL    C3313331   0.283   7.462   6.506  0.3534 -0.1186 -0.2331
  110MOL    F3413332   0.252   7.509   6.632  0.2994 -0.7240  0.7845
  110MOL    H3513333   0.404   7.640   6.499 -1.4548  0.6176  0.2067
  110MOL    H3613334   0.289   7.628   6.372 -1.0313 -0.3456  1.5231
  110MOL    H3713335   0.341   7.372   6.528 -0.8896 -0.2123  2.9162
  110MOL    C3813336   0.159   7.418   6.418 -0.0949 -0.1276  0.4063
  110MOL    C3913337   0.073   7.295   6.469  0.9302  0.0763  0.0328
  110MOL    F4013338   7.990   7.269   6.367  0.0038 -0.0358 -0.2485
  110MOL    H4113339   0.094   7.503   6.400  0.4580 -0.0584 -1.3102
  110MOL    H4213340   0.201   7.388   6.322 -1.3955  1.5299 -0.7012
  110MOL    H4313341   0.022   7.329   6.559 -0.6576 -0.2583 -0.7238
  110MOL    C4413342   0.161   7.175   6.519  0.2376  0.1648  0.5791
  110MOL    C4513343   0.261   7.105   6.424 -0.5604  0.3260  0.4258
  110MOL    F4613344   0.359   7.187   6.382  0.5896 -0.3836  0.0144
  110MOL    H4713345   0.203   7.218   6.610  1.3997  0.2786  0.0021
  110MOL    H4813346   0.093   7.095   6.547  1.5603 -0.6626  1.5303
  110MOL    H4913347   0.222   7.073   6.327  0.6772  0.8820 -0.2610
  110MOL    C5013348   0.332   6.982   6.491 -0.4826 -0.2178  0.5498
  110MOL    C5113349   0.244   6.863   6.533  0.1037 -0.8595 -0.1823
  110MOL    F5213350   0.185   6.896   6.643 -0.4292  0.7459  0.2453
  110MOL    H5313351   0.408   6.943   6.424 -0.3358 -0.4993  0.8761
  110MOL    H5413352   0.384   7.022   6.578  0.4410  1.2819 -0.6702
  110MOL    H5513353   0.310   6.778   6.553  1.1516 -1.1424 -4.4794
  110MOL    C5613354   0.137   6.807   6.425  0.0482 -0.5038 -0.5821
  110MOL    C5713355   0.037   6.710   6.481  0.4086 -0.0647 -0.2160
  110MOL    F5813356   7.952   6.688   6.381  0.4086 -0.1412 -0.2065
  110MOL    H5913357   0.076   6.893   6.399  0.2717 -0.6489 -1.6353
  110MOL    H6013358   0.189   6.789   6.331  0.8873  0.5655 -0.3260
  110MOL    H6113359   7.982   6.750   6.565  0.3579 -5.3490  2.4561
  110MOL    C6213360   0.090   6.576   6.533 -0.0529  0.2711 -0.0227
  110MOL    C6313361   0.000   6.464   6.594  0.5513 -0.5758  0.5591
  110MOL    F6413362   7.915   6.453   6.497  0.0233  0.1664 -0.4084
  110MOL    H6513363   0.126   6.531   6.441 -1.1107 -0.6677  0.0176
  110MOL    H6613364   0.174   6.591   6.601  0.1930  0.4635 -0.3668
  110MOL    H6713365   7.945   6.494   6.681 -2.1735 -2.6623 -0.4808
  110MOL    C6813366   0.055   6.323   6.632  0.5573 -0.4526 -0.2890
  110MOL    C6913367   0.159   6.336   6.751 -0.4067 -0.4110 -0.5952
  110MOL    F7013368   0.096   6.381   6.853 -0.9600  0.3658 -0.2888
  110MOL    H7113369   7.975   6.258   6.658  1.6011 -1.2106  1.2511
  110MOL    H7213370   0.085   6.268   6.543  1.8622  0.8397 -0.6803
  110MOL    H7313371   0.235   6.407   6.720  0.0477 -0.3013  0.7444
  110MOL    C7413372   0.225   6.198   6.782 -0.1614 -0.1326 -0.1817
  110MOL    C7513373   0.355   6.205   6.873  0.4684 -0.6046  0.3938
  110MOL    F7613374   0.318   6.230   6.996 -0.5654  0.1194  0.1241
  110MOL    H7713375   0.145   6.133   6.817  0.2758 -0.6800 -0.1976
  110MOL    H7813376   0.259   6.168   6.683  0.5733  0.3535 -0.0774
  110MOL    H7913377   0.406   6.295   6.837 -2.8244  0.6940 -1.1878
  110MOL    C8013378   0.442   6.072   6.870 -0.0129  0.3602 -0.1626
  110MOL    C8113379   0.573   6.078   6.950 -0.3226 -0.7832 -0.0078
  110MOL    F8213380   0.627   5.956   6.952 -0.0624 -0.5460  0.2428
  110MOL    H8313381   0.382   5.992   6.913 -1.1023 -0.1191 -2.5137
  110MOL    H8413382   0.454   6.041   6.766  1.7325 -0.0199  0.1416
  110MOL    H8513383   0.554   6.095   7.056 -1.9935 -4.6555  0.3839
  110MOL    C8613384   0.690   6.162   6.894 -0.6936 -0.4203 -0.7212
  110MOL    C8713385   0.747   6.123   6.759  0.1491  1.0938  0.3616
  110MOL    F8813386   0.655   6.148   6.661  0.1792 -0.2639  0.0944
  110MOL    H8913387   0.651   6.264   6.890 -0.0892 -0.2478 -3.0431
  110MOL    H9013388   0.774   6.168   6.963 -0.5805  0.8942 -0.9553
  110MOL    H9113389   0.753   6.015   6.752  0.5660  1.1280  0.1622
  110MOL    C9213390   0.889   6.188   6.729 -0.3974 -0.4281  0.5267
  110MOL    C9313391   0.943   6.157   6.588  0.4870  1.4078 -0.4021
  110MOL    F9413392   1.040   6.247   6.570  0.4970  0.4421 -0.2954
  110MOL    H9513393   0.866   6.295   6.734 -0.0722 -0.3194 -0.3490
  110MOL    H9613394   0.961   6.169   6.809 -0.0704 -2.2102 -0.1612
  110MOL    H9713395   0.861   6.178   6.520  0.2110  3.3760  0.5148
  110MOL    C9813396   1.008   6.019   6.567  0.0601  0.0550  0.3541
  110MOL    C9913397   1.048   5.992   6.412  0.2185  0.6015 -0.0237
  110MOL   F10013398   1.128   5.885   6.423  0.0389 -0.4834 -0.5125
  110MOL   H10113399   1.095   6.009   6.633 -0.2142  0.6364  0.8139
  110MOL   H10213400   0.936   5.942   6.592  0.2683  0.3996  2.1141
  110MOL   H10313401   1.108   6.076   6.377  0.7263 -0.5237 -1.9174
  110MOL   C10413402   0.931   5.966   6.315 -1.4052 -0.0370  0.3067
  110MOL   C10513403   0.976   5.948   6.166  0.4423  0.1325 -0.1852
  110MOL   F10613404   0.876   5.898   6.098 -0.0363  0.0772 -0.1595
  110MOL   H10713405   0.886   5.872   6.344 -1.3855 -0.2295 -0.2660
  110MOL   H10813406   0.872   6.057   6.326 -1.1714  0.2957 -1.0802
  110MOL   H10913407   1.054   5.872   6.168  1.8551  1.5542 -0.1120
  110MOL   C11013408   1.031   6.081   6.107 -0.4171 -0.0018 -0.7288
  110MOL   C11113409   1.148   6.058   6.007  0.2063 -0.2909  1.0423
  110MOL   F11213410   1.104   6.010   5.892  0.7174  0.5753  0.4085
  110MOL   H11313411   0.949   6.144   6.074 -1.9511 -0.8622  1.3034
  110MOL   H11413412   1.075   6.145   6.184 -1.8896  0.3732 -0.1742
  110MOL   H11513413   1.215   5.981   6.044 -1.9978 -1.6692  2.2507
  110MOL   C11613414   1.234   6.183   5.984 -0.2599  0.1286  0.0297
  110MOL   C11713415   1.354   6.174   5.889 -0.2382  0.4548  0.5870
  110MOL   F11813416   1.443   6.119   5.962 -0.0549  0.2028 -0.2374
  110MOL   H11913417   1.172   6.257   5.935 -1.0370 -0.9261 -0.6072
  110MOL   H12013418   1.271   6.224   6.078  0.4771  2.0676 -1.0790
  110MOL   H12113419   1.391   6.269   5.851  0.5706  0.0160  0.2615
  110MOL   H12213420   1.320   6.101   5.815 -0.5952 -1.6035  2.7351
  111MOL     C113421   7.951   6.894   5.400  0.4697  0.1401 -0.2088
  111MOL     C213422   7.992   6.773   5.484 -0.3726  0.4718  0.4796
  111MOL     F313423   0.109   6.800   5.538 -0.3303 -0.2086 -0.1622
  111MOL     H413424   7.929   6.982   5.461 -0.3892 -0.4660  0.3795
  111MOL     H513425   7.870   6.874   5.331  0.0270 -0.5624  0.5057
  111MOL     H613426   0.007   6.684   5.424 -3.5968  0.5219 -0.6675
  111MOL     H713427   0.031   6.935   5.343 -0.6889  2.6985 -0.1236
  111MOL     C813428   7.893   6.748   5.601 -0.0981 -0.2009  0.2330
  111MOL     C913429   7.760   6.676   5.549  0.4796  0.0812  0.0870
  111MOL    F1013430   7.776   6.565   5.481 -0.2138 -0.0508 -1.1751
  111MOL    H1113431   7.946   6.687   5.674 -0.2471 -0.2969  0.2612
  111MOL    H1213432   7.875   6.842   5.653  0.8580  1.4353 -2.3340
  111MOL    H1313433   7.709   6.735   5.473 -2.0578 -3.5960 -1.1736
  111MOL    C1413434   7.657   6.640   5.662  0.4706 -0.4616  1.1792
  111MOL    C1513435   7.510   6.620   5.616 -0.3702 -0.1899 -0.1268
  111MOL    F1613436   7.509   6.524   5.531  0.5361 -0.2731 -0.3339
  111MOL    H1713437   7.689   6.557   5.724 -1.3168 -1.1930  1.1374
  111MOL    H1813438   7.652   6.733   5.720 -0.8650  0.5898 -0.5665
  111MOL    H1913439   7.484   6.712   5.562  0.8722 -0.4121 -1.1331
  111MOL    C2013440   7.405   6.589   5.726 -0.6163  0.2319 -0.0888
  111MOL    C2113441   7.389   6.705   5.829 -0.0346  0.8795 -0.0161
  111MOL    F2213442   7.334   6.816   5.777 -0.2599 -0.0202 -0.1505
  111MOL    H2313443   7.318   6.572   5.663 -0.2014 -3.2122  0.1533
  111MOL    H2413444   7.425   6.495   5.777  2.2315 -0.2824 -1.9969
  111MOL    H2513445   7.486   6.739   5.864  0.9247 -0.5314 -1.2456
  111MOL    C2613446   7.297   6.672   5.954 -0.3850  0.0026 -0.3963
  111MOL    C2713447   7.371   6.628   6.079 -0.0840  0.5517 -0.9215
  111MOL    F2813448   7.269   6.608   6.161  0.2335 -0.3437 -0.1434
  111MOL    H2913449   7.231   6.754   5.981 -1.5317 -0.8844 -0.4356
  111MOL    H3013450   7.242   6.584   5.922 -0.4000 -0.5465  1.0773
  111MOL    H3113451   7.429   6.715   6.111  2.2117 -1.4531  0.5133
  111MOL    C3213452   7.470   6.505   6.065  0.0829 -0.0192 -0.5044
  111MOL    C3313453   7.530   6.454   6.198  0.6840  0.4045  0.2680
  111MOL    F3413454   7.604   6.351   6.173 -0.0966 -0.0260  0.1894
  111MOL    H3513455   7.414   6.421   6.026 -1.1906  0.0506  1.1554
  111MOL    H3613456   7.552   6.527   5.996  1.6765 -2.2409  0.6296
  111MOL    H3713457   7.457   6.409   6.266 -1.0935  1.2208 -1.0876
  111MOL    C3813458   7.611   6.556   6.277  0.0864 -0.0717 -0.0615
  111MOL    C3913459   7.537   6.618   6.402  0.2304 -0.0914  0.7309
  111MOL    F4013460   7.500   6.524   6.487 -0.0649 -0.2384 -0.3645
  111MOL    H4113461   7.708   6.514   6.305  0.6441  1.1429 -0.1403
  111MOL    H4213462   7.637   6.636   6.208  0.2687  1.7060  1.9972
  111MOL    H4313463   7.439   6.656   6.376  1.1189  1.3908 -0.5440
  111MOL    C4413464   7.627   6.704   6.482 -0.3882 -0.5424 -0.7092
  111MOL    C4513465   7.634   6.847   6.417 -0.1966 -0.0292 -0.1523
  111MOL    F4613466   7.510   6.895   6.393  0.3056  0.2068  0.4001
  111MOL    H4713467   7.586   6.722   6.582  1.7482  2.9192 -0.3845
  111MOL    H4813468   7.733   6.682   6.494 -0.1805  1.4781  1.5909
  111MOL    H4913469   7.693   6.832   6.326  1.3551 -1.0595  0.9990
  111MOL    C5013470   7.713   6.961   6.497  0.4957  0.2526  0.1433
  111MOL    C5113471   7.706   7.100   6.426 -0.4762 -0.0809 -0.8174
  111MOL    F5213472   7.776   7.186   6.503  0.2460 -0.0859  0.3840
  111MOL    H5313473   7.674   6.970   6.599 -0.1143  0.9484 -0.1485
  111MOL    H5413474   7.817   6.938   6.517  0.6814  0.8931 -0.0709
  111MOL    H5513475   7.605   7.137   6.443  0.2140  1.5330 -0.0362
  111MOL    C5613476   7.745   7.104   6.283 -0.3009 -0.5362  0.9082
  111MOL    C5713477   7.732   7.239   6.213 -0.5339  0.1813  0.7221
  111MOL    F5813478   7.808   7.228   6.103 -0.3643  0.0577 -0.3931
  111MOL    H5913479   7.854   7.092   6.276 -0.2990  0.1513 -0.4756
  111MOL    H6013480   7.694   7.028   6.224  1.2326 -0.9982  0.1311
  111MOL    H6113481   7.774   7.319   6.273  0.9612 -1.8047  2.3918
  111MOL    C6213482   7.593   7.263   6.164 -0.1808  0.0708  0.4311
  111MOL    C6313483   7.576   7.407   6.096 -0.0094  0.3501 -0.4498
  111MOL    F6413484   7.457   7.413   6.036  0.1422 -0.2177 -0.0758
  111MOL    H6513485   7.560   7.192   6.089  1.5507 -0.1250 -0.1732
  111MOL    H6613486   7.526   7.250   6.249  0.8516 -0.0820  1.2432
  111MOL    H6713487   7.647   7.440   6.020  0.2096  2.5503  0.6618
  111MOL    C6813488   7.583   7.511   6.205 -0.0736 -0.3426  0.2230
  111MOL    C6913489   7.534   7.652   6.162 -0.9318 -0.3194 -0.4474
  111MOL    F7013490   7.559   7.725   6.272  1.1504  0.2108  0.7319
  111MOL    H7113491   7.527   7.481   6.294  0.9120 -1.6651  0.4047
  111MOL    H7213492   7.688   7.518   6.233  0.8978  2.9347 -3.7068
  111MOL    H7313493   7.427   7.666   6.144 -1.0354 -0.5925 -0.0641
  111MOL    C7413494   7.620   7.718   6.051 -0.8539  0.2481 -0.1847
  111MOL    C7513495   7.598   7.875   6.050 -0.7701 -0.0709  0.3671
  111MOL    F7613496   7.657   7.932   6.155 -0.8143  0.3737 -0.2521
  111MOL    H7713497   7.725   7.697   6.068 -0.4093  1.7221 -1.0906
  111MOL    H7813498   7.598   7.670   5.955 -1.3650 -1.8297  0.9409
  111MOL    H7913499   7.493   7.902   6.042 -0.5197  0.9507  0.4980
  111MOL    C8013500   7.655   7.940   5.925 -0.1057  0.0818 -0.2052
  111MOL    C8113501   7.628   0.089   5.897 -0.3571 -0.3868 -0.7940
  111MOL    F8213502   7.693   0.112   5.777  0.5194  0.4942  0.6598
  111MOL    H8313503   7.763   7.924   5.924 -0.3305 -1.7322  1.6458
  111MOL    H8413504   7.619   7.881   5.841 -1.9744 -0.0198  0.6346
  111MOL    H8513505   7.674   0.148   5.976 -1.2329 -2.0057  0.9776
  111MOL    C8613506   7.481   0.142   5.890  0.0826 -0.3599  0.1266
  111MOL    C8713507   7.472   0.297   5.899 -0.1111  0.6175  0.5765
  111MOL    F8813508   7.539   0.348   5.797 -0.3729 -0.2252  0.1108
  111MOL    H8913509   7.435   0.111   5.797  0.8073  2.4798 -1.2211
  111MOL    H9013510   7.430   0.097   5.976 -1.3811 -0.2577 -0.6845
  111MOL    H9113511   7.519   0.337   5.989 -0.6344 -0.0285  1.1412
  111MOL    C9213512   7.335   0.351   5.881  0.4052 -0.4402  0.4749
  111MOL    C9313513   7.324   0.505   5.849 -0.3778 -0.7333  0.3727
  111MOL    F9413514   7.201   0.542   5.821 -0.3021  0.3411  0.0593
  111MOL    H9513515   7.297   0.311   5.787 -0.5841  0.7574  0.3454
  111MOL    H9613516   7.274   0.328   5.969 -0.1191  0.7109  0.4275
  111MOL    H9713517   7.376   0.508   5.754 -0.1220 -2.5859  0.4382
  111MOL    C9813518   7.389   0.605   5.948 -0.6922 -0.2230  0.1825
  111MOL    C9913519   7.302   0.623   6.069  0.7138 -0.2539 -0.2161
  111MOL   F10013520   7.290   0.514   6.139  0.5813  0.0294  0.0360
  111MOL   H10113521   7.488   0.573   5.980 -0.3641  1.7641  1.2306
  111MOL   H10213522   7.399   0.697   5.892 -0.7215 -0.7631 -0.7238
  111MOL   H10313523   7.198   0.647   6.043 -0.0498  0.3511  3.0806
  111MOL   C10413524   7.353   0.748   6.143  0.6478 -0.3943 -0.3950
  111MOL   C10513525   7.283   0.798   6.269  0.2025 -0.2201  0.3701
  111MOL   F10613526   7.350   0.743   6.363  0.0187 -0.5801 -0.1606
  111MOL   H10713527   7.460   0.743   6.164  0.1761  0.9574  2.5189
  111MOL   H10813528   7.342   0.829   6.072 -1.3786 -0.3041  0.0087
  111MOL   H10913529   7.179   0.766   6.279  0.4678 -0.1112  3.9678
  111MOL   C11013530   7.291   0.949   6.291 -0.3696  0.7708 -0.9790
  111MOL   C11113531   7.183   1.039   6.232 -0.9013 -0.0457 -0.3301
  111MOL   F11213532   7.070   0.980   6.270 -0.2636 -0.1396  0.3128
  111MOL   H11313533   7.300   0.970   6.397  0.9895 -0.2220 -0.8770
  111MOL   H11413534   7.389   0.975   6.249  1.2213 -0.5464  1.7548
  111MOL   H11513535   7.183   1.024   6.125  1.3216  0.2157 -0.3900
  111MOL   C11613536   7.180   1.186   6.270 -0.2892  0.3552  0.5382
  111MOL   C11713537   7.291   1.259   6.191  0.3338 -0.2961  1.0788
  111MOL   F11813538   7.253   1.269   6.062  0.3126 -0.0144  0.1383
  111MOL   H11913539   7.078   1.223   6.269 -0.1201  0.8266 -1.6783
  111MOL   H12013540   7.214   1.189   6.373 -0.0376  1.1881  0.4329
  111MOL   H12113541   7.382   1.199   6.197  1.1280  1.0750  3.5499
  111MOL   H12213542   7.321   1.358   6.226  0.4030 -0.4655  1.4901
  112MOL     C113543   1.936   6.212   0.298 -0.2791  0.6872  0.4174
  112MOL     C213544   1.873   6.231   0.162 -0.5365 -0.1555 -0.1769
  112MOL     F313545   1.879   6.361   0.124 -0.3548  0.0330 -0.2144
  112MOL     H413546   1.874   6.259   0.375 -1.2231 -1.2947  0.9035
  112MOL     H513547   2.039   6.247   0.291  0.1913 -0.7726 -0.0064
  112MOL     H613548   1.764   6.229   0.170 -0.4808  0.3610  0.7773
  112MOL     H713549   1.944   6.106   0.323  0.3543  0.1079 -2.0908
  112MOL     C813550   1.930   6.134   0.056 -0.9395  0.5004 -0.0045
  112MOL     C913551   1.891   5.988   0.048 -0.2334  0.5472  0.1245
  112MOL    F1013552   1.932   5.936   0.162 -0.8221  0.3487 -0.6907
  112MOL    H1113553   1.913   6.177   7.961 -1.4449  0.5498  0.1037
  112MOL    H1213554   2.039   6.136   0.060 -0.8498 -2.8565  0.4701
  112MOL    H1313555   1.957   5.936   7.982 -0.1123  0.1241  0.5531
  112MOL    C1413556   1.737   5.961   0.033 -0.2969 -0.2957  0.4982
  112MOL    C1513557   1.708   5.807   0.046 -1.0847  0.0991 -0.0889
  112MOL    F1613558   1.579   5.787   0.032  0.1660  0.4596 -0.1147
  112MOL    H1713559   1.675   6.014   0.105 -1.0753  1.0796 -1.1566
  112MOL    H1813560   1.710   6.007   7.941  1.1135 -0.6073 -0.0780
  112MOL    H1913561   1.722   5.781   0.151 -0.8968 -1.1313 -0.4140
  112MOL    C2013562   1.791   5.721   7.953  0.6539  0.6925  0.3676
  112MOL    C2113563   1.739   5.573   7.930 -0.2923  0.2906 -0.6909
  112MOL    F2213564   1.821   5.513   7.853 -0.3236 -0.0009 -0.5763
  112MOL    H2313565   1.799   5.774   7.858  1.7532 -0.1035  0.0099
  112MOL    H2413566   1.894   5.723   7.988  0.4922 -0.1679  0.9204
  112MOL    H2513567   1.645   5.585   7.876 -0.5119  1.8540  0.0058
  112MOL    C2613568   1.743   5.486   0.058 -0.5760 -0.5555 -0.5476
  112MOL    C2713569   1.622   5.497   0.153  0.3526  0.0104  0.1856
  112MOL    F2813570   1.513   5.503   0.074  0.2606 -0.4017 -0.1003
  112MOL    H2913571   1.744   5.385   0.016 -0.7785 -1.5110  1.6809
  112MOL    H3013572   1.833   5.486   0.119  0.8783  0.6725 -2.6235
  112MOL    H3113573   1.626   5.592   0.206  0.6636  1.1980 -1.8809
  112MOL    C3213574   1.598   5.377   0.254  0.1211  0.0924  0.0171
  112MOL    C3313575   1.706   5.356   0.359  0.9272 -0.3920 -0.2143
  112MOL    F3413576   1.746   5.471   0.412 -0.3386 -0.0838  0.1257
  112MOL    H3513577   1.508   5.401   0.310 -0.0900  1.1698 -0.7659
  112MOL    H3613578   1.572   5.284   0.204 -0.5177  0.1952  0.1603
  112MOL    H3713579   1.801   5.324   0.315  0.2639 -0.5712 -1.5416
  112MOL    C3813580   1.643   5.270   0.469  0.3165 -0.1398 -0.2400
  112MOL    C3913581   1.734   5.226   0.582  0.5360  0.6753  0.1098
  112MOL    F4013582   1.776   5.335   0.642 -0.0094 -0.3464  0.5938
  112MOL    H4113583   1.557   5.316   0.518  0.3693  0.6217 -0.8644
  112MOL    H4213584   1.605   5.177   0.425 -1.4000 -0.6424  2.1917
  112MOL    H4313585   1.827   5.177   0.554  0.1657 -1.4164  2.3722
  112MOL    C4413586   1.666   5.151   0.697 -0.4942 -0.2112  0.0236
  112MOL    C4513587   1.612   5.017   0.652 -0.7979 -0.0161  0.0164
  112MOL    F4613588   1.708   4.929   0.661 -0.2018  0.2449  0.3615
  112MOL    H4713589   1.724   5.142   0.789 -0.1394  3.9425  0.2592
  112MOL    H4813590   1.582   5.216   0.719 -0.5764 -0.2768 -0.0969
  112MOL    H4913591   1.567   5.015   0.553  1.3730  0.7385 -1.0352
  112MOL    C5013592   1.512   4.952   0.749  0.3538 -0.4890 -0.0026
  112MOL    C5113593   1.388   5.026   0.795  0.0500  0.5264 -0.2118
  112MOL    F5213594   1.314   5.051   0.681  0.2138  0.1406  0.0970
  112MOL    H5313595   1.476   4.865   0.695  0.9917 -0.7653  0.0091
  112MOL    H5413596   1.565   4.932   0.842  1.6887  0.4974 -0.5266
  112MOL    H5513597   1.407   5.124   0.839  2.8776 -1.6692  3.7289
  112MOL    C5613598   1.294   4.947   0.891 -0.1204  0.7133 -0.5501
  112MOL    C5713599   1.255   4.807   0.841 -0.5266  0.2076  0.3562
  112MOL    F5813600   1.354   4.714   0.864  0.3938  0.2316 -0.0467
  112MOL    H5913601   1.337   4.948   0.992 -2.2377  2.8362  0.4035
  112MOL    H6013602   1.198   4.997   0.905 -0.7106 -0.5099 -0.1377
  112MOL    H6113603   1.252   4.814   0.732  0.7992  0.4102  0.3315
  112MOL    C6213604   1.129   4.736   0.901 -0.1806 -0.2083  0.3924
  112MOL    C6313605   1.099   4.607   0.821  0.2213 -0.2215  0.4909
  112MOL    F6413606   1.182   4.503   0.850  0.2839 -0.1875  0.0401
  112MOL    H6513607   1.143   4.715   1.007 -2.8595 -1.1390  0.5919
  112MOL    H6613608   1.050   4.810   0.890  2.1946  2.3399 -0.0823
  112MOL    H6713609   1.080   4.631   0.716  0.4592  0.6252  0.6380
  112MOL    C6813610   0.961   4.564   0.856  0.4607  0.3942  0.0613
  112MOL    C6913611   0.917   4.423   0.801  0.0518 -0.0314  0.1051
  112MOL    F7013612   0.988   4.319   0.844 -0.3210  0.6186 -0.1483
  112MOL    H7113613   0.959   4.564   0.965 -0.1915  1.7421  0.0543
  112MOL    H7213614   0.893   4.640   0.817  1.9557  1.8335  0.2248
  112MOL    H7313615   0.935   4.430   0.694 -1.2782  0.0073 -0.1169
  112MOL    C7413616   0.775   4.386   0.840  0.5694 -0.0446  0.1960
  112MOL    C7513617   0.662   4.452   0.748 -0.6700 -0.2041 -0.2922
  112MOL    F7613618   0.696   4.411   0.625 -0.3182  0.3063  0.4345
  112MOL    H7713619   0.763   4.278   0.848 -1.9981  0.2533  0.9909
  112MOL    H7813620   0.758   4.422   0.941 -1.2797 -0.4145  0.0427
  112MOL    H7913621   0.653   4.560   0.753 -0.0361 -0.1589 -0.0615
  112MOL    C8013622   0.522   4.398   0.773 -1.1937 -0.2317  0.0386
  112MOL    C8113623   0.406   4.458   0.699 -0.4011  0.0829  0.1502
  112MOL    F8213624   0.424   4.432   0.571 -0.2681  0.0168 -0.6590
  112MOL    H8313625   0.526   4.290   0.761 -2.3534 -0.3118  0.3515
  112MOL    H8413626   0.494   4.416   0.877 -1.6544 -1.1321  0.0724
  112MOL    H8513627   0.395   4.565   0.721  1.0862  0.6312 -1.6223
  112MOL    C8613628   0.269   4.399   0.736 -0.1275 -0.0866 -1.1440
  112MOL    C8713629   0.215   4.460   0.863 -0.1776  0.3894  0.2696
  112MOL    F8813630   0.193   4.587   0.831 -0.5995  0.3107 -0.4026
  112MOL    H8913631   0.200   4.422   0.654 -2.8405  0.6250  1.2548
  112MOL    H9013632   0.282   4.291   0.736  1.4733  0.0896 -0.5813
  112MOL    H9113633   0.278   4.459   0.952 -2.4360 -2.1263  1.9252
  112MOL    C9213634   0.088   4.394   0.920  0.0391  0.5093 -0.1495
  112MOL    C9313635   0.001   4.478   1.017 -0.2266 -0.8307  0.0032
  112MOL    F9413636   7.981   4.602   0.973  0.2298 -0.1850  0.3363
  112MOL    H9513637   0.030   4.361   0.833  2.2280 -0.5035 -1.2674
  112MOL    H9613638   0.117   4.305   0.975  1.4754 -0.6404 -2.6778
  112MOL    H9713639   0.058   4.483   1.109 -1.8964 -1.0548  1.0663
  112MOL    C9813640   7.872   4.415   1.044 -0.1777  0.3841 -0.4393
  112MOL    C9913641   7.873   4.282   1.127  0.6900 -0.2131  0.5750
  112MOL   F10013642   7.932   4.301   1.249 -0.1141  0.6981 -0.3417
  112MOL   H10113643   7.805   4.480   1.100 -1.9910 -1.5335 -0.2930
  112MOL   H10213644   7.823   4.385   0.951  2.8417 -2.2225 -1.3151
  112MOL   H10313645   7.937   4.209   1.078 -0.0366 -0.8225  0.5199
  112MOL   C10413646   7.729   4.228   1.144 -1.1791 -0.4347 -0.5000
  112MOL   C10513647   7.706   4.093   1.206  0.0108 -0.7167 -0.5012
  112MOL   F10613648   7.784   4.008   1.142 -0.2434 -0.1806  0.1210
  112MOL   H10713649   7.665   4.301   1.192 -0.5778  1.4251 -2.4465
  112MOL   H10813650   7.689   4.224   1.042  1.2439  2.1929 -1.6322
  112MOL   H10913651   7.606   4.063   1.173 -0.4306 -0.1520  0.2854
  112MOL   C11013652   7.724   4.082   1.359  0.5628 -0.0093  0.5287
  112MOL   C11113653   7.638   4.176   1.437  0.1254 -0.2474 -0.2366
  112MOL   F11213654   7.527   4.194   1.374  0.1438  0.2577 -0.4265
  112MOL   H11313655   7.686   3.984   1.385 -0.1706 -0.0782 -0.7581
  112MOL   H11413656   7.825   4.085   1.401  0.7432  4.0205  0.0053
  112MOL   H11513657   7.691   4.272   1.442 -3.3169  1.6242  1.9083
  112MOL   C11613658   7.599   4.111   1.572  0.2683  0.2657  0.0745
  112MOL   C11713659   7.493   4.190   1.655  0.1980  0.0028 -0.4257
  112MOL   F11813660   7.534   4.306   1.689 -0.4765 -0.5774  0.3776
  112MOL   H11913661   7.570   4.007   1.555  0.8633  0.1176 -0.0452
  112MOL   H12013662   7.683   4.102   1.641  0.0154 -0.7819  0.2602
  112MOL   H12113663   7.471   4.127   1.741  0.0896  1.3279  0.5226
  112MOL   H12213664   7.402   4.207   1.597  0.8507  1.9738 -0.9035
  113MOL     C113665   5.010   0.669   2.049  0.4324  0.4617  0.2530
  113MOL     C213666   5.123   0.654   1.951 -0.2607  0.4997  0.5680
  113MOL     F313667   5.067   0.645   1.830 -0.5448  0.1634 -0.0738
  113MOL     H413668   4.958   0.764   2.039 -0.2010  0.4238  3.0068
  113MOL     H513669   5.054   0.681   2.148  0.4180  2.6023  0.0347
  113MOL     H613670   5.168   0.555   1.965  1.1205  1.0826  0.3927
  113MOL     H713671   4.943   0.584   2.050  1.5489 -0.4254  1.0697
  113MOL     C813672   5.223   0.768   1.950  0.4723 -0.2144 -0.5140
  113MOL     C913673   5.333   0.775   2.056 -0.2992  0.3044 -0.0162
  113MOL    F1013674   5.419   0.676   2.030 -0.0733  0.2607  0.2484
  113MOL    H1113675   5.283   0.763   1.859  0.0692  1.9247 -0.9309
  113MOL    H1213676   5.170   0.863   1.938  1.8522  0.4822 -1.1422
  113MOL    H1313677   5.291   0.757   2.155 -1.7354 -0.5962 -0.7686
  113MOL    C1413678   5.403   0.912   2.063  0.7128 -0.1064 -0.7325
  113MOL    C1513679   5.518   0.933   2.166  0.5010 -0.0872  0.1858
  113MOL    F1613680   5.472   0.891   2.282 -0.5429  0.3280 -0.6400
  113MOL    H1713681   5.421   0.964   1.969 -1.4435  0.4077 -0.9017
  113MOL    H1813682   5.324   0.978   2.100  1.9246  0.8739  0.1662
  113MOL    H1913683   5.536   1.039   2.181 -0.0296 -0.0686  0.7029
  113MOL    C2013684   5.661   0.881   2.124  0.6664  0.0921 -0.0138
  113MOL    C2113685   5.780   0.938   2.203  0.8277 -0.1849 -0.1430
  113MOL    F2213686   5.774   1.072   2.182  0.6325 -0.0949 -0.2830
  113MOL    H2313687   5.671   0.772   2.126  2.7260  0.2380 -0.3641
  113MOL    H2413688   5.666   0.907   2.018  0.8176 -0.4641 -0.1475
  113MOL    H2513689   5.867   0.902   2.148  0.6948 -1.9292  0.7277
  113MOL    C2613690   5.790   0.911   2.354  0.4105 -0.2268  0.1787
  113MOL    C2713691   5.925   0.968   2.408  0.3197  0.6983  0.4826
  113MOL    F2813692   5.920   0.978   2.536 -0.0984  0.5115  0.1913
  113MOL    H2913693   5.707   0.953   2.412 -0.4208 -0.4188 -0.8485
  113MOL    H3013694   5.778   0.805   2.376 -0.9663  0.4320  2.7988
  113MOL    H3113695   5.923   1.069   2.367  0.5748  0.5133  0.0049
  113MOL    C3213696   6.042   0.877   2.369 -0.1641 -0.0318  0.5242
  113MOL    C3313697   6.179   0.927   2.439  0.0072  0.4034  0.2501
  113MOL    F3413698   6.250   0.819   2.413  0.0238  0.3196  0.0619
  113MOL    H3513699   6.015   0.778   2.405  0.5824  0.1455  1.5894
  113MOL    H3613700   6.057   0.875   2.261 -1.5390 -0.8975  0.3454
  113MOL    H3713701   6.157   0.947   2.544  0.6584  2.4484  0.0100
  113MOL    C3813702   6.231   1.038   2.354 -0.3881 -0.3758  0.4292
  113MOL    C3913703   6.364   1.095   2.407 -0.2441  0.1041  0.1802
  113MOL    F4013704   6.416   1.192   2.319  0.0827  0.0867  0.0684
  113MOL    H4113705   6.244   1.000   2.253 -2.3237  0.2269 -0.0532
  113MOL    H4213706   6.160   1.119   2.345  0.3563  0.4220  1.6376
  113MOL    H4313707   6.438   1.015   2.407 -0.4601 -0.1281  1.9941
  113MOL    C4413708   6.351   1.159   2.546  0.0055  0.5240 -0.7069
  113MOL    C4513709   6.285   1.297   2.556 -0.4508  0.0880 -0.1090
  113MOL    F4613710   6.190   1.320   2.460 -0.2891 -0.1838 -0.4607
  113MOL    H4713711   6.295   1.086   2.604  0.4520 -1.1339 -2.3068
  113MOL    H4813712   6.449   1.164   2.592  0.2495 -1.6205 -0.9529
  113MOL    H4913713   6.361   1.368   2.523  0.4112 -1.8354 -2.3638
  113MOL    C5013714   6.241   1.324   2.701 -0.4417  0.2065 -0.5813
  113MOL    C5113715   6.104   1.279   2.734 -0.4903  0.2268  0.2165
  113MOL    F5213716   6.112   1.145   2.727  0.0834 -0.0826  0.2567
  113MOL    H5313717   6.316   1.277   2.764 -2.1955 -0.0895  1.3484
  113MOL    H5413718   6.243   1.430   2.725  2.4552  0.0994 -0.1664
  113MOL    H5513719   6.040   1.320   2.656 -0.7912  1.3258  1.0245
  113MOL    C5613720   6.061   1.313   2.878  0.4883  0.3954  0.1627
  113MOL    C5713721   6.014   1.459   2.897 -0.9061 -0.0794  0.1023
  113MOL    F5813722   5.918   1.488   2.812  0.2286 -0.0451  0.5523
  113MOL    H5913723   5.986   1.242   2.911  0.9311 -1.0157 -1.7977
  113MOL    H6013724   6.147   1.286   2.939 -0.6277  0.8887  2.0206
  113MOL    H6113725   6.103   1.519   2.876 -0.9242 -0.3380 -0.7189
  113MOL    C6213726   5.962   1.497   3.028  0.9116  0.0384 -0.2503
  113MOL    C6313727   6.077   1.499   3.137 -0.0982 -0.5571 -0.0205
  113MOL    F6413728   6.172   1.588   3.102 -0.1379 -0.1693  0.4074
  113MOL    H6513729   5.909   1.592   3.032  1.8324  0.5239  0.7900
  113MOL    H6613730   5.885   1.431   3.069  1.9894 -1.0069  0.1184
  113MOL    H6713731   6.143   1.412   3.134 -0.8061 -1.0664 -2.4845
  113MOL    C6813732   6.029   1.520   3.282  0.2387 -0.6310  0.7362
  113MOL    C6913733   5.970   1.398   3.346 -0.2150 -0.5082  0.3423
  113MOL    F7013734   6.060   1.311   3.391  0.6746  0.0014 -0.2526
  113MOL    H7113735   6.112   1.570   3.332 -1.2419  2.2978  0.3575
  113MOL    H7213736   5.960   1.604   3.275 -1.9287 -2.4731 -0.8394
  113MOL    H7313737   5.910   1.336   3.279  1.7366 -2.2066  0.1012
  113MOL    C7413738   5.877   1.437   3.463 -0.0184  0.8978  0.0874
  113MOL    C7513739   5.793   1.325   3.523 -0.4002 -0.6770  0.0388
  113MOL    F7613740   5.861   1.248   3.601  0.1724 -0.4656 -0.4841
  113MOL    H7713741   5.931   1.467   3.553 -0.3427  0.5815  0.3894
  113MOL    H7813742   5.813   1.522   3.438 -1.2518  0.2296  0.9655
  113MOL    H7913743   5.754   1.262   3.443 -0.5207 -0.2276 -0.2575
  113MOL    C8013744   5.664   1.375   3.606  0.6283 -0.6130  0.4694
  113MOL    C8113745   5.557   1.433   3.518  0.0045  0.1497 -0.1753
  113MOL    F8213746   5.518   1.339   3.431 -0.0648  0.1630  0.0696
  113MOL    H8313747   5.626   1.288   3.660 -0.9782 -1.2057 -1.5472
  113MOL    H8413748   5.700   1.450   3.676  0.9895 -1.8635  1.6463
  113MOL    H8513749   5.595   1.514   3.456  1.1872 -0.6722 -0.5581
  113MOL    C8613750   5.438   1.470   3.610 -0.1172  0.6367  0.1228
  113MOL    C8713751   5.314   1.520   3.532 -0.1326 -0.5570  0.0571
  113MOL    F8813752   5.273   1.431   3.441 -0.2960 -0.4398  0.2579
  113MOL    H8913753   5.417   1.381   3.669  0.2475 -0.0610 -0.7959
  113MOL    H9013754   5.466   1.538   3.691  0.7377  0.4448  0.0022
  113MOL    H9113755   5.350   1.599   3.467 -0.5762 -0.9133 -0.6211
  113MOL    C9213756   5.205   1.562   3.620 -0.0811 -0.5066 -0.9864
  113MOL    C9313757   5.073   1.589   3.539  0.5890 -0.3642 -0.0406
  113MOL    F9413758   4.975   1.627   3.622  0.1657 -0.0026  0.1527
  113MOL    H9513759   5.180   1.478   3.686 -1.8071  1.6982  1.2933
  113MOL    H9613760   5.241   1.650   3.675 -1.4573 -0.3027 -0.3737
  113MOL    H9713761   5.044   1.497   3.488  1.0926 -1.4256  1.5543
  113MOL    C9813762   5.092   1.709   3.437  0.2290 -0.2997 -0.1877
  113MOL    C9913763   4.967   1.752   3.362 -0.5576  0.4524 -0.4973
  113MOL   F10013764   4.981   1.882   3.355 -0.2183 -0.4675 -0.2260
  113MOL   H10113765   5.124   1.797   3.493 -0.0490 -0.4291  0.1832
  113MOL   H10213766   5.171   1.698   3.364 -0.5300  0.8833 -1.2090
  113MOL   H10313767   4.888   1.735   3.435  2.0719  0.3225  2.4047
  113MOL   C10413768   4.922   1.681   3.235  0.0695 -0.2126  0.5811
  113MOL   C10513769   4.803   1.732   3.162  0.2396  0.5762 -0.1771
  113MOL   F10613770   4.798   1.680   3.043 -0.7659  0.1762 -0.4747
  113MOL   H10713771   5.006   1.687   3.166 -0.9599 -1.6780 -0.8478
  113MOL   H10813772   4.904   1.577   3.260  0.5185  0.1088  2.2572
  113MOL   H10913773   4.824   1.837   3.140 -1.4810  1.3000  1.5006
  113MOL   C11013774   4.669   1.722   3.241 -0.2522 -0.2133  0.2228
  113MOL   C11113775   4.556   1.821   3.189  0.6182 -0.4608  0.0107
  113MOL   F11213776   4.593   1.952   3.213  0.4521  0.1715  0.4187
  113MOL   H11313777   4.614   1.628   3.238 -0.1610 -0.2769  0.5859
  113MOL   H11413778   4.696   1.739   3.345 -0.0574 -0.5789  0.2326
  113MOL   H11513779   4.465   1.808   3.247  0.3164 -0.1449 -0.3878
  113MOL   C11613780   4.505   1.805   3.044 -0.0322  0.8458  0.0956
  113MOL   C11713781   4.389   1.899   3.008  0.1076 -0.6594  0.2600
  113MOL   F11813782   4.272   1.900   3.066  0.2281 -0.0468  0.1539
  113MOL   H11913783   4.582   1.805   2.966 -0.4129  0.6980 -0.2832
  113MOL   H12013784   4.458   1.707   3.040  2.8477 -0.6393  1.3654
  113MOL   H12113785   4.366   1.904   2.902 -0.9167 -0.0230  0.5024
  113MOL   H12213786   4.421   2.000   3.034 -0.4956 -0.4261  0.0886
  114MOL     C113787   7.490   7.128   5.426 -0.0979 -0.1181  0.1477
  114MOL     C213788   7.414   7.068   5.542 -0.2386 -0.0527  0.1399
  114MOL     F313789   7.505   7.003   5.619  0.2260 -0.1383 -0.3351
  114MOL     H413790   7.536   7.222   5.460 -0.5626  0.6249 -1.2560
  114MOL     H513791   7.413   7.162   5.357 -1.0156 -0.9054  0.7659
  114MOL     H613792   7.346   6.994   5.500  1.8078 -0.6239 -2.2473
  114MOL     H713793   7.564   7.059   5.386  1.1501  0.5284  1.2849
  114MOL     C813794   7.334   7.174   5.610 -0.5154  0.1392  0.1589
  114MOL     C913795   7.228   7.129   5.712 -0.3698  0.3892 -1.0887
  114MOL    F1013796   7.290   7.070   5.819  0.3316 -0.5523 -0.2604
  114MOL    H1113797   7.401   7.246   5.655 -0.4786  0.3049 -0.1649
  114MOL    H1213798   7.277   7.226   5.533  1.1475  0.2861 -0.9759
  114MOL    H1313799   7.156   7.060   5.668  0.3027 -1.5099  0.6962
  114MOL    C1413800   7.169   7.263   5.769 -0.3921  0.1193  0.2083
  114MOL    C1513801   7.041   7.248   5.852 -0.0162  0.1141 -0.8207
  114MOL    F1613802   6.953   7.175   5.790  0.4700  0.1727 -0.8053
  114MOL    H1713803   7.249   7.317   5.818  1.3293  1.1010 -3.4632
  114MOL    H1813804   7.132   7.336   5.697 -0.3896  1.4322  1.5195
  114MOL    H1913805   7.002   7.348   5.867 -0.8033 -0.5153  1.5939
  114MOL    C2013806   7.055   7.191   6.000  0.8573  1.2002 -0.4511
  114MOL    C2113807   7.150   7.259   6.096  0.7364  0.1224  1.0882
  114MOL    F2213808   7.121   7.391   6.085  0.0269  0.0369  0.0063
  114MOL    H2313809   6.951   7.204   6.032  0.9200 -0.8151  0.6318
  114MOL    H2413810   7.070   7.084   5.988 -0.1897  1.0527 -0.4992
  114MOL    H2513811   7.255   7.268   6.066 -0.0248  0.2926 -1.7023
  114MOL    C2613812   7.144   7.209   6.246 -0.1146  0.0908  0.0958
  114MOL    C2713813   7.160   7.058   6.261 -0.0285 -0.5353 -0.6381
  114MOL    F2813814   7.283   7.032   6.206  0.5020  0.0729  0.3243
  114MOL    H2913815   7.227   7.260   6.296  3.2564 -3.3204 -1.7442
  114MOL    H3013816   7.049   7.225   6.297 -0.4354 -1.6471  0.1018
  114MOL    H3113817   7.086   7.006   6.199 -0.6292  1.3181 -1.5280
  114MOL    C3213818   7.172   7.015   6.405 -0.2257 -0.5992  0.8000
  114MOL    C3313819   7.136   6.876   6.437  0.2893 -0.2386  0.7247
  114MOL    F3413820   7.210   6.794   6.365  0.1564 -0.0369 -0.4886
  114MOL    H3513821   7.268   7.040   6.448 -0.2196  1.1359 -0.1846
  114MOL    H3613822   7.098   7.082   6.448  0.2282  0.8201 -0.5924
  114MOL    H3713823   7.033   6.847   6.419  0.7190 -2.0196  0.9723
  114MOL    C3813824   7.154   6.843   6.584 -0.3734 -0.5707  0.3989
  114MOL    C3913825   7.094   6.703   6.626 -1.1138 -0.1579  0.0225
  114MOL    F4013826   6.970   6.683   6.587  0.1903  0.7546  0.2089
  114MOL    H4113827   7.259   6.851   6.610  0.5283 -4.1390 -1.8223
  114MOL    H4213828   7.107   6.915   6.651  1.2018 -0.7922  1.7777
  114MOL    H4313829   7.075   6.714   6.732  2.0409  3.7977  0.2788
  114MOL    C4413830   7.179   6.584   6.581  0.5759 -0.6576 -0.0844
  114MOL    C4513831   7.144   6.446   6.639  0.0140 -0.8501  0.0269
  114MOL    F4613832   7.205   6.364   6.552  0.2711 -0.3533  0.2365
  114MOL    H4713833   7.161   6.588   6.473  3.8329  1.9406 -0.6205
  114MOL    H4813834   7.285   6.596   6.599  0.4472  0.5251 -0.1197
  114MOL    H4913835   7.037   6.424   6.629 -0.3129  0.9898 -0.5807
  114MOL    C5013836   7.199   6.410   6.781 -0.5155 -0.3082 -0.6919
  114MOL    C5113837   7.111   6.466   6.894 -0.4231 -0.2870  0.5148
  114MOL    F5213838   6.988   6.409   6.882  0.1747 -0.2028 -0.0461
  114MOL    H5313839   7.219   6.305   6.800 -1.5408 -0.1752  1.3261
  114MOL    H5413840   7.296   6.460   6.791 -1.6062  1.8604 -0.6363
  114MOL    H5513841   7.101   6.574   6.895 -0.5662 -0.3073  1.6323
  114MOL    C5613842   7.163   6.443   7.034  0.0873  0.4651 -0.1669
  114MOL    C5713843   7.263   6.543   7.085  0.7727  0.3347  0.1852
  114MOL    F5813844   7.214   6.667   7.081  0.1865  0.1843  0.4738
  114MOL    H5913845   7.078   6.463   7.099 -1.2080  2.7157 -2.5009
  114MOL    H6013846   7.199   6.342   7.056  1.6420  1.0190 -0.1129
  114MOL    H6113847   7.344   6.541   7.012  0.9271  0.3558  0.3544
  114MOL    C6213848   7.295   6.532   7.232  0.4068 -0.2437  0.0583
  114MOL    C6313849   7.382   6.409   7.262  0.0801 -0.2817  0.4486
  114MOL    F6413850   7.489   6.407   7.185  0.2829 -0.2400  0.4075
  114MOL    H6513851   7.348   6.621   7.266  2.8658 -1.6398  0.0644
  114MOL    H6613852   7.203   6.525   7.290  1.3520 -1.8726  1.4104
  114MOL    H6713853   7.342   6.315   7.224 -2.0448 -0.6989  3.5425
  114MOL    C6813854   7.418   6.396   7.406  0.4967 -0.5071 -0.1279
  114MOL    C6913855   7.532   6.290   7.443 -0.0666 -0.6131 -0.1663
  114MOL    F7013856   7.590   6.313   7.562  0.0962 -0.5850 -0.3814
  114MOL    H7113857   7.462   6.491   7.436  1.0804 -1.0019  0.6048
  114MOL    H7213858   7.335   6.399   7.476  0.9856 -1.7518  0.5229
  114MOL    H7313859   7.615   6.314   7.378 -0.3329  1.1103  0.1044
  114MOL    C7413860   7.479   6.146   7.442 -0.4020 -0.2275 -0.1907
  114MOL    C7513861   7.589   6.037   7.468 -0.3488 -0.2985  0.0131
  114MOL    F7613862   7.635   6.046   7.589  0.0409  0.1897  0.0367
  114MOL    H7713863   7.396   6.141   7.512 -1.1704 -0.1448 -1.0851
  114MOL    H7813864   7.437   6.136   7.342 -0.5142  0.2651 -0.1984
  114MOL    H7913865   7.677   6.053   7.406  0.5245 -1.1254  1.0259
  114MOL    C8013866   7.534   5.890   7.449 -0.3441  0.9497 -0.2689
  114MOL    C8113867   7.647   5.784   7.480  0.0340  0.8299 -0.6842
  114MOL    F8213868   7.590   5.671   7.517 -0.3915 -0.5047  0.2838
  114MOL    H8313869   7.449   5.873   7.515  0.2830  2.7304  1.0648
  114MOL    H8413870   7.504   5.867   7.348  1.7442  0.2462 -0.7657
  114MOL    H8513871   7.709   5.816   7.564  0.1217 -0.9948 -0.0392
  114MOL    C8613872   7.747   5.753   7.368  0.0309  0.1910  0.2256
  114MOL    C8713873   7.890   5.720   7.413 -0.1110 -0.0322 -0.2875
  114MOL    F8813874   7.937   5.821   7.487 -0.3929  0.0774  0.8004
  114MOL    H8913875   7.698   5.671   7.315  0.1107  0.1111  0.2776
  114MOL    H9013876   7.746   5.836   7.297 -0.5848  0.1305  0.1650
  114MOL    H9113877   7.953   5.705   7.325  3.3327  0.5932  1.9684
  114MOL    C9213878   7.899   5.601   7.504  0.0189  1.2887 -0.3947
  114MOL    C9313879   0.039   5.556   7.537 -0.1118  0.1237  0.7083
  114MOL    F9413880   0.084   5.538   7.416 -0.0931  0.3113 -0.1740
  114MOL    H9513881   7.845   5.612   7.598  0.2350  1.7034 -0.3192
  114MOL    H9613882   7.843   5.519   7.458  0.2433  2.1529 -2.2847
  114MOL    H9713883   0.038   5.454   7.577  0.7333  0.3019  1.2138
  114MOL    C9813884   0.126   5.644   7.632  0.1947 -0.3111 -0.2086
  114MOL    C9913885   0.096   5.621   7.783 -0.4961  0.3943 -0.1872
  114MOL   F10013886   0.093   5.488   7.808  0.0423  0.0169  0.9406
  114MOL   H10113887   0.231   5.622   7.614 -0.2949 -1.2721 -1.9476
  114MOL   H10213888   0.123   5.753   7.622  2.0423  0.0494  2.6163
  114MOL   H10313889   7.998   5.655   7.805 -0.5166  0.9635 -1.1521
  114MOL   C10413890   0.209   5.684   7.879  0.8670  0.1403  0.4427
  114MOL   C10513891   0.222   5.836   7.876 -0.3639 -0.1379  0.1492
  114MOL   F10613892   0.109   5.892   7.830  0.0940 -0.1542 -0.4308
  114MOL   H10713893   0.172   5.658   7.978  2.3800  0.4716  1.1041
  114MOL   H10813894   0.304   5.636   7.857  1.3293  1.7690 -1.2045
  114MOL   H10913895   0.290   5.856   7.792  0.3286  1.5451  1.0808
  114MOL   C11013896   0.283   5.902   7.998 -0.1987 -0.6876  0.1398
  114MOL   C11113897   0.206   5.882   0.129  0.0537 -0.0956  0.0341
  114MOL   F11213898   0.222   5.763   0.181  0.4423  0.2986  0.6590
  114MOL   H11313899   0.388   5.883   0.019  0.3608  2.5430  0.4841
  114MOL   H11413900   0.279   6.009   7.983  0.8706 -0.6439  0.1190
  114MOL   H11513901   0.099   5.890   0.107  0.5138  2.0232 -1.5602
  114MOL   C11613902   0.256   5.986   0.230 -0.2131 -0.8059 -0.2746
  114MOL   C11713903   0.193   5.950   0.367  0.2127  0.2376  0.1564
  114MOL   F11813904   0.213   6.048   0.457 -0.3762  0.4858 -0.1913
  114MOL   H11913905   0.363   6.004   0.243 -0.3148 -0.2115 -0.2498
  114MOL   H12013906   0.202   6.071   0.190  0.3173 -0.9182 -1.2448
  114MOL   H12113907   0.228   5.854   0.405 -1.6438 -0.0782  1.1373
  114MOL   H12213908   0.085   5.948   0.348  0.6200 -0.5398 -2.2471
  115MOL     C113909   0.896   1.411   4.689  0.1852  0.2342  0.0659
  115MOL     C213910   0.746   1.402   4.703  0.3202 -0.4247 -0.0673
  115MOL     F313911   0.723   1.389   4.834  0.3839  0.2949  0.6969
  115MOL     H413912   0.939   1.449   4.782 -0.0468  3.2871 -1.0221
  115MOL     H513913   0.922   1.462   4.597  0.5367 -2.3027 -1.2925
  115MOL     H613914   0.717   1.311   4.651  1.2293 -0.0592 -1.2301
  115MOL     H713915   0.939   1.312   4.676 -0.1571 -0.1585  1.7002
  115MOL     C813916   0.678   1.534   4.647 -0.6655 -0.0085  0.2029
  115MOL     C913917   0.609   1.523   4.513 -0.8216 -0.1750  0.7341
  115MOL    F1013918   0.495   1.462   4.533  0.5421 -0.1841 -0.5665
  115MOL    H1113919   0.601   1.578   4.710 -1.8736 -2.4084  0.4777
  115MOL    H1213920   0.755   1.610   4.633 -0.1180  0.1911  3.7856
  115MOL    H1313921   0.664   1.449   4.453 -0.9274 -0.2383  0.7156
  115MOL    C1413922   0.574   1.646   4.430  0.1418 -0.1613  0.1812
  115MOL    C1513923   0.695   1.736   4.388  0.2148  0.1917  0.6311
  115MOL    F1613924   0.793   1.668   4.331 -0.3788  0.2180  0.1621
  115MOL    H1713925   0.522   1.602   4.345 -0.2463  1.5225 -0.4693
  115MOL    H1813926   0.501   1.717   4.471 -0.2392 -1.6123  2.1049
  115MOL    H1913927   0.740   1.797   4.467  1.9490 -0.7832  0.4087
  115MOL    C2013928   0.642   1.832   4.278 -0.1555  0.3723 -0.0332
  115MOL    C2113929   0.750   1.886   4.184 -0.2472 -0.4714 -0.3704
  115MOL    F2213930   0.687   1.955   4.083  0.3244  0.3173  0.2905
  115MOL    H2313931   0.571   1.780   4.213 -2.0776  3.3471 -0.3807
  115MOL    H2413932   0.577   1.906   4.324 -1.0301  0.4075 -1.2944
  115MOL    H2513933   0.802   1.804   4.133  0.2153  0.1682 -0.9369
  115MOL    C2613934   0.848   1.980   4.255 -0.0754 -0.5339 -0.1579
  115MOL    C2713935   0.967   2.014   4.175 -0.1439  0.1456  0.0774
  115MOL    F2813936   1.041   1.902   4.176  0.0716 -0.1841 -0.2827
  115MOL    H2913937   0.794   2.070   4.282  2.1187  0.5532  0.7004
  115MOL    H3013938   0.885   1.944   4.351 -2.6544 -0.0177  1.0575
  115MOL    H3113939   1.034   2.082   4.227 -0.1581  0.9487 -0.9508
  115MOL    C3213940   0.941   2.068   4.032 -0.0798  0.0677 -0.3305
  115MOL    C3313941   0.856   2.196   4.020  0.4139 -0.0672 -0.4055
  115MOL    F3413942   0.913   2.278   4.108  0.2064 -0.8418  0.4287
  115MOL    H3513943   1.037   2.079   3.983  0.3080 -1.4841  0.0564
  115MOL    H3613944   0.902   1.993   3.964  0.0204 -0.3485  0.0711
  115MOL    H3713945   0.753   2.192   4.056 -0.0586 -0.1102 -1.7292
  115MOL    C3813946   0.852   2.260   3.875  0.3472 -0.1932  0.3809
  115MOL    C3913947   0.757   2.382   3.852 -0.8503  0.4760  0.6753
  115MOL    F4013948   0.794   2.420   3.730  0.1490  0.5172  0.4418
  115MOL    H4113949   0.950   2.286   3.836  0.1210  2.3415  1.4292
  115MOL    H4213950   0.822   2.181   3.805  0.3878  1.0315 -1.0447
  115MOL    H4313951   0.776   2.470   3.913 -0.0666  0.1007  0.9865
  115MOL    C4413952   0.612   2.330   3.854 -0.1699  0.7971  0.6512
  115MOL    C4513953   0.498   2.420   3.808 -0.2744 -0.4998  0.1818
  115MOL    F4613954   0.505   2.538   3.879 -0.6260  0.3275  0.3853
  115MOL    H4713955   0.603   2.230   3.809  1.2849  0.4616  1.0736
  115MOL    H4813956   0.584   2.303   3.955  3.1846  1.8896  1.9552
  115MOL    H4913957   0.405   2.377   3.845  0.3060 -0.1382  2.0600
  115MOL    C5013958   0.493   2.447   3.651  0.0836  0.0522 -0.7448
  115MOL    C5113959   0.500   2.321   3.566  0.0328 -0.1476  0.2354
  115MOL    F5213960   0.415   2.236   3.613  0.4558 -0.2362 -0.0969
  115MOL    H5313961   0.395   2.484   3.623  0.9145  1.3158 -2.0305
  115MOL    H5413962   0.571   2.514   3.615  0.8140  0.8636  2.2199
  115MOL    H5513963   0.598   2.273   3.578  0.9022  1.1799 -1.3409
  115MOL    C5613964   0.474   2.344   3.413  0.0730 -0.2299 -0.4566
  115MOL    C5713965   0.564   2.445   3.340  0.0420  0.5570  0.0476
  115MOL    F5813966   0.696   2.426   3.352 -0.3833 -0.2529  0.2073
  115MOL    H5913967   0.492   2.254   3.354 -0.3572 -0.3064 -0.4717
  115MOL    H6013968   0.369   2.366   3.399  0.0511  0.1005  0.1741
  115MOL    H6113969   0.542   2.544   3.382 -0.6103  1.0334 -1.3738
  115MOL    C6213970   0.540   2.450   3.185 -0.6689  0.0066  0.2114
  115MOL    C6313971   0.615   2.565   3.115  0.5844 -0.3076  0.2433
  115MOL    F6413972   0.595   2.540   2.985  0.7477  0.6451  0.1936
  115MOL    H6513973   0.566   2.356   3.135 -2.7232 -0.3542 -0.2351
  115MOL    H6613974   0.431   2.450   3.177 -0.5513 -0.0656 -1.7302
  115MOL    H6713975   0.723   2.556   3.125  0.5687  1.3683  2.5697
  115MOL    C6813976   0.566   2.707   3.152  0.6664 -0.2851 -0.0227
  115MOL    C6913977   0.650   2.823   3.081 -0.0570 -0.3343 -0.1111
  115MOL    F7013978   0.580   2.940   3.101  0.0777  0.1971 -0.0657
  115MOL    H7113979   0.466   2.711   3.109  0.3569 -2.7535  0.3896
  115MOL    H7213980   0.548   2.725   3.258  0.5649  2.1254 -0.4027
  115MOL    H7313981   0.648   2.815   2.972  3.6649  2.8948 -0.5362
  115MOL    C7413982   0.796   2.838   3.121  0.6987  0.1109 -0.9635
  115MOL    C7513983   0.831   2.881   3.260  0.8955  0.1861  0.4135
  115MOL    F7613984   0.783   2.784   3.342 -0.2031 -0.1620 -0.3446
  115MOL    H7713985   0.844   2.742   3.101  1.3218 -0.0922  1.3004
  115MOL    H7813986   0.853   2.906   3.058  3.2640 -1.3191 -0.2673
  115MOL    H7913987   0.766   2.968   3.272  0.3646  0.1110 -1.7259
  115MOL    C8013988   0.978   2.908   3.288  0.1724  0.5235  0.0135
  115MOL    C8113989   1.009   2.936   3.431  0.0309  0.1082  0.7824
  115MOL    F8213990   1.141   2.919   3.449 -0.1329 -0.0683 -0.0403
  115MOL    H8313991   1.026   2.812   3.267  1.5351  1.2158 -0.1250
  115MOL    H8413992   1.015   2.982   3.216  2.7350  1.3775  2.1253
  115MOL    H8513993   0.959   2.857   3.489 -0.3631  0.5260  1.0174
  115MOL    C8613994   0.967   3.076   3.478 -0.4030  0.0281 -0.4133
  115MOL    C8713995   1.024   3.113   3.610 -0.4867 -0.3034 -0.7985
  115MOL    F8813996   1.017   3.239   3.626  0.2557 -0.1215  0.0114
  115MOL    H8913997   1.003   3.144   3.400  0.2742 -0.0652 -0.1874
  115MOL    H9013998   0.859   3.083   3.471 -0.4120 -0.7484 -1.1686
  115MOL    H9113999   1.130   3.089   3.606 -0.5211 -0.4272 -0.9617
  115MOL    C9214000   0.959   3.044   3.729  0.3181 -0.0868 -0.2990
  115MOL    C9314001   1.038   3.042   3.856  0.1505 -0.9695 -0.0054
  115MOL    F9414002   1.048   3.170   3.898  0.2115  0.4983  0.3349
  115MOL    H9514003   0.866   3.097   3.751  0.2651 -0.7630  1.1281
  115MOL    H9614004   0.916   2.946   3.712 -0.5881  0.4126 -0.9418
  115MOL    H9714005   1.140   3.007   3.840  1.1849  1.7052  0.4868
  115MOL    C9814006   0.967   2.967   3.973  0.2332 -0.0053 -0.8736
  115MOL    C9914007   1.052   2.958   4.098 -0.1829 -0.5036 -0.4721
  115MOL   F10014008   1.146   2.865   4.082  0.3981  0.3738  0.2904
  115MOL   H10114009   0.879   3.022   4.007  0.7304 -0.6688  1.6125
  115MOL   H10214010   0.927   2.867   3.953  0.9672 -0.5644  0.3876
  115MOL   H10314011   0.975   2.936   4.172 -1.5775 -1.6965 -2.2072
  115MOL   C10414012   1.119   3.088   4.137  0.1737  0.2557  1.0869
  115MOL   C10514013   1.180   3.101   4.274  0.0273 -0.5252 -0.0854
  115MOL   F10614014   1.300   3.058   4.293 -0.2876  0.2612  0.3041
  115MOL   H10714015   1.204   3.117   4.074  0.7923 -3.2971  0.2127
  115MOL   H10814016   1.041   3.163   4.122 -0.4297 -0.4946  0.4549
  115MOL   H10914017   1.115   3.053   4.347 -1.7330 -0.7722 -1.7564
  115MOL   C11014018   1.190   3.248   4.317  0.1902 -0.7098  0.2557
  115MOL   C11114019   1.317   3.326   4.282 -1.0162 -0.5695  0.1037
  115MOL   F11214020   1.299   3.392   4.170 -0.2719 -0.2084 -0.1709
  115MOL   H11314021   1.101   3.307   4.292  1.5123  0.3126 -2.2103
  115MOL   H11414022   1.184   3.237   4.426 -1.3995  2.0756  0.5036
  115MOL   H11514023   1.398   3.257   4.261 -1.8654 -2.0427  1.5879
  115MOL   C11614024   1.352   3.422   4.394 -0.4115 -0.5438 -0.1843
  115MOL   C11714025   1.494   3.474   4.381  0.7090  0.1112 -0.0313
  115MOL   F11814026   1.521   3.554   4.481 -0.1305 -0.0329  0.1126
  115MOL   H11914027   1.275   3.497   4.409  0.3936  0.1560  0.5194
  115MOL   H12014028   1.354   3.374   4.492 -2.6884 -0.1136  0.0901
  115MOL   H12114029   1.515   3.531   4.290  1.9799  2.5505  1.7397
  115MOL   H12214030   1.568   3.394   4.384  1.9372  1.2828  1.6570
  116MOL     C114031   3.281   2.404   5.130  0.5661 -0.0546 -0.4066
  116MOL     C214032   3.354   2.496   5.228 -0.5843 -0.4122 -1.1022
  116MOL     F314033   3.359   2.434   5.345  0.3672  0.5338  0.0469
  116MOL     H414034   3.248   2.457   5.040 -1.1001 -1.3468 -0.5737
  116MOL     H514035   3.188   2.359   5.164 -0.1949  0.1653 -2.1017
  116MOL     H614036   3.295   2.587   5.233 -2.0451 -1.3875 -0.4998
  116MOL     H714037   3.343   2.325   5.089 -0.7175 -0.4933 -1.5678
  116MOL     C814038   3.502   2.527   5.179  0.3576 -0.2858 -0.0698
  116MOL     C914039   3.501   2.623   5.055 -0.2761  0.3215 -0.4203
  116MOL    F1014040   3.463   2.742   5.106  0.3293  0.0045 -0.2075
  116MOL    H1114041   3.564   2.566   5.259  0.1564  0.3302 -0.2082
  116MOL    H1214042   3.532   2.428   5.145  0.6538 -0.2543  0.0999
  116MOL    H1314043   3.421   2.598   4.985 -2.7497  0.7138  2.1920
  116MOL    C1414044   3.638   2.640   4.987 -0.6114  0.0135  0.1584
  116MOL    C1514045   3.624   2.687   4.848 -0.6055  0.1484 -0.4804
  116MOL    F1614046   3.587   2.812   4.868  0.2317  0.1148  0.7864
  116MOL    H1714047   3.698   2.704   5.052 -1.9062  1.8064 -0.3609
  116MOL    H1814048   3.675   2.538   4.984  0.9015  0.4192  2.9070
  116MOL    H1914049   3.541   2.637   4.798 -1.9256 -2.0857  3.7156
  116MOL    C2014050   3.745   2.674   4.755 -0.4337 -0.3302  0.3426
  116MOL    C2114051   3.866   2.762   4.794  0.5567 -0.0642 -0.1372
  116MOL    F2214052   3.930   2.722   4.903 -0.4330 -0.1136 -0.5212
  116MOL    H2314053   3.781   2.574   4.733 -1.2982 -0.7160  0.6455
  116MOL    H2414054   3.721   2.700   4.652  1.4434 -0.0787 -0.0401
  116MOL    H2514055   3.833   2.858   4.833  2.4959  0.1339  1.1075
  116MOL    C2614056   3.971   2.785   4.680 -1.1644  0.0368  0.2511
  116MOL    C2714057   3.918   2.881   4.580  0.0353  1.0899  0.1836
  116MOL    F2814058   3.920   3.001   4.629  0.1416  0.3624 -0.1439
  116MOL    H2914059   4.062   2.828   4.720 -0.2941  0.0206 -1.6218
  116MOL    H3014060   3.992   2.688   4.635  2.3819  1.8433 -2.2633
  116MOL    H3114061   3.812   2.857   4.568  0.4498 -0.9248  0.4876
  116MOL    C3214062   3.988   2.884   4.442  0.2567 -0.1590  0.5508
  116MOL    C3314063   3.960   2.750   4.363  0.8127  0.0582  0.5724
  116MOL    F3414064   3.831   2.743   4.331 -0.0115  0.4157 -0.2207
  116MOL    H3514065   3.958   2.974   4.387 -1.2935 -0.8371  0.2861
  116MOL    H3614066   4.096   2.893   4.459  0.9321 -1.5926 -2.5535
  116MOL    H3714067   3.982   2.665   4.428 -1.9835 -0.0460  1.4355
  116MOL    C3814068   4.042   2.728   4.237  0.1567 -0.6871 -0.1842
  116MOL    C3914069   3.989   2.617   4.147 -0.0130  0.6393 -0.1040
  116MOL    F4014070   4.066   2.617   4.035  0.3394  0.0613  0.1180
  116MOL    H4114071   4.042   2.815   4.172 -0.5982 -0.0777  0.6072
  116MOL    H4214072   4.146   2.710   4.265  0.3123  0.4657  0.0031
  116MOL    H4314073   3.889   2.646   4.115  0.1260  0.0222 -1.1318
  116MOL    C4414074   3.993   2.473   4.209 -0.2805  0.2962 -0.8317
  116MOL    C4514075   3.964   2.353   4.112 -0.7748 -0.3758  0.6067
  116MOL    F4614076   3.981   2.235   4.171 -0.1206 -0.0027  0.1218
  116MOL    H4714077   4.092   2.458   4.251 -1.2581  1.1225  1.8398
  116MOL    H4814078   3.924   2.472   4.293 -0.7303  0.4848 -1.1942
  116MOL    H4914079   4.027   2.354   4.023  1.9561 -0.3256  2.5131
  116MOL    C5014080   3.822   2.371   4.060  0.1626 -0.2755  0.1674
  116MOL    C5114081   3.788   2.272   3.950  0.1903 -0.0623  0.0747
  116MOL    F5214082   3.661   2.301   3.934 -0.0985  0.5061 -0.0844
  116MOL    H5314083   3.744   2.373   4.136  0.1929  3.4595  0.2148
  116MOL    H5414084   3.828   2.469   4.011  0.8026 -0.3275  0.1420
  116MOL    H5514085   3.797   2.169   3.986  3.0939  0.6843  1.5829
  116MOL    C5614086   3.852   2.287   3.807  0.5630  0.3098 -0.4914
  116MOL    C5714087   3.812   2.177   3.702  0.0683 -1.1254  0.4734
  116MOL    F5814088   3.869   2.063   3.741  0.0610 -0.3388 -0.2109
  116MOL    H5914089   3.833   2.390   3.774  0.1867  0.5003  0.3015
  116MOL    H6014090   3.959   2.286   3.824  0.5494  1.6280 -0.2560
  116MOL    H6114091   3.864   2.201   3.610 -0.5474 -1.7826 -0.0490
  116MOL    C6214092   3.661   2.160   3.679 -0.2313  0.1349  0.0343
  116MOL    C6314093   3.636   2.059   3.567  0.3680 -0.4073 -0.6727
  116MOL    F6414094   3.502   2.054   3.558  0.3371 -0.0273  0.3594
  116MOL    H6514095   3.621   2.113   3.769 -0.6164 -0.7023 -0.5708
  116MOL    H6614096   3.617   2.259   3.664 -0.5154  0.0268  0.1552
  116MOL    H6714097   3.656   1.961   3.608 -0.9761 -0.1334  0.6650
  116MOL    C6814098   3.686   2.084   3.424 -0.6640  0.2962 -0.2830
  116MOL    C6914099   3.662   2.226   3.366  0.2246  0.0267 -0.2440
  116MOL    F7014100   3.739   2.313   3.434  0.4315 -0.0142  0.4230
  116MOL    H7114101   3.793   2.064   3.416 -0.5771  1.8957 -4.3666
  116MOL    H7214102   3.652   2.011   3.351  0.0204  0.2098 -0.5174
  116MOL    H7314103   3.559   2.255   3.383  0.7359  0.8305  1.6343
  116MOL    C7414104   3.686   2.232   3.217 -0.4049 -1.4513  0.9128
  116MOL    C7514105   3.650   2.368   3.157  0.3105 -0.0476  0.3903
  116MOL    F7614106   3.727   2.465   3.211 -0.0343  0.4748  0.7901
  116MOL    H7714107   3.792   2.215   3.195 -0.3832  1.1212 -1.1792
  116MOL    H7814108   3.620   2.154   3.179 -2.2526  0.6672 -0.3469
  116MOL    H7914109   3.550   2.409   3.168  0.6370  0.8341  0.1559
  116MOL    C8014110   3.692   2.381   3.007  0.5962 -0.6310  0.6146
  116MOL    C8114111   3.658   2.509   2.948  0.5295 -0.1771 -0.4899
  116MOL    F8214112   3.721   2.499   2.829  0.3762  0.1233 -0.1813
  116MOL    H8314113   3.800   2.366   3.005  0.6618 -0.4714  2.2389
  116MOL    H8414114   3.654   2.296   2.950 -0.1382 -1.4250  2.2435
  116MOL    H8514115   3.696   2.595   3.003 -0.8667 -0.3550  0.7922
  116MOL    C8614116   3.501   2.545   2.927 -0.0051 -0.3977  0.0899
  116MOL    C8714117   3.425   2.632   3.029  0.5718  0.0562  0.1200
  116MOL    F8814118   3.493   2.747   3.051  0.7057 -0.5946 -0.2907
  116MOL    H8914119   3.500   2.597   2.831 -1.0244 -2.9589 -1.3347
  116MOL    H9014120   3.438   2.456   2.917 -2.0185  1.1400 -1.1606
  116MOL    H9114121   3.425   2.584   3.127 -2.3896 -0.2823 -0.0239
  116MOL    C9214122   3.287   2.673   2.977 -0.1362 -0.2745 -0.0353
  116MOL    C9314123   3.181   2.557   2.959 -0.0768  0.7196 -1.4547
  116MOL    F9414124   3.152   2.499   3.080  0.2183  0.2464  0.2085
  116MOL    H9514125   3.244   2.749   3.042  0.1563 -1.5672  1.7153
  116MOL    H9614126   3.285   2.723   2.880  0.2216 -2.5943 -1.2879
  116MOL    H9714127   3.232   2.478   2.904 -0.5100  0.3979 -1.3949
  116MOL    C9814128   3.059   2.598   2.877 -0.1923 -0.0286 -1.1768
  116MOL    C9914129   2.947   2.489   2.864  0.4748 -0.8835 -0.7477
  116MOL   F10014130   2.843   2.554   2.812 -0.0214 -0.3035 -0.3783
  116MOL   H10114131   3.019   2.690   2.920  0.5924 -0.1788 -0.0943
  116MOL   H10214132   3.082   2.618   2.773 -1.7945 -1.7912 -1.9020
  116MOL   H10314133   2.914   2.464   2.964  0.2610  0.3170 -0.5071
  116MOL   C10414134   2.983   2.371   2.772  0.1278  0.2065 -0.0674
  116MOL   C10514135   2.872   2.267   2.762 -0.3802 -0.2799 -1.0120
  116MOL   F10614136   2.887   2.194   2.649 -0.1531 -0.1300 -0.3567
  116MOL   H10714137   3.003   2.417   2.675  1.1418  0.4785  0.2623
  116MOL   H10814138   3.077   2.332   2.811 -0.5301 -1.7032 -0.3354
  116MOL   H10914139   2.781   2.318   2.730 -1.3391 -0.4406  1.3627
  116MOL   C11014140   2.854   2.193   2.891  0.1652 -0.3068  1.2664
  116MOL   C11114141   2.767   2.063   2.870  0.2085 -0.6282  0.4772
  116MOL   F11214142   2.767   1.984   2.973 -0.5151 -0.0156 -0.0217
  116MOL   H11314143   2.957   2.170   2.918  0.2720 -0.1177  1.0234
  116MOL   H11414144   2.817   2.259   2.969 -0.1292  0.4883  0.4663
  116MOL   H11514145   2.799   2.014   2.778  2.5169  1.7910 -0.0715
  116MOL   C11614146   2.615   2.089   2.860  0.1974  0.3187  0.7321
  116MOL   C11714147   2.556   2.124   2.997 -0.3085 -0.2337  0.2204
  116MOL   F11814148   2.421   2.138   2.986 -0.1707  0.1058  0.3195
  116MOL   H11914149   2.606   2.163   2.781  3.0473  0.0827  0.1128
  116MOL   H12014150   2.568   1.997   2.824  2.6766 -1.0266  0.8053
  116MOL   H12114151   2.590   2.225   3.021 -0.6255 -0.2000  0.5337
  116MOL   H12214152   2.578   2.047   3.071 -0.9182 -1.9868 -1.4041
  117MOL     C114153   4.238   3.491   7.538  0.6599 -0.2836 -0.2437
  117MOL     C214154   4.240   3.468   7.690 -0.3879  0.1787  0.0538
  117MOL     F314155   4.307   3.359   7.705 -0.7733  0.4364 -0.0377
  117MOL     H414156   4.339   3.524   7.513  0.7803  2.7656  3.8071
  117MOL     H514157   4.174   3.572   7.501  0.5443 -0.1685  0.2131
  117MOL     H614158   4.137   3.442   7.717 -0.2002 -1.6554 -0.9247
  117MOL     H714159   4.213   3.403   7.478 -2.5542 -1.5561  2.7822
  117MOL     C814160   4.291   3.590   7.771  0.0912  0.1101  0.1679
  117MOL     C914161   4.241   3.579   7.911  0.9078  0.9995 -0.6299
  117MOL    F1014162   4.301   3.476   7.973 -0.4195 -0.4157  0.1096
  117MOL    H1114163   4.399   3.599   7.773  0.0544  0.5537  0.1205
  117MOL    H1214164   4.238   3.674   7.726 -0.8926  0.3795  1.8076
  117MOL    H1314165   4.134   3.557   7.910  1.3238 -1.0808 -0.1100
  117MOL    C1414166   4.272   3.718   7.976  0.7318 -0.0785  0.5059
  117MOL    C1514167   4.188   3.743   0.099  0.4506  0.1207 -0.2059
  117MOL    F1614168   4.231   3.660   0.197 -0.0746  0.0668 -0.3191
  117MOL    H1714169   4.377   3.735   7.994  0.5993 -0.3264  1.5180
  117MOL    H1814170   4.235   3.787   7.899 -0.1180 -0.4179  0.5949
  117MOL    H1914171   4.083   3.719   0.083  0.6288 -0.5415 -0.4179
  117MOL    C2014172   4.214   3.887   0.146 -0.0958 -0.6756  0.1897
  117MOL    C2114173   4.105   3.956   0.230 -0.1340 -0.0053  0.4100
  117MOL    F2214174   4.076   3.872   0.330 -0.1263 -0.1785  0.1004
  117MOL    H2314175   4.305   3.882   0.206  0.8011 -0.2677 -1.1138
  117MOL    H2414176   4.246   3.945   0.060 -1.1881  1.2673  1.0729
  117MOL    H2514177   4.019   3.972   0.165  1.3104  1.7579 -1.1328
  117MOL    C2614178   4.138   4.097   0.285 -0.2162 -0.1950 -0.2686
  117MOL    C2714179   4.160   4.204   0.178  0.2803  0.5202 -0.0134
  117MOL    F2814180   4.062   4.201   0.090  0.1672 -0.3952 -0.3759
  117MOL    H2914181   4.060   4.136   0.350  0.0968  0.8854 -0.5311
  117MOL    H3014182   4.226   4.088   0.348 -0.8965  1.3682  0.9518
  117MOL    H3114183   4.250   4.189   0.118  1.3532  0.4871  1.5878
  117MOL    C3214184   4.169   4.345   0.235 -0.2614 -1.0030  0.1718
  117MOL    C3314185   4.176   4.456   0.127  0.6743 -0.1725  0.1905
  117MOL    F3414186   4.049   4.459   0.072 -0.0210  0.4159  0.0991
  117MOL    H3514187   4.078   4.365   0.292 -0.3778  1.8412 -0.9626
  117MOL    H3614188   4.260   4.351   0.294  0.8319 -1.2390 -1.4643
  117MOL    H3714189   4.249   4.441   0.047 -0.1521  2.2399 -1.0910
  117MOL    C3814190   4.197   4.598   0.186 -1.2536  0.0556  0.1042
  117MOL    C3914191   4.216   4.707   0.079  0.2194 -0.1058  0.5797
  117MOL    F4014192   4.306   4.668   7.986  0.0598  0.2840  0.0390
  117MOL    H4114193   4.129   4.630   0.265 -1.0234  1.7054 -0.3437
  117MOL    H4214194   4.293   4.595   0.239 -0.4198  1.0943 -1.2987
  117MOL    H4314195   4.262   4.790   0.132  2.6332 -1.0758  0.0380
  117MOL    C4414196   4.086   4.737   0.004  0.7671 -0.1474  0.4896
  117MOL    C4514197   4.091   4.860   7.913 -0.1086 -0.4029  0.5241
  117MOL    F4614198   3.966   4.875   7.856  0.1438  0.0972  0.4097
  117MOL    H4714199   4.051   4.656   7.944  0.0378  1.5473 -1.3157
  117MOL    H4814200   4.002   4.763   0.068 -0.0472 -3.1883  0.6932
  117MOL    H4914201   4.154   4.838   7.827  0.1049  2.8305 -0.2235
  117MOL    C5014202   4.144   4.993   7.975  0.0765  0.1658  0.2847
  117MOL    C5114203   4.054   5.048   0.084 -0.7442  0.5442 -0.2844
  117MOL    F5214204   4.055   4.969   0.200  0.1267  0.1767 -0.2612
  117MOL    H5314205   4.247   4.983   0.009 -0.2981 -0.8079  1.0795
  117MOL    H5414206   4.152   5.069   7.898 -0.9507  0.9050  0.8990
  117MOL    H5514207   3.950   5.031   0.053 -2.0887  0.9260  3.7580
  117MOL    C5614208   4.071   5.192   0.111  0.7755 -0.2169  0.5462
  117MOL    C5714209   3.975   5.252   0.222 -0.0927  0.6068 -0.6684
  117MOL    F5814210   3.990   5.191   0.342 -0.1898  0.0350 -0.0422
  117MOL    H5914211   4.176   5.208   0.137  0.1158  1.2750  2.3732
  117MOL    H6014212   4.055   5.230   0.010 -2.6466  0.2932  1.2204
  117MOL    H6114213   3.872   5.225   0.201 -0.0642 -1.9271  2.1082
  117MOL    C6214214   3.970   5.397   0.237 -0.5028  0.3167 -0.2670
  117MOL    C6314215   4.104   5.466   0.270 -1.0519 -0.4139 -0.3757
  117MOL    F6414216   4.176   5.453   0.160  0.1991 -0.1502  0.1565
  117MOL    H6514217   3.931   5.456   0.153 -0.0648 -0.6208 -1.1424
  117MOL    H6614218   3.899   5.404   0.319  0.3483  2.1006  0.3431
  117MOL    H6714219   4.150   5.417   0.356  0.0783  0.1179 -0.6788
  117MOL    C6814220   4.070   5.615   0.297 -0.1546 -0.3734  0.3674
  117MOL    C6914221   4.185   5.706   0.342 -0.8377  0.3630  0.4936
  117MOL    F7014222   4.158   5.834   0.343 -0.6624  0.0410  0.0881
  117MOL    H7114223   4.028   5.656   0.206 -1.4969 -1.4489  0.4961
  117MOL    H7214224   3.987   5.619   0.368  0.1852  0.0338  0.7453
  117MOL    H7314225   4.267   5.709   0.270 -1.7072 -0.6095 -0.5514
  117MOL    C7414226   4.242   5.670   0.478  0.1028 -0.1006  0.1463
  117MOL    C7514227   4.137   5.695   0.591  0.0830 -0.0511 -0.1941
  117MOL    F7614228   4.059   5.592   0.591  0.2969  0.6738  0.0532
  117MOL    H7714229   4.283   5.570   0.472 -0.1964 -0.1355 -1.5234
  117MOL    H7814230   4.327   5.736   0.494  0.1698 -0.7297  2.5874
  117MOL    H7914231   4.078   5.785   0.574  0.6682  0.9077  2.5375
  117MOL    C8014232   4.215   5.710   0.719 -0.0668 -0.7278  0.4008
  117MOL    C8114233   4.324   5.605   0.753 -0.0061  0.7832  0.1752
  117MOL    F8214234   4.441   5.654   0.715 -0.2511 -0.3944  0.2107
  117MOL    H8314235   4.252   5.812   0.730 -2.2402 -0.1222  2.3313
  117MOL    H8414236   4.139   5.705   0.796  1.1553  1.9594  1.8855
  117MOL    H8514237   4.296   5.518   0.693 -2.1116  2.3031 -1.1206
  117MOL    C8614238   4.336   5.556   0.901 -0.3084  0.0344 -0.0172
  117MOL    C8714239   4.424   5.423   0.929  0.1716 -0.1362  0.4319
  117MOL    F8814240   4.361   5.311   0.892 -0.4034 -0.1966 -0.0097
  117MOL    H8914241   4.374   5.643   0.954  2.6723 -1.1675 -0.0925
  117MOL    H9014242   4.238   5.537   0.945 -0.9028  2.2026 -0.3499
  117MOL    H9114243   4.436   5.414   1.036  0.7920  1.1693  0.4793
  117MOL    C9214244   4.570   5.418   0.867  0.6504  0.1802  0.2010
  117MOL    C9314245   4.656   5.530   0.940  0.5531 -0.3276  0.3375
  117MOL    F9414246   4.663   5.486   1.064  0.0517 -0.5380  0.1008
  117MOL    H9514247   4.615   5.322   0.891  1.7433  0.5933 -0.1861
  117MOL    H9614248   4.575   5.434   0.759 -1.3773 -0.5760 -0.0240
  117MOL    H9714249   4.618   5.631   0.951 -0.4094 -0.5499 -0.7796
  117MOL    C9814250   4.800   5.540   0.885  0.2042 -0.2639 -0.1889
  117MOL    C9914251   4.813   5.624   0.757  0.0639  0.1057 -0.2539
  117MOL   F10014252   4.758   5.751   0.772  0.1799  0.4809 -0.4188
  117MOL   H10114253   4.862   5.579   0.966 -0.9516  1.5906 -0.1832
  117MOL   H10214254   4.840   5.441   0.863 -0.6198 -0.2677 -1.6784
  117MOL   H10314255   4.758   5.569   0.681 -0.3138 -0.7425  0.6194
  117MOL   C10414256   4.968   5.630   0.700  0.0402  0.3952 -0.6163
  117MOL   C10514257   4.973   5.699   0.559  0.9061 -0.1649  0.0403
  117MOL   F10614258   4.965   5.831   0.579 -0.6000  0.0023 -0.1600
  117MOL   H10714259   5.028   5.675   0.778 -1.4421 -0.5680  1.1236
  117MOL   H10814260   5.000   5.526   0.700  1.2402  0.7487 -1.9043
  117MOL   H10914261   4.884   5.678   0.500  1.3811 -1.9346 -0.0670
  117MOL   C11014262   5.098   5.664   0.484 -0.4496  0.8671 -1.0370
  117MOL   C11114263   5.100   5.533   0.395  0.3103 -0.3400  0.3869
  117MOL   F11214264   5.008   5.547   0.301  0.1016 -0.0891 -0.2487
  117MOL   H11314265   5.130   5.748   0.422  0.9876  0.1887 -1.2314
  117MOL   H11414266   5.185   5.653   0.548 -1.0917  0.1744 -0.2691
  117MOL   H11514267   5.083   5.446   0.459  3.5028 -1.0326  0.3580
  117MOL   C11614268   5.226   5.502   0.322  0.1683  0.2823  0.4159
  117MOL   C11714269   5.228   5.365   0.259  0.1279 -0.6073 -0.2145
  117MOL   F11814270   5.353   5.333   0.222 -0.1068 -0.0957  0.5786
  117MOL   H11914271   5.240   5.580   0.246  0.5383 -0.2307 -0.0468
  117MOL   H12014272   5.319   5.501   0.379  1.1577 -0.0592 -1.1734
  117MOL   H12114273   5.165   5.356   0.171 -0.5736 -0.7816  0.2953
  117MOL   H12214274   5.194   5.286   0.326  1.3959  0.8425  2.2046
  118MOL     C114275   7.672   6.259   1.194 -0.3883 -0.9385 -0.2884
  118MOL     C214276   7.696   6.409   1.234  0.6415 -0.7116  0.4246
  118MOL     F314277   7.744   6.410   1.361 -0.2227  0.5994 -0.2354
  118MOL     H414278   7.634   6.245   1.093 -1.8532  0.9356 -0.0108
  118MOL     H514279   7.591   6.222   1.257  0.1032  1.1861  1.6536
  118MOL     H614280   7.607   6.472   1.227  1.6179  0.4587 -2.3616
  118MOL     H714281   7.754   6.191   1.220  1.8721  2.0104  0.5727
  118MOL     C814282   7.808   6.470   1.144 -0.1304  0.0135 -0.2532
  118MOL     C914283   7.766   6.522   1.000  0.3263  0.3762 -0.1558
  118MOL    F1014284   7.712   6.644   1.025 -0.7540  0.1198  0.2835
  118MOL    H1114285   7.862   6.553   1.190  0.2687 -0.2756 -0.2056
  118MOL    H1214286   7.879   6.388   1.138 -0.9657 -0.7491  0.1449
  118MOL    H1314287   7.695   6.458   0.947  0.6204 -1.7559  1.9450
  118MOL    C1414288   7.884   6.541   0.912 -0.2408  0.2171 -0.2033
  118MOL    C1514289   7.949   6.410   0.855 -1.0091  0.1378 -1.2007
  118MOL    F1614290   7.866   6.358   0.779  0.5609  0.0465  0.1682
  118MOL    H1714291   7.856   6.599   0.824  0.5328 -1.1996 -1.3982
  118MOL    H1814292   7.948   6.596   0.982  0.8850 -3.6686  1.9628
  118MOL    H1914293   7.967   6.343   0.939 -2.1314  2.5079  1.0449
  118MOL    C2014294   0.069   6.429   0.772  0.1152 -0.4498  0.0174
  118MOL    C2114295   0.188   6.491   0.845  0.8993 -0.2839 -0.3226
  118MOL    F2214296   0.242   6.398   0.931  0.2984 -0.4303 -0.5780
  118MOL    H2314297   0.113   6.331   0.753 -0.1101 -0.4185 -0.6387
  118MOL    H2414298   0.054   6.483   0.679  1.5498 -1.9934 -1.1352
  118MOL    H2514299   0.157   6.581   0.898  2.2638 -0.5651  0.9637
  118MOL    C2614300   0.299   6.532   0.750  0.3027  0.8828 -0.5742
  118MOL    C2714301   0.270   6.665   0.668 -0.3575 -0.6246 -0.2374
  118MOL    F2814302   0.287   6.780   0.745  0.7350 -0.2355 -0.1836
  118MOL    H2914303   0.395   6.535   0.803  1.4354 -0.1968 -2.4948
  118MOL    H3014304   0.317   6.449   0.681  0.5252 -0.0835  0.6347
  118MOL    H3114305   0.164   6.672   0.643  0.0861  0.5023 -1.9272
  118MOL    C3214306   0.359   6.693   0.548  0.4925 -0.6232  0.4456
  118MOL    C3314307   0.328   6.603   0.429 -0.0829  0.8438  0.3759
  118MOL    F3414308   0.212   6.654   0.382  0.4822 -0.4351  0.2494
  118MOL    H3514309   0.347   6.798   0.523 -4.9150 -1.4575 -1.0404
  118MOL    H3614310   0.463   6.670   0.573  0.4933 -1.2338 -0.1145
  118MOL    H3714311   0.297   6.506   0.469 -1.7615  0.8408 -0.8509
  118MOL    C3814312   0.435   6.607   0.314 -0.3320 -0.2588  1.0692
  118MOL    C3914313   0.546   6.510   0.314 -0.6757  0.5292  0.0310
  118MOL    F4014314   0.611   6.518   0.432 -0.0876  0.4416  0.1369
  118MOL    H4114315   0.386   6.581   0.221 -0.1809  0.3197  0.8257
  118MOL    H4214316   0.479   6.706   0.301 -1.5074  0.1495  0.1995
  118MOL    H4314317   0.612   6.530   0.230 -0.9808  0.5873 -0.1969
  118MOL    C4414318   0.499   6.371   0.286  0.0544 -0.1036  0.2216
  118MOL    C4514319   0.617   6.270   0.275  0.0755 -0.4211 -0.3257
  118MOL    F4614320   0.567   6.150   0.298 -0.4740  0.0246 -0.2058
  118MOL    H4714321   0.441   6.344   0.375  1.2121  2.1654  1.7128
  118MOL    H4814322   0.432   6.361   0.200 -0.5003  1.7626  0.4131
  118MOL    H4914323   0.695   6.281   0.350  0.1337  2.7679 -0.7961
  118MOL    C5014324   0.677   6.264   0.133 -0.0758 -0.0421  0.0093
  118MOL    C5114325   0.825   6.206   0.141 -0.1133 -0.6640  0.7013
  118MOL    F5214326   0.805   6.088   0.195 -0.1316 -0.2085  0.2854
  118MOL    H5314327   0.612   6.195   0.080  0.0758  0.5865 -1.0225
  118MOL    H5414328   0.666   6.357   0.077  1.2586  0.8120  1.1450
  118MOL    H5514329   0.895   6.264   0.202  0.4428  0.4627 -1.0003
  118MOL    C5614330   0.882   6.188   8.002  0.3207  0.3139 -0.3260
  118MOL    C5714331   1.030   6.126   8.002  0.6123 -0.6288  0.3880
  118MOL    F5814332   1.057   6.062   7.886  0.1284  0.1665 -0.4636
  118MOL    H5914333   0.823   6.117   7.944  0.9544 -0.0170 -0.5663
  118MOL    H6014334   0.887   6.277   7.940 -2.7016  0.1849 -0.8240
  118MOL    H6114335   1.023   6.050   0.076  1.0127 -0.7426  0.3079
  118MOL    C6214336   1.143   6.230   0.028  0.2267  0.3108  0.2867
  118MOL    C6314337   1.288   6.175   0.029 -0.4924  0.9884  0.2243
  118MOL    F6414338   1.384   6.267   0.028 -0.3785 -0.3632 -0.2311
  118MOL    H6514339   1.147   6.294   7.943  1.2044  2.1764  1.6495
  118MOL    H6614340   1.120   6.269   0.127  0.2126  0.5745  0.1795
  118MOL    H6714341   1.317   6.139   7.933  0.7830  1.4695  0.4140
  118MOL    C6814342   1.322   6.077   0.139  0.3691 -0.1784 -0.1593
  118MOL    C6914343   1.329   6.132   0.284  0.6599 -0.5766  0.0736
  118MOL    F7014344   1.215   6.188   0.326 -0.6783 -0.3741 -0.5237
  118MOL    H7114345   1.245   6.001   0.129  1.3463 -1.0689 -1.0987
  118MOL    H7214346   1.417   6.032   0.110  0.0456  0.6142 -2.5731
  118MOL    H7314347   1.407   6.208   0.285 -0.3135  0.4364  2.5898
  118MOL    C7414348   1.369   6.031   0.388 -0.0359 -0.0512 -0.1593
  118MOL    C7514349   1.509   5.978   0.380 -0.2195 -0.5511 -0.3812
  118MOL    F7614350   1.594   6.079   0.385 -0.2928  0.2451  0.0480
  118MOL    H7714351   1.366   6.082   0.484 -0.7605 -1.2334  0.4658
  118MOL    H7814352   1.297   5.950   0.399  0.2477 -0.1392  1.0834
  118MOL    H7914353   1.526   5.923   0.287  2.2671  0.2574 -0.4577
  118MOL    C8014354   1.537   5.863   0.489  0.1200  0.1919  0.6050
  118MOL    C8114355   1.453   5.736   0.474 -0.3868 -0.2462 -0.7817
  118MOL    F8214356   1.477   5.661   0.367 -0.3880  0.0997 -0.4108
  118MOL    H8314357   1.643   5.841   0.471  0.7134  1.6951  2.1840
  118MOL    H8414358   1.530   5.903   0.589  0.3235  2.3682 -0.2228
  118MOL    H8514359   1.347   5.762   0.473 -0.3952 -0.2267  0.2769
  118MOL    C8614360   1.455   5.652   0.599 -0.0511  0.1246  0.1350
  118MOL    C8714361   1.338   5.564   0.639  0.8094 -0.7772 -0.4084
  118MOL    F8814362   1.311   5.479   0.539  0.0543  0.0923 -0.1794
  118MOL    H8914363   1.545   5.589   0.601 -0.2527 -0.2122 -0.9248
  118MOL    H9014364   1.485   5.710   0.686  0.4245  0.7111 -0.4191
  118MOL    H9114365   1.244   5.617   0.654 -0.3725 -2.8692 -0.2089
  118MOL    C9214366   1.360   5.491   0.769  0.0994  0.3927 -0.0095
  118MOL    C9314367   1.242   5.398   0.803 -0.4296 -0.0972 -0.0698
  118MOL    F9414368   1.275   5.323   0.910  0.1079  0.0339 -0.0087
  118MOL    H9514369   1.450   5.430   0.758 -0.1126  0.5521 -3.0712
  118MOL    H9614370   1.380   5.573   0.838  2.1020  0.0708 -0.1792
  118MOL    H9714371   1.238   5.323   0.724 -0.3951 -0.1425 -0.0288
  118MOL    C9814372   1.107   5.471   0.818  0.3500  0.1108  0.4821
  118MOL    C9914373   1.002   5.368   0.861 -0.5301  1.0784  0.6117
  118MOL   F10014374   1.007   5.355   0.994  0.1919 -0.3491 -0.2769
  118MOL   H10114375   1.112   5.551   0.892 -2.3340  0.2206  0.5770
  118MOL   H10214376   1.072   5.518   0.726  1.5692  0.7870  0.3511
  118MOL   H10314377   1.034   5.270   0.826 -1.8558  0.9451 -0.2939
  118MOL   C10414378   0.858   5.400   0.828  0.4267  0.3303 -0.0571
  118MOL   C10514379   0.813   5.386   0.681  0.9130  0.1008 -0.1563
  118MOL   F10614380   0.812   5.255   0.675 -0.5815  0.2867 -0.1053
  118MOL   H10714381   0.788   5.349   0.895  0.0198  0.3865 -0.4375
  118MOL   H10814382   0.843   5.501   0.866 -1.5895  0.0350 -0.0315
  118MOL   H10914383   0.893   5.433   0.623  0.4846  3.1098  1.5654
  118MOL   C11014384   0.672   5.441   0.641 -0.1599  0.0399 -0.3415
  118MOL   C11114385   0.661   5.590   0.661  0.0339 -0.0067  0.7265
  118MOL   F11214386   0.754   5.635   0.574  0.0797 -0.3666 -0.1393
  118MOL   H11314387   0.650   5.413   0.538 -3.0824 -2.3766  0.8672
  118MOL   H11414388   0.585   5.402   0.693 -0.1790  0.7973  0.2084
  118MOL   H11514389   0.704   5.628   0.754 -0.8306 -0.3635  1.2755
  118MOL   C11614390   0.524   5.657   0.651 -0.1514  0.0200  0.5419
  118MOL   C11714391   0.411   5.595   0.736 -0.2136  0.2048 -0.2924
  118MOL   F11814392   0.307   5.676   0.750 -0.1344 -0.0714  0.7142
  118MOL   H11914393   0.537   5.764   0.665 -1.9023  0.1575  1.2884
  118MOL   H12014394   0.488   5.650   0.549 -0.3037  2.0816  0.4318
  118MOL   H12114395   0.440   5.576   0.840  1.5406  1.8978 -0.4425
  118MOL   H12214396   0.375   5.503   0.689 -1.9905 -0.1662  1.7094
  119MOL     C114397   3.056   6.805   1.606 -0.2601 -0.5810  0.1449
  119MOL     C214398   3.020   6.832   1.748 -0.2460 -0.0149  0.2667
  119MOL     F314399   3.017   6.963   1.772 -0.0277  0.1829  0.0629
  119MOL     H414400   3.154   6.848   1.582 -0.3730 -1.0979 -1.2804
  119MOL     H514401   2.975   6.834   1.540 -0.3131 -1.5090 -0.2040
  119MOL     H614402   3.105   6.793   1.802 -0.1004  1.7806  1.3876
  119MOL     H714403   3.068   6.698   1.587 -0.8126 -0.2522 -2.1781
  119MOL     C814404   2.892   6.773   1.806 -0.2585 -0.4260 -0.3164
  119MOL     C914405   2.890   6.621   1.789 -0.0029  0.4393 -0.4344
  119MOL    F1014406   2.998   6.575   1.857 -0.1183  0.0439  0.1911
  119MOL    H1114407   2.887   6.813   1.907 -0.2847 -1.5657  0.1414
  119MOL    H1214408   2.807   6.818   1.754  0.3902 -0.7457 -1.6796
  119MOL    H1314409   2.899   6.591   1.685  1.1469  0.1857 -0.2764
  119MOL    C1414410   2.767   6.555   1.851  0.5823 -0.4937 -0.0086
  119MOL    C1514411   2.631   6.588   1.778 -0.6044  0.0476 -0.5653
  119MOL    F1614412   2.656   6.588   1.644 -0.6470 -0.3881 -0.1021
  119MOL    H1714413   2.786   6.449   1.836  0.7461 -0.4540 -0.0864
  119MOL    H1814414   2.753   6.572   1.958  1.5803  0.3000 -0.0044
  119MOL    H1914415   2.604   6.688   1.811 -0.4687  0.2912 -1.1794
  119MOL    C2014416   2.528   6.481   1.796 -0.4284 -0.3891 -1.1796
  119MOL    C2114417   2.407   6.498   1.704 -0.5505  0.4206  0.1084
  119MOL    F2214418   2.334   6.385   1.715  0.1491 -0.2041  0.1442
  119MOL    H2314419   2.570   6.391   1.751  0.4125  0.8272 -2.9083
  119MOL    H2414420   2.509   6.439   1.895 -3.1919 -0.9760 -1.9174
  119MOL    H2514421   2.438   6.502   1.600 -3.1493 -0.0094 -0.7083
  119MOL    C2614422   2.309   6.617   1.733 -0.9194  0.1496  0.3404
  119MOL    C2714423   2.242   6.612   1.872  0.1421 -0.3935  0.0053
  119MOL    F2814424   2.338   6.617   1.970  0.2047  0.1668 -0.4609
  119MOL    H2914425   2.352   6.710   1.696 -1.5557 -0.7111 -2.7010
  119MOL    H3014426   2.225   6.606   1.664 -0.4901  0.8499 -0.2996
  119MOL    H3114427   2.198   6.513   1.885  0.6854 -0.4963  1.0462
  119MOL    C3214428   2.109   6.692   1.901 -0.7399 -0.0894 -0.1763
  119MOL    C3314429   2.129   6.836   1.946 -0.0832 -0.0791 -0.4486
  119MOL    F3414430   2.195   6.916   1.863  0.0518  0.0091  0.1518
  119MOL    H3514431   2.052   6.708   1.810 -1.3138  0.8669  0.3382
  119MOL    H3614432   2.057   6.635   1.979  1.1816 -0.5250  0.8033
  119MOL    H3714433   2.187   6.828   2.038  0.1810  1.1872 -0.5022
  119MOL    C3814434   1.994   6.897   1.988 -0.8264 -0.3568  0.4030
  119MOL    C3914435   2.000   7.053   2.002  0.0298 -0.9211 -0.1638
  119MOL    F4014436   1.870   7.094   1.997 -0.5542 -0.2349  0.6263
  119MOL    H4114437   1.921   6.875   1.910  0.5967 -0.6776 -0.8751
  119MOL    H4214438   1.958   6.850   2.080 -0.9932  1.0266  1.0485
  119MOL    H4314439   2.037   7.098   1.910 -3.2981  2.0375 -0.1208
  119MOL    C4414440   2.064   7.103   2.132 -0.2708  0.3736 -0.3228
  119MOL    C4514441   2.098   7.254   2.126 -0.3528 -0.5253  0.4490
  119MOL    F4614442   2.196   7.270   2.042 -0.6619 -0.5753 -0.5342
  119MOL    H4714443   1.995   7.095   2.216  0.7210 -1.2884  0.3295
  119MOL    H4814444   2.159   7.055   2.151 -1.3440 -0.7739  2.2914
  119MOL    H4914445   2.142   7.279   2.223  0.9705  0.4319 -0.3695
  119MOL    C5014446   1.996   7.356   2.070 -0.0368 -0.0868  0.9990
  119MOL    C5114447   1.900   7.381   2.189 -0.3875 -1.3034 -0.0211
  119MOL    F5214448   1.956   7.454   2.283 -0.6191  0.5728 -0.1966
  119MOL    H5314449   2.044   7.451   2.048 -2.5007  0.8450 -0.6308
  119MOL    H5414450   1.953   7.333   1.973  3.2436  2.2031 -1.0920
  119MOL    H5514451   1.869   7.285   2.230  0.1746 -1.4440  0.0786
  119MOL    C5614452   1.769   7.443   2.143  0.8544 -0.3377 -0.2006
  119MOL    C5714453   1.641   7.408   2.221 -0.2977  0.1703 -0.2212
  119MOL    F5814454   1.600   7.290   2.183  0.0852  0.5037  0.4772
  119MOL    H5914455   1.782   7.551   2.153  1.3145 -0.6050  2.3619
  119MOL    H6014456   1.751   7.432   2.036  1.4379  1.1044 -0.4653
  119MOL    H6114457   1.568   7.485   2.198  0.0839  0.4207 -0.5896
  119MOL    C6214458   1.636   7.403   2.376  0.4430 -0.0054  0.1371
  119MOL    C6314459   1.500   7.365   2.429  0.5791  0.6217 -0.9176
  119MOL    F6414460   1.412   7.452   2.380  0.5624  0.1920  0.4503
  119MOL    H6514461   1.712   7.347   2.429 -0.9286 -2.5605 -0.4871
  119MOL    H6614462   1.659   7.508   2.394  1.4841 -0.0070 -1.1421
  119MOL    H6714463   1.500   7.375   2.537 -0.2118 -0.7416 -0.7891
  119MOL    C6814464   1.443   7.221   2.401 -0.3753 -0.4803 -0.1266
  119MOL    C6914465   1.543   7.108   2.426 -0.5014  0.0845 -0.4376
  119MOL    F7014466   1.592   7.125   2.546 -0.1386  0.1489 -0.1326
  119MOL    H7114467   1.360   7.208   2.471  0.7440  0.5811  1.4156
  119MOL    H7214468   1.398   7.223   2.301 -1.3126  2.8734  0.2914
  119MOL    H7314469   1.625   7.119   2.354  0.4059 -0.6540  0.4734
  119MOL    C7414470   1.475   6.964   2.438  0.3165 -0.1165 -0.1032
  119MOL    C7514471   1.429   6.913   2.300  0.0213  0.2097  0.3427
  119MOL    F7614472   1.532   6.890   2.217 -0.4313  0.2009 -0.6795
  119MOL    H7714473   1.550   6.895   2.476  1.6346  0.4472 -1.6181
  119MOL    H7814474   1.394   6.972   2.511  1.1411 -1.6121  1.0025
  119MOL    H7914475   1.369   6.991   2.252  0.8308 -0.1471 -1.2821
  119MOL    C8014476   1.351   6.784   2.307  0.0778 -0.0760 -0.4180
  119MOL    C8114477   1.300   6.725   2.175  0.6384  0.3475  0.4480
  119MOL    F8214478   1.297   6.591   2.177  0.0974 -0.0150 -0.7166
  119MOL    H8314479   1.415   6.709   2.353 -1.8567 -0.1337  2.2750
  119MOL    H8414480   1.273   6.785   2.382  1.0215  0.0010  0.5670
  119MOL    H8514481   1.355   6.749   2.084  0.1981  1.2756  0.4226
  119MOL    C8614482   1.146   6.761   2.156 -0.2843  0.3318  0.1359
  119MOL    C8714483   1.077   6.711   2.021  0.7130 -0.1077  0.2089
  119MOL    F8814484   0.946   6.713   2.039  0.0605  0.0202  0.3658
  119MOL    H8914485   1.100   6.712   2.242  0.3859 -3.5501 -1.6034
  119MOL    H9014486   1.129   6.867   2.177 -0.9484 -0.1444  2.1511
  119MOL    H9114487   1.106   6.608   2.002  0.2158 -0.0715 -0.7665
  119MOL    C9214488   1.101   6.799   1.896 -0.3124 -0.3629  0.5744
  119MOL    C9314489   1.020   6.754   1.775 -0.2846 -0.4515  0.1640
  119MOL    F9414490   1.033   6.850   1.681 -0.1870  0.4606  0.0702
  119MOL    H9514491   1.071   6.903   1.907 -0.5810 -0.3298 -0.4395
  119MOL    H9614492   1.209   6.800   1.882 -0.4433  0.6180 -0.4035
  119MOL    H9714493   0.918   6.759   1.813 -0.1725  1.7139  0.2583
  119MOL    C9814494   1.069   6.617   1.721 -0.8411 -0.2994  0.5263
  119MOL    C9914495   0.951   6.532   1.668 -0.2536  0.0017  0.2619
  119MOL   F10014496   0.871   6.498   1.763 -0.6218 -0.5379  0.0875
  119MOL   H10114497   1.142   6.634   1.642  0.9806  0.5362  2.3543
  119MOL   H10214498   1.123   6.567   1.801 -0.2278 -2.2246 -1.0624
  119MOL   H10314499   1.010   6.443   1.643 -0.2549 -0.0998  0.6162
  119MOL   C10414500   0.883   6.598   1.552 -1.1191 -0.5240 -0.5691
  119MOL   C10514501   0.786   6.508   1.485  0.4281 -0.7125  0.3377
  119MOL   F10614502   0.685   6.472   1.556  0.3664 -0.5140  0.0732
  119MOL   H10714503   0.832   6.688   1.589  0.3325  0.0496  0.0858
  119MOL   H10814504   0.963   6.642   1.492 -0.8448 -0.0204  0.1544
  119MOL   H10914505   0.850   6.429   1.446 -0.5510 -0.3769 -2.0481
  119MOL   C11014506   0.730   6.556   1.344  0.2187  0.1923  0.4081
  119MOL   C11114507   0.629   6.477   1.259 -0.1089 -0.5497 -0.6072
  119MOL   F11214508   0.599   6.549   1.154 -0.6333  0.2832 -0.4518
  119MOL   H11314509   0.673   6.647   1.366  0.8959  1.2071 -1.9178
  119MOL   H11414510   0.817   6.581   1.285 -0.0368 -1.8724 -0.8663
  119MOL   H11514511   0.532   6.472   1.308  1.1665 -0.1437  2.0366
  119MOL   C11614512   0.688   6.341   1.225  0.2150  0.1910  0.1285
  119MOL   C11714513   0.588   6.257   1.148  0.1618 -0.2906 -0.3288
  119MOL   F11814514   0.500   6.208   1.226 -0.4301 -0.3649  0.4871
  119MOL   H11914515   0.779   6.342   1.165 -0.6676  0.6463 -1.2372
  119MOL   H12014516   0.719   6.290   1.316 -1.0232  1.0896  1.0648
  119MOL   H12114517   0.642   6.168   1.115  1.9642  1.0083 -0.9555
  119MOL   H12214518   0.542   6.310   1.064 -0.9406  0.0704  0.4885
  120MOL     C114519   7.331   6.302   1.633  0.0649 -0.1983 -0.2161
  120MOL     C214520   7.403   6.172   1.595  0.0232  0.0089  0.8303
  120MOL     F314521   7.363   6.148   1.474 -0.2859  0.2864 -0.0547
  120MOL     H414522   7.294   6.308   1.735  0.2855  2.4919 -0.2574
  120MOL     H514523   7.254   6.341   1.566 -1.7469  0.1607  2.0235
  120MOL     H614524   7.380   6.084   1.655 -0.6956  0.2913  0.9737
  120MOL     H714525   7.398   6.386   1.612  0.5855 -1.0288 -2.0565
  120MOL     C814526   7.553   6.188   1.589  0.0954  0.0874 -0.4179
  120MOL     C914527   7.625   6.058   1.598 -0.3529 -0.3356  0.0073
  120MOL    F1014528   7.580   5.972   1.509  0.2852  0.7690  1.0387
  120MOL    H1114529   7.588   6.238   1.498  3.5977  0.6741  1.1847
  120MOL    H1214530   7.586   6.251   1.671 -1.8450  0.8260 -0.1556
  120MOL    H1314531   7.598   6.016   1.695  2.3031 -0.0982  0.8687
  120MOL    C1414532   7.773   6.063   1.577  0.0387  0.0343 -0.3139
  120MOL    C1514533   7.849   6.134   1.692  0.4422  0.3406 -1.0280
  120MOL    F1614534   7.809   6.086   1.808  0.2779  0.0072  0.1861
  120MOL    H1714535   7.811   5.961   1.578 -1.2808 -0.4686  1.2843
  120MOL    H1814536   7.805   6.104   1.481 -0.1518  0.3469 -0.2451
  120MOL    H1914537   7.817   6.238   1.688 -0.5380  0.0565 -0.6453
  120MOL    C2014538   0.001   6.122   1.690 -0.9847 -0.2877 -0.8573
  120MOL    C2114539   0.066   6.222   1.786 -0.1437 -0.7566  0.0500
  120MOL    F2214540   0.025   6.196   1.911  0.4294  1.0182  0.2743
  120MOL    H2314541   0.026   6.017   1.703  0.3339  0.1330  0.1888
  120MOL    H2414542   0.022   6.153   1.587 -1.3518 -0.6828 -1.0523
  120MOL    H2514543   0.029   6.320   1.759 -0.8063 -1.0085  0.0471
  120MOL    C2614544   0.220   6.216   1.773  0.3784 -0.1154  0.5060
  120MOL    C2714545   0.301   6.320   1.849 -0.4950 -0.0697 -0.4184
  120MOL    F2814546   0.282   6.299   1.975  0.1236  0.0935 -0.4312
  120MOL    H2914547   0.261   6.117   1.794 -2.1451 -1.6921 -1.7404
  120MOL    H3014548   0.250   6.225   1.669 -3.1050  1.8286 -0.3958
  120MOL    H3114549   0.265   6.420   1.826 -0.6198  0.3227  1.4133
  120MOL    C3214550   0.449   6.317   1.816  0.3988 -0.0021 -0.3949
  120MOL    C3314551   0.534   6.428   1.885  0.2877  0.7544 -0.1560
  120MOL    F3414552   0.666   6.404   1.885 -0.1628  0.1425 -0.6469
  120MOL    H3514553   0.473   6.220   1.859 -0.3683  0.3906  0.9343
  120MOL    H3614554   0.477   6.313   1.710  1.8987  1.3384 -0.0585
  120MOL    H3714555   0.515   6.434   1.992  0.2956 -0.3935 -0.0904
  120MOL    C3814556   0.494   6.564   1.815  0.5361  0.6266  0.1702
  120MOL    C3914557   0.583   6.675   1.856  0.0017  0.2552  0.8076
  120MOL    F4014558   0.576   6.768   1.754  0.2418  0.0207 -0.1716
  120MOL    H4114559   0.493   6.545   1.708  0.9218 -4.0774  0.8777
  120MOL    H4214560   0.389   6.586   1.832 -0.1400 -0.3897 -2.5289
  120MOL    H4314561   0.684   6.638   1.874  0.1033 -0.2945 -0.8142
  120MOL    C4414562   0.530   6.739   1.981  0.4562  0.4835  0.9481
  120MOL    C4514563   0.606   6.864   2.024 -0.0887  0.1233 -0.4841
  120MOL    F4614564   0.541   6.968   1.971 -0.1315  0.0525  0.1456
  120MOL    H4714565   0.422   6.748   1.978  0.2774 -1.2450  1.4367
  120MOL    H4814566   0.542   6.669   2.064  1.0871 -0.0031  0.4559
  120MOL    H4914567   0.698   6.858   1.966 -0.5198  0.5927 -1.2209
  120MOL    C5014568   0.625   6.899   2.177 -0.5734  0.8379  1.2569
  120MOL    C5114569   0.698   7.030   2.191 -0.6095 -0.2450 -0.3766
  120MOL    F5214570   0.720   7.057   2.325 -0.5473  0.0359 -0.0866
  120MOL    H5314571   0.529   6.915   2.225 -2.3136  1.5114 -2.2943
  120MOL    H5414572   0.685   6.826   2.231 -0.3216  0.1259  0.0224
  120MOL    H5514573   0.649   7.117   2.146 -0.5455  0.4525  0.8809
  120MOL    C5614574   0.845   7.029   2.134  0.0338  0.0372  0.6955
  120MOL    C5714575   0.934   7.146   2.185  0.1373  0.1662 -0.0630
  120MOL    F5814576   1.050   7.143   2.119  0.0453  0.5251  0.1401
  120MOL    H5914577   0.892   6.937   2.168  2.0937  0.8614  0.1996
  120MOL    H6014578   0.855   7.037   2.025 -1.0960 -3.3766  0.2785
  120MOL    H6114579   0.960   7.130   2.290  1.7529 -0.5717 -0.5734
  120MOL    C6214580   0.881   7.289   2.165  0.1263  0.3947  0.7462
  120MOL    C6314581   0.954   7.406   2.240  0.2083 -0.7466 -0.1022
  120MOL    F6414582   0.924   7.400   2.371 -0.5800  0.0126  0.3244
  120MOL    H6514583   0.860   7.304   2.059  1.8878 -1.8506  0.0467
  120MOL    H6614584   0.783   7.295   2.212  0.0759 -1.8367  0.9664
  120MOL    H6714585   0.907   7.501   2.214  0.1397 -1.1366 -1.4484
  120MOL    C6814586   1.102   7.418   2.223 -0.1457  0.4876  0.3985
  120MOL    C6914587   1.141   7.443   2.079  0.9915 -0.1251  0.5165
  120MOL    F7014588   1.113   7.568   2.048 -0.5512  0.4850 -0.4038
  120MOL    H7114589   1.150   7.495   2.284  0.5982 -1.0150  1.7422
  120MOL    H7214590   1.154   7.326   2.247  0.7748  0.7529 -0.5322
  120MOL    H7314591   1.086   7.385   2.004  0.2036 -0.1703  1.1178
  120MOL    C7414592   1.288   7.416   2.057 -0.0388 -0.8186  0.4089
  120MOL    C7514593   1.323   7.417   1.909  1.1186 -0.0360  0.9115
  120MOL    F7614594   1.300   7.534   1.853  0.8098  0.2620  0.1935
  120MOL    H7714595   1.343   7.489   2.117 -0.0787 -0.5967  0.1748
  120MOL    H7814596   1.315   7.319   2.098  0.5225 -0.3286  1.2170
  120MOL    H7914597   1.257   7.348   1.856  2.0051  1.0078 -1.6429
  120MOL    C8014598   1.466   7.378   1.864 -0.3192 -0.4809 -0.6374
  120MOL    C8114599   1.482   7.361   1.710 -0.3835  0.5056  0.3119
  120MOL    F8214600   1.436   7.468   1.640  0.4669 -0.3716  0.1192
  120MOL    H8314601   1.541   7.450   1.897 -2.1753  0.5670  1.3873
  120MOL    H8414602   1.476   7.280   1.911 -0.0105 -0.8638 -1.4951
  120MOL    H8514603   1.418   7.275   1.689  1.9276 -1.5012  1.2802
  120MOL    C8614604   1.623   7.332   1.654 -0.5123  0.3907  0.0759
  120MOL    C8714605   1.736   7.429   1.682  0.2447 -0.2189 -1.1273
  120MOL    F8814606   1.815   7.391   1.786  0.0829  0.2985  0.7236
  120MOL    H8914607   1.656   7.231   1.678 -0.3096 -0.2152 -2.6022
  120MOL    H9014608   1.604   7.338   1.546  3.2317  2.8981 -0.5565
  120MOL    H9114609   1.689   7.523   1.712  1.8028 -0.2741  1.7440
  120MOL    C9214610   1.836   7.444   1.570 -0.1189  0.2344 -0.3108
  120MOL    C9314611   1.921   7.571   1.570 -0.1390  0.7518 -0.2042
  120MOL    F9414612   2.032   7.538   1.515 -0.1464 -0.4927 -0.0389
  120MOL    H9514613   1.894   7.353   1.563 -1.5111 -0.6841 -0.0883
  120MOL    H9614614   1.783   7.454   1.475  3.0416  3.6751 -1.8688
  120MOL    H9714615   1.947   7.602   1.671 -1.4399 -2.5397  1.1728
  120MOL    C9814616   1.867   7.699   1.501 -0.8078 -0.2185 -0.7140
  120MOL    C9914617   1.724   7.749   1.539 -0.1406 -0.2844  0.3541
  120MOL   F10014618   1.726   7.744   1.671  0.7035  0.0494  0.2488
  120MOL   H10114619   1.929   7.788   1.514 -2.0848  0.6416 -0.3701
  120MOL   H10214620   1.860   7.698   1.392 -2.7147  1.4800 -0.6484
  120MOL   H10314621   1.646   7.679   1.510 -0.6326  0.6653 -0.6655
  120MOL   C10414622   1.694   7.895   1.490  0.1690  0.1609 -0.2877
  120MOL   C10514623   1.644   7.895   1.348  0.0465  0.0033 -0.1271
  120MOL   F10614624   1.529   7.823   1.333 -0.4743 -0.1715 -0.5388
  120MOL   H10714625   1.618   7.931   1.559  1.7880 -0.8780  2.1083
  120MOL   H10814626   1.782   7.960   1.499  0.6084 -0.4757  0.0788
  120MOL   H10914627   1.722   7.847   1.289  0.2392 -0.5417  0.5653
  120MOL   C11014628   1.609   0.032   1.288  0.4412 -0.0022 -0.2784
  120MOL   C11114629   1.729   0.122   1.273 -0.1938 -0.1978  0.0967
  120MOL   F11214630   1.806   0.061   1.184  0.3258 -0.1023  0.0051
  120MOL   H11314631   1.556   0.012   1.194 -1.6230 -1.2542  1.1223
  120MOL   H11414632   1.529   0.078   1.346  0.6482  2.8263 -2.1254
  120MOL   H11514633   1.789   0.130   1.364  0.4204 -2.1525 -0.0951
  120MOL   C11614634   1.682   0.256   1.215 -0.6172  0.1375 -0.2467
  120MOL   C11714635   1.803   0.350   1.208  0.1875 -0.0002 -0.3042
  120MOL   F11814636   1.763   0.480   1.206 -0.1033 -0.0683 -0.3410
  120MOL   H11914637   1.633   0.252   1.117  0.8341 -2.0110 -0.9378
  120MOL   H12014638   1.599   0.290   1.277  1.5950  0.6559  2.5370
  120MOL   H12114639   1.865   0.327   1.121  0.9684 -0.0932  0.2727
  120MOL   H12214640   1.861   0.340   1.299 -2.8936 -0.2758  1.7111
  121MOL     C114641   6.687   0.375   4.267 -0.4188  0.0828  0.4919
  121MOL     C214642   6.832   0.337   4.301 -0.1918  0.2093 -0.1220
  121MOL     F314643   6.853   0.215   4.259 -0.0225  0.0269  0.2518
  121MOL     H414644   6.661   0.476   4.300 -2.2687  0.6144 -2.4540
  121MOL     H514645   6.619   0.305   4.315 -0.0509  0.3663  1.4398
  121MOL     H614646   6.848   0.339   4.408  1.8519  0.3883 -0.4114
  121MOL     H714647   6.678   0.386   4.159  0.4418  1.9574  0.5960
  121MOL     C814648   6.928   0.440   4.235  0.0746 -0.1387 -1.0064
  121MOL     C914649   7.079   0.417   4.270 -0.2629  0.2284 -0.0218
  121MOL    F1014650   7.129   0.309   4.212 -0.2942 -0.1141  0.0713
  121MOL    H1114651   6.918   0.460   4.129  1.3618  1.1684 -0.9043
  121MOL    H1214652   6.905   0.535   4.284 -0.7747 -1.0183  0.3266
  121MOL    H1314653   7.086   0.390   4.375 -2.3579  0.0569  0.0934
  121MOL    C1414654   7.161   0.544   4.233  0.1413  0.0941 -0.6797
  121MOL    C1514655   7.307   0.535   4.270 -0.8768  0.1294 -0.2506
  121MOL    F1614656   7.376   0.464   4.175  0.2885 -0.5568  0.4498
  121MOL    H1714657   7.153   0.569   4.127  1.1920 -0.5551 -0.9164
  121MOL    H1814658   7.123   0.629   4.290  0.1636 -0.9720  0.9389
  121MOL    H1914659   7.321   0.478   4.362  1.5382  1.0403 -0.0032
  121MOL    C2014660   7.369   0.677   4.284 -0.3855 -0.1444  0.1659
  121MOL    C2114661   7.512   0.676   4.346  0.5573 -0.1945  0.5243
  121MOL    F2214662   7.557   0.796   4.321  0.2544 -0.4871  0.5386
  121MOL    H2314663   7.390   0.719   4.186  1.4117  1.2420  1.1115
  121MOL    H2414664   7.310   0.754   4.335 -0.5723 -1.2037  1.5771
  121MOL    H2514665   7.570   0.605   4.286  1.1767 -0.3300  1.2901
  121MOL    C2614666   7.528   0.632   4.489 -0.3278  0.2443  0.1302
  121MOL    C2714667   7.660   0.651   4.567 -0.1524  0.0523 -0.0295
  121MOL    F2814668   7.625   0.610   4.691  0.2154  0.0558 -0.2991
  121MOL    H2914669   7.450   0.685   4.542  0.9947  1.2715  1.0779
  121MOL    H3014670   7.498   0.527   4.491  0.6578 -0.0266  0.7592
  121MOL    H3114671   7.664   0.760   4.565  0.5124  0.0231 -0.6381
  121MOL    C3214672   7.792   0.584   4.521  0.3054 -0.2086 -0.0057
  121MOL    C3314673   7.858   0.646   4.390 -0.6609 -0.4176  0.2678
  121MOL    F3414674   7.872   0.776   4.413  0.3207  0.2440  0.0866
  121MOL    H3514675   7.865   0.587   4.602 -0.6709 -0.6635  0.9136
  121MOL    H3614676   7.776   0.477   4.506  1.8800 -0.0671 -3.1965
  121MOL    H3714677   7.783   0.638   4.311 -0.2872 -0.5614 -0.0694
  121MOL    C3814678   7.997   0.582   4.357  0.1940  0.0671 -0.4219
  121MOL    C3914679   8.000   0.435   4.341  0.1669  0.3770 -0.0587
  121MOL    F4014680   7.919   0.396   4.245  0.0736 -0.0827  0.1947
  121MOL    H4114681   0.028   0.618   4.260 -0.0397 -1.0174 -0.9095
  121MOL    H4214682   0.060   0.624   4.434  0.3450  1.3402 -1.2335
  121MOL    H4314683   7.962   0.392   4.434 -0.7373  2.1567  0.4165
  121MOL    C4414684   0.140   0.390   4.304  0.3519  0.0832 -0.3021
  121MOL    C4514685   0.169   0.250   4.268 -0.3134  0.3023 -0.5125
  121MOL    F4614686   0.294   0.236   4.219  0.5132  0.5671 -0.3550
  121MOL    H4714687   0.159   0.449   4.214 -2.0423 -0.8671 -1.4838
  121MOL    H4814688   0.211   0.424   4.380  0.7634  1.5273 -1.3103
  121MOL    H4914689   0.106   0.210   4.188 -0.1661  1.0167 -0.9890
  121MOL    C5014690   0.168   0.149   4.377  0.7563  0.1786 -0.2179
  121MOL    C5114691   0.178   0.000   4.329 -0.1982  0.1781  0.1087
  121MOL    F5214692   0.193   7.930   4.441 -0.4663 -0.4271  0.2009
  121MOL    H5314693   0.248   0.165   4.449  1.8810 -0.6003 -1.2794
  121MOL    H5414694   0.074   0.159   4.432  0.5194  0.4615 -0.6627
  121MOL    H5514695   0.263   7.991   4.261 -0.1921  2.4949 -0.3223
  121MOL    C5614696   0.056   7.955   4.250  0.6675 -0.5825 -0.1246
  121MOL    C5714697   0.053   7.804   4.229  0.0073 -0.4944  0.5342
  121MOL    F5814698   0.033   7.757   4.348  0.3984 -0.5681  0.2957
  121MOL    H5914699   7.963   7.985   4.293  1.2131  0.8748  0.0866
  121MOL    H6014700   0.049   0.006   4.155 -0.9685  0.2862  0.4638
  121MOL    H6114701   0.149   7.757   4.209 -0.3499 -2.1692  2.5480
  121MOL    C6214702   7.930   7.739   4.153 -0.4116 -0.1266  0.4847
  121MOL    C6314703   7.939   7.582   4.133  0.1145 -0.1085 -0.1182
  121MOL    F6414704   7.899   7.519   4.242 -0.4467 -0.3634  0.3054
  121MOL    H6514705   7.834   7.784   4.177 -0.5654 -0.7643  1.0969
  121MOL    H6614706   7.950   7.777   4.053 -1.3307 -0.4479  0.1747
  121MOL    H6714707   0.041   7.554   4.123  0.1028 -0.4786  0.7734
  121MOL    C6814708   7.851   7.529   4.018  0.1011  0.4816  0.2987
  121MOL    C6914709   7.878   7.394   3.953  0.3377 -0.5107  1.2076
  121MOL    F7014710   7.995   7.396   3.895 -0.2781  0.7794 -0.4123
  121MOL    H7114711   7.753   7.514   4.065 -0.7702  0.5342 -1.4550
  121MOL    H7214712   7.845   7.600   3.935  0.0406 -1.2592 -1.1982
  121MOL    H7314713   7.811   7.365   3.873  0.8968 -0.5530  0.7504
  121MOL    C7414714   7.858   7.269   4.046  0.4510  0.1304 -0.1780
  121MOL    C7514715   7.724   7.260   4.133 -0.1818 -0.0640 -0.4831
  121MOL    F7614716   7.624   7.286   4.051 -0.1745  0.1655  0.3474
  121MOL    H7714717   7.876   7.179   3.986  0.7010 -2.7033  3.9304
  121MOL    H7814718   7.943   7.271   4.115 -0.4147  0.9338  0.8780
  121MOL    H7914719   7.721   7.343   4.203  3.7514  2.5602 -3.1564
  121MOL    C8014720   7.696   7.124   4.199  0.4439  0.2939  0.1690
  121MOL    C8114721   7.812   7.059   4.281 -1.0631  0.2235 -0.4109
  121MOL    F8214722   7.845   7.136   4.380  0.2145  0.0802  0.9566
  121MOL    H8314723   7.610   7.142   4.263 -0.5906  2.8117 -1.8682
  121MOL    H8414724   7.664   7.064   4.115 -0.4823 -0.9475  1.3869
  121MOL    H8514725   7.895   7.040   4.213 -1.4283  0.5796 -0.9554
  121MOL    C8614726   7.759   6.920   4.336 -0.2290  0.4446 -0.4859
  121MOL    C8714727   7.859   6.847   4.428 -0.0111 -0.3883 -0.0917
  121MOL    F8814728   7.858   6.910   4.548 -0.4248 -0.0208  0.3178
  121MOL    H8914729   7.679   6.946   4.406  0.0475  2.3988 -0.8459
  121MOL    H9014730   7.720   6.861   4.253  1.0037  0.2377 -0.9254
  121MOL    H9114731   7.961   6.864   4.393 -0.0914  0.3105  0.0172
  121MOL    C9214732   7.827   6.700   4.449 -0.5236 -0.6053  0.6345
  121MOL    C9314733   7.886   6.601   4.350  1.0122 -0.7376 -0.0749
  121MOL    F9414734   0.012   6.607   4.333 -0.0583  0.2449 -0.5110
  121MOL    H9514735   7.878   6.674   4.542 -1.0425 -1.4968  0.6744
  121MOL    H9614736   7.720   6.688   4.463 -0.4577 -1.8843  0.1241
  121MOL    H9714737   7.833   6.621   4.256  1.8417 -1.1670 -0.6410
  121MOL    C9814738   7.860   6.456   4.398  0.2259 -0.0107  0.5345
  121MOL    C9914739   7.876   6.346   4.287  0.1753 -0.0770 -0.0997
  121MOL   F10014740   7.879   6.221   4.332  0.8913 -0.4992 -0.3947
  121MOL   H10114741   7.929   6.445   4.482  0.5361  1.3942  0.4600
  121MOL   H10214742   7.759   6.446   4.440  0.0175  4.5871  1.3600
  121MOL   H10314743   7.969   6.366   4.234  1.1647  3.1241  2.6108
  121MOL   C10414744   7.761   6.348   4.181 -0.0280 -0.0976  0.0651
  121MOL   C10514745   7.619   6.336   4.230 -0.5121  0.0825 -0.6918
  121MOL   F10614746   7.576   6.434   4.305 -0.0393  0.0809  0.6150
  121MOL   H10714747   7.775   6.448   4.141 -0.5669 -0.8254 -1.9688
  121MOL   H10814748   7.782   6.272   4.106 -1.8347 -2.1207  1.5632
  121MOL   H10914749   7.598   6.240   4.277 -1.4614  1.5916  2.0289
  121MOL   C11014750   7.536   6.333   4.103 -0.3260  0.4772  0.0009
  121MOL   C11114751   7.380   6.351   4.131  0.4338 -0.2589 -0.7094
  121MOL   F11214752   7.328   6.358   4.004  0.0092  0.3250 -0.2454
  121MOL   H11314753   7.564   6.408   4.029 -0.0480 -1.9416 -2.4352
  121MOL   H11414754   7.546   6.238   4.050  0.9552  0.3724  0.4121
  121MOL   H11514755   7.353   6.445   4.179  0.7003 -0.5359 -0.0077
  121MOL   C11614756   7.310   6.238   4.204 -0.5480 -0.0390 -0.6989
  121MOL   C11714757   7.163   6.265   4.238  0.1187 -0.1811  0.1618
  121MOL   F11814758   7.154   6.338   4.350  0.3629  0.3339 -0.1760
  121MOL   H11914759   7.315   6.155   4.134  1.0176  0.8543 -1.6600
  121MOL   H12014760   7.361   6.209   4.296  1.4783 -0.6235 -1.9617
  121MOL   H12114761   7.109   6.173   4.262 -1.6986  0.8651  0.2036
  121MOL   H12214762   7.110   6.312   4.155 -1.9174 -0.9656  0.9897
  122MOL     C114763   7.889   1.457   7.366  0.4287 -0.2327 -0.5453
  122MOL     C214764   7.845   1.335   7.289 -0.5942 -0.0456  0.7822
  122MOL     F314765   7.848   1.228   7.371 -0.3807 -0.6967  0.6494
  122MOL     H414766   7.985   1.438   7.414 -0.4671 -3.6850 -0.0015
  122MOL     H514767   7.814   1.479   7.442 -0.0984 -0.5655 -0.9650
  122MOL     H614768   7.925   1.317   7.217  0.3829 -3.3028  2.5936
  122MOL     H714769   7.902   1.549   7.309  0.3713  0.4134  0.4714
  122MOL     C814770   7.706   1.361   7.246 -0.2154  0.1487 -0.1827
  122MOL     C914771   7.683   1.468   7.151  0.3860 -0.2195  0.3926
  122MOL    F1014772   7.749   1.450   7.041 -0.1983  0.2281  0.2420
  122MOL    H1114773   7.671   1.267   7.203  0.8396 -0.2340 -0.2262
  122MOL    H1214774   7.653   1.370   7.341  0.6837 -0.5522  0.3991
  122MOL    H1314775   7.711   1.565   7.191 -0.7854  0.1803  0.2619
  122MOL    C1414776   7.534   1.474   7.115 -0.3753 -0.6617  0.1190
  122MOL    C1514777   7.495   1.569   7.003  0.1593 -0.3769 -0.2129
  122MOL    F1614778   7.356   1.562   6.979 -0.0467  0.4004 -0.1237
  122MOL    H1714779   7.516   1.373   7.078 -0.7509 -0.3208 -0.6352
  122MOL    H1814780   7.466   1.494   7.198 -0.4599  1.0275 -0.3475
  122MOL    H1914781   7.550   1.527   6.919  0.0842 -0.7575 -0.0730
  122MOL    C2014782   7.537   1.718   7.027  0.7061 -0.8243  0.0566
  122MOL    C2114783   7.511   1.810   6.904 -0.9479 -0.1357  0.5053
  122MOL    F2214784   7.382   1.814   6.895  0.5035  0.2915  0.1100
  122MOL    H2314785   7.500   1.760   7.120  3.2426  0.1997  0.6622
  122MOL    H2414786   7.643   1.729   7.050  0.7007  1.0933 -0.6831
  122MOL    H2514787   7.539   1.761   6.811  1.4621  1.9432  0.0970
  122MOL    C2614788   7.563   1.952   6.912  0.2904  0.4380  0.3801
  122MOL    C2714789   7.715   1.959   6.869  0.0518 -0.2968 -0.3327
  122MOL    F2814790   7.725   1.936   6.737  0.1197  0.5117 -0.0887
  122MOL    H2914791   7.512   2.023   6.846  0.4053 -1.0371 -1.3587
  122MOL    H3014792   7.545   1.988   7.013  2.1406 -0.7373  1.1514
  122MOL    H3114793   7.774   1.876   6.906  0.5920 -0.9770 -2.6002
  122MOL    C3214794   7.786   2.094   6.899 -0.1933 -0.5309  0.3585
  122MOL    C3314795   7.807   2.129   7.045 -0.1972 -0.4876 -0.9016
  122MOL    F3414796   7.847   2.014   7.103  0.6071  0.3170  0.1046
  122MOL    H3514797   7.881   2.101   6.846 -0.3840  0.4446  0.1275
  122MOL    H3614798   7.726   2.173   6.854 -0.3260  0.2831  1.9323
  122MOL    H3714799   7.713   2.156   7.092 -0.4603  2.4530 -2.9561
  122MOL    C3814800   7.900   2.249   7.061 -0.3074 -0.7511  0.3051
  122MOL    C3914801   7.903   2.304   7.208 -0.4033 -0.3016 -0.0784
  122MOL    F4014802   7.984   2.228   7.278  0.1773 -0.3254 -0.4290
  122MOL    H4114803   7.993   2.236   7.005  0.4306  1.5155  0.9668
  122MOL    H4214804   7.846   2.324   7.003  0.7818 -0.4482 -0.3172
  122MOL    H4314805   7.808   2.294   7.260 -1.9825  0.6972 -2.6479
  122MOL    C4414806   7.935   2.454   7.215 -0.6634 -0.2085 -0.4461
  122MOL    C4514807   7.810   2.552   7.222 -0.5031 -0.4352  0.2829
  122MOL    F4614808   7.761   2.559   7.345  0.0632 -0.0694  0.0872
  122MOL    H4714809   0.009   2.470   7.291 -0.2411  0.7124 -1.0642
  122MOL    H4814810   7.986   2.479   7.122  0.5718 -1.0360 -0.0006
  122MOL    H4914811   7.726   2.533   7.155  1.4864 -0.2628 -2.3660
  122MOL    C5014812   7.843   2.696   7.195  0.5192  0.3957  0.2322
  122MOL    C5114813   7.891   2.738   7.056  0.2054 -0.4727  0.5322
  122MOL    F5214814   7.797   2.701   6.965  0.0261  0.3105  0.0032
  122MOL    H5314815   7.748   2.744   7.218  0.4014 -0.0052  0.5897
  122MOL    H5414816   7.917   2.726   7.269  1.4591  0.7634 -0.8433
  122MOL    H5514817   7.974   2.675   7.024  0.8590  0.1202  1.0556
  122MOL    C5614818   7.930   2.890   7.041 -0.1759  0.2468  0.7923
  122MOL    C5714819   7.975   2.925   6.899 -1.2838  0.1072  0.1376
  122MOL    F5814820   7.968   3.060   6.902  0.1808 -0.1670 -0.2318
  122MOL    H5914821   7.841   2.951   7.054 -0.3851  0.1220 -0.0810
  122MOL    H6014822   0.001   2.926   7.113 -0.5349  0.5317  1.0184
  122MOL    H6114823   7.896   2.888   6.834 -3.2526 -0.6049  2.8413
  122MOL    C6214824   0.112   2.887   6.853 -0.7382  0.2160 -0.1504
  122MOL    C6314825   0.154   2.966   6.725 -0.3561 -0.0323  0.0851
  122MOL    F6414826   0.159   3.090   6.757  0.1066  0.2589 -0.2504
  122MOL    H6514827   0.184   2.897   6.934 -1.8335 -0.6010  0.9283
  122MOL    H6614828   0.104   2.786   6.815 -1.7146  0.6046 -1.0140
  122MOL    H6714829   0.079   2.964   6.646  0.1632 -0.5872 -0.4040
  122MOL    C6814830   0.292   2.937   6.677  0.1356  0.5277 -0.1239
  122MOL    C6914831   0.325   3.023   6.556  0.8563  0.2315 -0.0898
  122MOL    F7014832   0.343   3.145   6.599  0.1377 -0.2581  0.3324
  122MOL    H7114833   0.362   2.940   6.761  0.5428 -0.4738 -0.4269
  122MOL    H7214834   0.295   2.833   6.645  2.7955  0.2480  0.8460
  122MOL    H7314835   0.234   3.037   6.497  0.5175  1.4170  0.6808
  122MOL    C7414836   0.445   2.974   6.480 -0.3845  0.2916 -0.1037
  122MOL    C7514837   0.448   3.047   6.343 -0.6248 -0.2777  0.4566
  122MOL    F7614838   0.452   3.179   6.360 -0.3889  0.0041  0.1419
  122MOL    H7714839   0.538   2.960   6.536 -2.0370  0.7375  2.8056
  122MOL    H7814840   0.430   2.866   6.469  0.0845  0.4814 -3.1185
  122MOL    H7914841   0.358   3.020   6.288  0.7679 -1.0711 -1.5179
  122MOL    C8014842   0.569   2.986   6.257 -0.3319  0.3789 -0.1152
  122MOL    C8114843   0.562   3.003   6.101 -0.3240  0.0161 -0.4725
  122MOL    F8214844   0.447   2.945   6.056 -0.5312  0.2987 -0.3490
  122MOL    H8314845   0.653   3.044   6.295  0.1993 -0.9100  0.7088
  122MOL    H8414846   0.572   2.880   6.282 -2.9432  0.4541  0.5995
  122MOL    H8514847   0.649   2.949   6.064 -1.5309 -2.2156 -0.1655
  122MOL    C8614848   0.586   3.149   6.055 -0.1850 -0.1863  0.2645
  122MOL    C8714849   0.558   3.164   5.911  0.5103 -0.4960 -0.7973
  122MOL    F8814850   0.613   3.073   5.832  0.2853 -0.7893 -0.7468
  122MOL    H8914851   0.519   3.213   6.113 -1.9519 -0.0013 -1.9239
  122MOL    H9014852   0.686   3.179   6.086 -0.6296 -1.1030  2.7028
  122MOL    H9114853   0.602   3.259   5.880  0.4724 -0.0675  0.3950
  122MOL    C9214854   0.404   3.165   5.881  0.9756 -0.6003  0.3317
  122MOL    C9314855   0.379   3.249   5.757  0.6421  0.5228 -0.3483
  122MOL    F9414856   0.442   3.185   5.652 -0.3357  0.2907  0.5623
  122MOL    H9514857   0.366   3.066   5.854  3.4411 -1.3421 -0.5844
  122MOL    H9614858   0.340   3.197   5.963 -1.5729 -0.0677 -1.7690
  122MOL    H9714859   0.425   3.347   5.767  3.0221 -0.6370  0.4116
  122MOL    C9814860   0.232   3.279   5.732 -0.0110  0.3856  0.5249
  122MOL    C9914861   0.191   3.347   5.602 -0.5754  0.0131  0.1087
  122MOL   F10014862   0.263   3.461   5.601 -0.1264 -0.5844  0.0061
  122MOL   H10114863   0.172   3.190   5.750  2.1691 -1.0302  1.0630
  122MOL   H10214864   0.207   3.356   5.805  1.3761  1.0321  0.3284
  122MOL   H10314865   0.085   3.372   5.591 -0.6883 -1.0380 -1.4802
  122MOL   C10414866   0.215   3.268   5.475 -0.5786  0.3302 -0.1351
  122MOL   C10514867   0.120   3.314   5.355 -0.4273  0.6456  0.4418
  122MOL   F10614868   0.152   3.446   5.334  0.3458  0.2312 -0.3283
  122MOL   H10714869   0.322   3.272   5.454 -0.5598  3.2831  0.3690
  122MOL   H10814870   0.204   3.160   5.487  0.5147  0.1535 -0.5985
  122MOL   H10914871   0.019   3.300   5.393 -0.0057  1.5423  1.9411
  122MOL   C11014872   0.146   3.242   5.225  0.4756 -0.4375  0.2584
  122MOL   C11114873   0.073   3.109   5.199  0.8389 -0.2391 -0.1054
  122MOL   F11214874   7.947   3.145   5.170 -0.3249  0.1275  0.1606
  122MOL   H11314875   0.117   3.306   5.141 -0.7549 -0.3423  0.7441
  122MOL   H11414876   0.254   3.241   5.210  0.3101  0.2851 -1.0830
  122MOL   H11514877   0.060   3.038   5.280 -1.4724 -0.2638 -0.4589
  122MOL   C11614878   0.122   3.047   5.072  0.5935  0.1101 -0.1159
  122MOL   C11714879   0.248   2.960   5.096  0.5305 -0.2653 -0.8063
  122MOL   F11814880   0.287   2.924   4.973  0.3135 -0.2767 -0.1818
  122MOL   H11914881   0.041   2.975   5.055  1.9777 -1.3500 -0.6368
  122MOL   H12014882   0.126   3.119   4.990  1.4255  0.7402  0.4849
  122MOL   H12114883   0.238   2.866   5.151  0.7489  0.9698  1.4273
  122MOL   H12214884   0.331   3.018   5.137  0.8043 -1.4009  0.2839
  123MOL     C114885   1.782   0.335   1.757  0.2413  0.0040 -0.2888
  123MOL     C214886   1.931   0.298   1.742  0.4443  0.1936  0.6208
  123MOL     F314887   2.000   0.406   1.766 -0.3272  0.0128  0.7249
  123MOL     H414888   1.765   0.427   1.701  0.9460  1.1064  1.2558
  123MOL     H514889   1.759   0.361   1.861  2.2641 -2.4947  0.8273
  123MOL     H614890   1.968   0.280   1.641  1.7358  0.1967  1.0869
  123MOL     H714891   1.703   0.264   1.731  0.1604  0.0471 -0.1679
  123MOL     C814892   1.978   0.181   1.832 -0.0746 -0.2610 -0.0483
  123MOL     C914893   1.928   0.042   1.796 -0.4495 -0.5801  0.1039
  123MOL    F1014894   1.951   0.012   1.668  0.2713  0.4948  0.3852
  123MOL    H1114895   2.087   0.186   1.833 -0.0993  0.9899 -1.4001
  123MOL    H1214896   1.953   0.207   1.935  3.4364 -1.6759  1.2350
  123MOL    H1314897   1.821   0.042   1.816 -0.3801  1.1402  0.5702
  123MOL    C1414898   2.003   7.940   1.878  0.3937  0.2076 -0.1585
  123MOL    C1514899   1.983   7.959   2.033 -0.0339  0.2534  0.8792
  123MOL    F1614900   1.852   7.972   2.056 -0.3396 -0.6404 -0.1042
  123MOL    H1714901   1.978   7.839   1.847 -1.1490 -0.3066  2.5846
  123MOL    H1814902   2.110   7.958   1.870  0.1504  0.6694 -2.7296
  123MOL    H1914903   2.035   0.048   2.060  0.2557  1.3279 -3.0521
  123MOL    C2014904   2.043   7.842   2.117  0.0438  0.6945  0.2786
  123MOL    C2114905   2.086   7.876   2.259 -0.1859 -0.5801  0.1128
  123MOL    F2214906   2.151   7.990   2.259  0.7079  0.0625 -0.3610
  123MOL    H2314907   1.992   7.745   2.117 -1.1798  1.3196 -0.2198
  123MOL    H2414908   2.142   7.824   2.075 -0.1960  0.1366 -0.0564
  123MOL    H2514909   2.162   7.804   2.289  0.3976 -0.0394 -0.0472
  123MOL    C2614910   1.971   7.866   2.362  0.2956 -0.7450  0.9183
  123MOL    C2714911   2.010   7.905   2.504  0.1405 -0.4964  0.3432
  123MOL    F2814912   2.028   0.031   2.509  0.6936 -0.2280 -0.2819
  123MOL    H2914913   1.888   7.929   2.328  1.9194 -0.0613 -1.9516
  123MOL    H3014914   1.939   7.762   2.360 -1.8552 -0.0776 -1.4249
  123MOL    H3114915   2.107   7.863   2.530 -0.1880 -0.1712  2.1007
  123MOL    C3214916   1.903   7.888   2.608 -0.5865  0.4669  0.2748
  123MOL    C3314917   1.870   7.738   2.643 -0.6053  0.5348 -0.0462
  123MOL    F3414918   1.808   7.667   2.554 -0.1477 -0.5609  0.0199
  123MOL    H3514919   1.939   7.940   2.697  3.4694 -1.4180 -0.1663
  123MOL    H3614920   1.807   7.933   2.584 -2.0364 -2.3385  0.5853
  123MOL    H3714921   1.794   7.735   2.721 -0.0554  1.6306  0.5557
  123MOL    C3814922   2.003   7.663   2.686  0.1056  0.3253 -0.0007
  123MOL    C3914923   1.977   7.517   2.737  0.4650 -0.0033  0.3124
  123MOL    F4014924   2.098   7.449   2.746 -0.0890 -0.5913  0.3112
  123MOL    H4114925   2.066   7.658   2.598 -1.1732  0.8396 -0.9694
  123MOL    H4214926   2.061   7.726   2.753  0.2639  0.8201 -0.5984
  123MOL    H4314927   1.924   7.464   2.658  0.2557  1.0655 -0.2824
  123MOL    C4414928   1.901   7.504   2.872 -0.0718 -0.9148 -0.3229
  123MOL    C4514929   1.966   7.581   2.993  0.3310 -0.0466  0.3343
  123MOL    F4614930   1.942   7.709   2.977  0.1989 -0.1243 -0.2980
  123MOL    H4714931   1.798   7.541   2.863  0.0881  0.1788  1.8835
  123MOL    H4814932   1.891   7.397   2.890  2.3790 -1.3916 -1.5655
  123MOL    H4914933   2.074   7.575   2.991  0.4736  1.8844  1.2595
  123MOL    C5014934   1.913   7.544   3.129 -0.1488 -0.0423 -0.2592
  123MOL    C5114935   1.968   7.632   3.243  0.0422 -0.1715  0.4467
  123MOL    F5214936   1.922   7.571   3.355  0.9916 -0.1042 -0.4853
  123MOL    H5314937   1.804   7.552   3.134 -0.0411  1.7516 -0.4010
  123MOL    H5414938   1.928   7.437   3.141 -1.8610 -0.2132  0.4842
  123MOL    H5514939   1.920   7.729   3.232 -1.3706 -1.0236 -1.2783
  123MOL    C5614940   2.121   7.645   3.244 -0.1787 -0.0506  0.5005
  123MOL    C5714941   2.174   7.731   3.364 -0.6341  0.3282  0.1795
  123MOL    F5814942   2.304   7.726   3.356  0.2595  0.3061  0.0584
  123MOL    H5914943   2.152   7.542   3.257 -0.6083 -0.6031 -2.4291
  123MOL    H6014944   2.169   7.675   3.150  1.2990 -3.9333 -0.0735
  123MOL    H6114945   2.138   7.687   3.457  2.3203 -1.1943  0.6598
  123MOL    C6214946   2.118   7.874   3.364 -0.1184  0.2644 -0.4174
  123MOL    C6314947   2.176   7.961   3.476  0.6516  0.2111 -0.7794
  123MOL    F6414948   2.314   7.984   3.486 -0.1503 -0.2845 -0.2423
  123MOL    H6514949   2.156   7.906   3.266 -2.4189  1.4527 -0.9646
  123MOL    H6614950   2.010   7.883   3.362 -0.1547  0.3698  1.3848
  123MOL    H6714951   2.151   7.911   3.570  2.3759  0.2196 -0.2988
  123MOL    C6814952   2.122   0.101   3.488  0.4037 -0.6563 -0.1884
  123MOL    C6914953   1.976   0.116   3.538 -0.0617  0.7867  0.9035
  123MOL    F7014954   1.978   0.069   3.662  0.1056 -0.0981 -0.2291
  123MOL    H7114955   2.190   0.161   3.549 -0.0509 -0.2192 -0.1036
  123MOL    H7214956   2.127   0.153   3.392  0.3728 -1.5388 -0.6745
  123MOL    H7314957   1.908   0.058   3.475  0.4244  0.9017  0.2668
  123MOL    C7414958   1.924   0.259   3.536 -0.1827 -1.1158 -0.1761
  123MOL    C7514959   1.876   0.321   3.403 -0.5012 -0.1613 -0.4161
  123MOL    F7614960   1.782   0.241   3.348 -0.4135  0.4359  0.3651
  123MOL    H7714961   1.839   0.260   3.605 -1.1386 -2.1342 -1.3062
  123MOL    H7814962   2.004   0.315   3.584  1.3386 -2.4187 -1.1607
  123MOL    H7914963   1.958   0.311   3.332  0.5761 -2.9920  1.1229
  123MOL    C8014964   1.820   0.459   3.403 -0.1620  0.2921 -0.1257
  123MOL    C8114965   1.777   0.498   3.257 -0.1343  0.5774  0.1079
  123MOL    F8214966   1.677   0.585   3.261 -0.1886 -0.5186 -0.3707
  123MOL    H8314967   1.742   0.463   3.479  0.9289  0.2219  1.0198
  123MOL    H8414968   1.894   0.530   3.440 -0.9783  0.4389  1.2854
  123MOL    H8514969   1.720   0.422   3.203 -0.2040  0.1676  0.7655
  123MOL    C8614970   1.898   0.548   3.169  0.0558  0.3971  0.6469
  123MOL    C8714971   1.878   0.553   3.014 -1.2253  0.0986 -0.4727
  123MOL    F8814972   1.826   0.443   2.963 -0.0320 -0.0035  0.0299
  123MOL    H8914973   1.935   0.641   3.211  1.4360  0.6278 -1.0274
  123MOL    H9014974   1.981   0.477   3.183  0.8267  0.8107 -1.6686
  123MOL    H9114975   1.978   0.556   2.971 -0.4817 -0.1676  1.1833
  123MOL    C9214976   1.784   0.666   2.971 -0.3783 -0.0336  0.1928
  123MOL    C9314977   1.806   0.810   3.030  0.5617 -0.1482  0.2664
  123MOL    F9414978   1.931   0.853   2.991  0.1834  0.5604 -0.3746
  123MOL    H9514979   1.795   0.675   2.863 -2.4873  0.2901 -0.0214
  123MOL    H9614980   1.684   0.633   2.998  0.0929 -0.5628  1.3226
  123MOL    H9714981   1.793   0.807   3.139  0.2995 -0.2864  0.2305
  123MOL    C9814982   1.697   0.906   2.970 -0.0516 -0.1016  0.3360
  123MOL    C9914983   1.710   1.051   3.000  0.4464  0.1025  0.6215
  123MOL   F10014984   1.594   1.095   2.956 -0.2972 -0.0243 -0.1263
  123MOL   H10114985   1.694   0.890   2.862 -0.3047 -1.9525  0.6063
  123MOL   H10214986   1.596   0.875   2.997 -0.3189  0.8193  0.4100
  123MOL   H10314987   1.795   1.098   2.950  0.8442  1.9030  2.8990
  123MOL   C10414988   1.744   1.103   3.140  0.3393 -0.1765  0.5933
  123MOL   C10514989   1.625   1.069   3.235 -0.1518  0.9245 -0.4529
  123MOL   F10614990   1.679   0.965   3.295 -0.5618 -0.4289 -0.2040
  123MOL   H10714991   1.839   1.060   3.169  0.9315  1.4417  1.1029
  123MOL   H10814992   1.748   1.212   3.136 -0.1522 -0.1575  0.4459
  123MOL   H10914993   1.533   1.022   3.202  0.1999  0.5992 -0.9750
  123MOL   C11014994   1.594   1.182   3.336 -0.6069 -0.5118 -0.1552
  123MOL   C11114995   1.507   1.288   3.276  0.2417 -0.2635 -0.6570
  123MOL   F11214996   1.563   1.332   3.162  0.3933 -0.3578  0.4988
  123MOL   H11314997   1.546   1.157   3.430  0.6585  3.4862  1.6477
  123MOL   H11414998   1.686   1.226   3.374 -2.1841  1.6257  1.2794
  123MOL   H11514999   1.505   1.377   3.339 -0.9090  0.4762 -1.7003
  123MOL   C11615000   1.377   1.238   3.226  0.2606  0.7184 -0.5398
  123MOL   C11715001   1.275   1.344   3.185  0.5958  0.1578 -0.7939
  123MOL   F11815002   1.276   1.449   3.272 -0.2395  0.2674 -0.3866
  123MOL   H11915003   1.397   1.175   3.139  2.4541 -0.5470  0.8239
  123MOL   H12015004   1.330   1.184   3.309  1.8438  2.1826  1.3692
  123MOL   H12115005   1.172   1.308   3.179  0.7927 -1.1225  2.8520
  123MOL   H12215006   1.299   1.390   3.089  3.0284  1.6454  0.4956
  124MOL     C115007   2.534   7.566   0.905 -0.9617 -0.7129 -0.5176
  124MOL     C215008   2.635   7.446   0.915  0.1276 -0.0788 -0.2184
  124MOL     F315009   2.591   7.345   0.842 -0.2973 -0.0793 -0.3770
  124MOL     H415010   2.442   7.525   0.947 -1.2507  0.3156 -0.1344
  124MOL     H515011   2.521   7.607   0.805 -0.1174  0.1923 -0.2525
  124MOL     H615012   2.626   7.423   1.021 -0.1969  1.9022  0.2065
  124MOL     H715013   2.563   7.646   0.973 -0.3237 -0.5675 -0.9567
  124MOL     C815014   2.780   7.484   0.874  0.0020 -0.0168 -0.2845
  124MOL     C915015   2.845   7.586   0.969 -0.3906  0.3792  0.2747
  124MOL    F1015016   2.842   7.542   1.096  0.6745  0.2255  0.2702
  124MOL    H1115017   2.842   7.394   0.872 -0.7782 -0.5446 -0.8775
  124MOL    H1215018   2.783   7.529   0.774 -0.4060 -0.3636 -0.4506
  124MOL    H1315019   2.799   7.685   0.963  1.3174  1.1052 -1.4376
  124MOL    C1415020   2.998   7.609   0.931 -0.1744  0.2604  0.3202
  124MOL    C1515021   3.023   7.671   0.794 -0.2176  0.5899  0.7191
  124MOL    F1615022   2.999   7.804   0.804  0.2608  0.4422  0.1455
  124MOL    H1715023   3.057   7.664   1.005 -0.2986  0.1921  0.4703
  124MOL    H1815024   3.053   7.515   0.941  0.6698  0.8538  1.3782
  124MOL    H1915025   2.956   7.626   0.721 -1.7863  2.7276  0.7701
  124MOL    C2015026   3.163   7.644   0.738 -0.2752  0.1483  0.1624
  124MOL    C2115027   3.176   7.691   0.595 -0.0857 -0.1140  0.1574
  124MOL    F2215028   3.168   7.830   0.588  0.2111 -0.2157 -0.0027
  124MOL    H2315029   3.245   7.682   0.799 -0.2544  0.0652  0.1861
  124MOL    H2415030   3.163   7.535   0.731 -1.4594  0.0095  2.0151
  124MOL    H2515031   3.094   7.657   0.531  0.8118 -0.6989 -0.7026
  124MOL    C2615032   3.302   7.630   0.526  0.3111  0.0011  0.2694
  124MOL    C2715033   3.319   7.656   0.370 -0.3456 -0.4861 -0.1931
  124MOL    F2815034   3.443   7.616   0.344 -0.8747 -0.0957  0.1301
  124MOL    H2915035   3.393   7.662   0.577 -0.3347  2.4070 -0.0105
  124MOL    H3015036   3.304   7.521   0.530 -1.5178 -0.1064 -0.7784
  124MOL    H3115037   3.320   7.761   0.341  0.7523  0.0431  1.6488
  124MOL    C3215038   3.230   7.572   0.276 -0.5490  0.2745 -0.2477
  124MOL    C3315039   3.235   7.599   0.123  0.1882  0.7086  0.1579
  124MOL    F3415040   3.339   7.539   0.074 -0.3691  0.6772 -0.1296
  124MOL    H3515041   3.220   7.468   0.307  1.0136  0.0091 -0.6043
  124MOL    H3615042   3.135   7.611   0.312 -0.1924 -1.6126  2.9885
  124MOL    H3715043   3.265   7.702   0.106 -0.1135  0.7656 -0.0371
  124MOL    C3815044   3.111   7.553   0.039 -0.0077  0.1508 -0.4112
  124MOL    C3915045   3.100   7.601   7.894 -0.3827 -0.4604 -0.8910
  124MOL    F4015046   3.193   7.537   7.827  0.7264 -0.3269  0.4356
  124MOL    H4115047   3.097   7.446   0.048  1.5463 -0.1723 -1.5850
  124MOL    H4215048   3.025   7.590   0.094 -2.1272 -1.1939 -2.7538
  124MOL    H4315049   3.131   7.705   7.893 -0.3314 -0.4206  1.6538
  124MOL    C4415050   2.966   7.570   7.822 -0.5079 -0.0119  0.1225
  124MOL    C4515051   2.939   7.648   7.696 -0.2841 -0.3075  0.1597
  124MOL    F4615052   3.024   7.609   7.601  0.6958  0.0615 -0.0491
  124MOL    H4715053   2.956   7.462   7.813  0.7446 -0.2858  1.8996
  124MOL    H4815054   2.883   7.590   7.890 -1.6202 -2.7827 -0.3725
  124MOL    H4915055   2.946   7.756   7.713  2.5169 -0.5193  0.5587
  124MOL    C5015056   2.800   7.617   7.641 -0.1462 -0.1813 -0.6540
  124MOL    C5115057   2.760   7.684   7.511  0.2668  0.3566 -0.1809
  124MOL    F5215058   2.816   7.611   7.413 -0.7773 -0.1058 -0.7500
  124MOL    H5315059   2.782   7.510   7.637 -2.6176  0.2098 -1.1570
  124MOL    H5415060   2.724   7.671   7.698 -0.4553  1.2865 -2.4271
  124MOL    H5515061   2.815   7.778   7.505  0.5245  0.1546 -1.1492
  124MOL    C5615062   2.614   7.695   7.478  0.8876  0.1041  0.0403
  124MOL    C5715063   2.577   7.786   7.357 -0.8010  0.5243 -0.0507
  124MOL    F5815064   2.476   7.722   7.299  0.3894 -0.2522  0.8810
  124MOL    H5915065   2.590   7.592   7.451 -1.5772  0.1764  1.7217
  124MOL    H6015066   2.548   7.715   7.563  0.7481 -0.4496  0.0682
  124MOL    H6115067   2.661   7.777   7.288  1.8199  2.5294  2.7769
  124MOL    C6215068   2.543   7.927   7.390 -0.0301  0.5087 -0.4169
  124MOL    C6315069   2.651   0.003   7.458 -0.5329  0.2037 -0.4550
  124MOL    F6415070   2.773   0.000   7.396 -0.2645 -0.3945  0.0780
  124MOL    H6515071   2.500   7.969   7.299 -0.6982 -2.3244 -1.4709
  124MOL    H6615072   2.465   7.930   7.465  0.9189  1.8836  0.5341
  124MOL    H6715073   2.680   7.978   7.559  1.1417  1.2073 -0.6347
  124MOL    C6815074   2.608   0.155   7.460 -0.4558 -0.8551  0.7181
  124MOL    C6915075   2.694   0.256   7.538  0.0042 -0.8457  0.1850
  124MOL    F7015076   2.817   0.257   7.488  0.4353 -0.3897  0.4933
  124MOL    H7115077   2.600   0.184   7.356  3.8892  1.0384  0.8117
  124MOL    H7215078   2.507   0.150   7.501 -0.6970 -3.5994 -0.1240
  124MOL    H7315079   2.699   0.224   7.642 -2.0093 -0.7726  0.3370
  124MOL    C7415080   2.640   0.397   7.533  0.0261 -0.0500 -0.0145
  124MOL    C7515081   2.721   0.495   7.633 -0.5816 -0.6316 -0.8219
  124MOL    F7615082   2.853   0.463   7.622 -0.1899 -0.6692 -0.8289
  124MOL    H7715083   2.639   0.422   7.427 -1.1651 -1.1549 -0.2683
  124MOL    H7815084   2.537   0.394   7.568  0.2541 -0.4135  0.6379
  124MOL    H7915085   2.681   0.462   7.729  0.7921  1.1175  0.3959
  124MOL    C8015086   2.702   0.648   7.615  0.2603  0.4960 -0.0959
  124MOL    C8115087   2.553   0.689   7.638 -0.4428 -0.2002 -0.3821
  124MOL    F8215088   2.533   0.690   7.775 -0.2822 -0.3342 -0.5588
  124MOL    H8315089   2.766   0.702   7.685  0.3529 -1.4578  1.3728
  124MOL    H8415090   2.739   0.675   7.516 -0.4041  0.2925 -0.4033
  124MOL    H8515091   2.485   0.616   7.594 -0.5168 -1.7299  2.1890
  124MOL    C8615092   2.511   0.827   7.577 -0.3429  0.0928 -0.6603
  124MOL    C8715093   2.368   0.866   7.599 -0.7958  0.3181 -0.8660
  124MOL    F8815094   2.352   0.912   7.719 -0.0284 -0.2123 -0.4143
  124MOL    H8915095   2.577   0.902   7.622  0.3140 -0.4701 -0.6799
  124MOL    H9015096   2.545   0.830   7.473  0.3682 -1.1822 -0.4725
  124MOL    H9115097   2.308   0.775   7.602 -0.5978  0.1798 -1.0701
  124MOL    C9215098   2.305   0.961   7.488 -0.0771 -0.2675 -0.5295
  124MOL    C9315099   2.251   0.880   7.369  0.1673  0.0679 -0.2353
  124MOL    F9415100   2.162   0.796   7.428 -0.1861 -0.3343 -0.4150
  124MOL    H9515101   2.222   1.019   7.529 -0.4748 -0.4785 -1.0344
  124MOL    H9615102   2.373   1.038   7.451 -0.5053  0.7097  0.6756
  124MOL    H9715103   2.327   0.816   7.324 -1.6424 -1.1992 -1.5662
  124MOL    C9815104   2.168   0.959   7.267 -0.4226 -0.1731 -0.0319
  124MOL    C9915105   2.249   1.062   7.189  1.1917 -0.2360 -0.1394
  124MOL   F10015106   2.322   1.006   7.090 -0.2058  0.2004  0.2255
  124MOL   H10115107   2.126   0.886   7.197  1.1347 -1.5337  0.4163
  124MOL   H10215108   2.085   0.998   7.325 -0.5874 -3.3342  1.9967
  124MOL   H10315109   2.320   1.115   7.252  0.8149  0.5743 -0.3829
  124MOL   C10415110   2.153   1.155   7.118  0.0465  0.5403  0.0787
  124MOL   C10515111   2.210   1.257   7.018 -0.6421  0.0189 -0.1452
  124MOL   F10615112   2.105   1.300   6.947  0.1176  0.0603 -0.0969
  124MOL   H10715113   2.079   1.093   7.066  0.6215 -0.4481  0.4313
  124MOL   H10815114   2.089   1.206   7.189  0.8597  0.2951  0.9912
  124MOL   H10915115   2.285   1.215   6.951  0.1575 -0.4043  0.9982
  124MOL   C11015116   2.278   1.372   7.093 -0.0777 -0.2085 -0.1051
  124MOL   C11115117   2.395   1.422   7.021  0.5667  0.0386 -0.2276
  124MOL   F11215118   2.367   1.466   6.896  0.2341 -0.3493  0.0666
  124MOL   H11315119   2.205   1.450   7.112  0.2422  0.0623  0.0109
  124MOL   H11415120   2.299   1.340   7.195  0.8255 -1.9772 -0.8279
  124MOL   H11515121   2.469   1.343   7.012  0.8813  0.4507 -1.3152
  124MOL   C11615122   2.466   1.543   7.092  0.7085  0.1599 -0.3730
  124MOL   C11715123   2.607   1.594   7.049  0.1610 -0.3174 -0.5104
  124MOL   F11815124   2.662   1.674   7.136 -0.5203 -0.2502  0.3529
  124MOL   H11915125   2.390   1.620   7.076 -0.0917 -0.4914  0.2211
  124MOL   H12015126   2.465   1.519   7.198 -0.4125  0.6485 -0.2588
  124MOL   H12115127   2.611   1.650   6.956  0.4182  0.3957 -0.0676
  124MOL   H12215128   2.675   1.510   7.034 -0.0003 -0.4691 -0.4053
  125MOL     C115129   4.161   3.750   7.254 -1.1246 -0.8829  0.6040
  125MOL     C215130   4.114   3.887   7.200  0.0142 -0.6616  0.4815
  125MOL     F315131   4.068   3.960   7.298  0.2205  0.3463  0.2469
  125MOL     H415132   4.082   3.674   7.253 -0.3918 -1.6329 -1.5119
  125MOL     H515133   4.201   3.751   7.355  1.1194  0.8213 -0.2841
  125MOL     H615134   4.028   3.884   7.134  0.0867  4.0466 -0.0224
  125MOL     H715135   4.235   3.709   7.186 -0.8359 -0.6068  0.7562
  125MOL     C815136   4.228   3.977   7.144  0.1243 -0.0008  0.5394
  125MOL     C915137   4.190   4.120   7.098 -0.1888  0.5190  0.4136
  125MOL    F1015138   4.167   4.201   7.199 -0.2057 -0.2606  0.0014
  125MOL    H1115139   4.306   3.983   7.219  0.1713  1.7735  0.3895
  125MOL    H1215140   4.276   3.928   7.059 -1.0662 -1.6725  0.8196
  125MOL    H1315141   4.090   4.109   7.056  0.2616 -1.3739 -0.2085
  125MOL    C1415142   4.273   4.196   6.990 -0.4829 -0.2783 -0.6586
  125MOL    C1515143   4.414   4.235   7.023  0.1514  0.5225 -0.1343
  125MOL    F1615144   4.488   4.130   7.048 -0.4938 -0.0645  0.3023
  125MOL    H1715145   4.275   4.136   6.899 -0.9760 -1.6392  0.2051
  125MOL    H1815146   4.214   4.282   6.959  0.3459  0.5041 -0.0810
  125MOL    H1915147   4.410   4.285   7.120 -0.1378  0.5292 -0.1482
  125MOL    C2015148   4.472   4.326   6.913 -0.8155 -0.0806 -0.6173
  125MOL    C2115149   4.614   4.384   6.935  0.6055  0.2481 -0.0507
  125MOL    F2215150   4.702   4.282   6.950 -0.0265  0.2234  0.1321
  125MOL    H2315151   4.463   4.283   6.814  1.6251 -0.3113 -0.7609
  125MOL    H2415152   4.403   4.409   6.893 -2.0670 -1.2996 -1.4300
  125MOL    H2515153   4.610   4.445   7.025 -0.6460 -2.5578  1.8656
  125MOL    C2615154   4.663   4.477   6.816 -0.2917 -0.3434 -0.1023
  125MOL    C2715155   4.802   4.538   6.836  0.3677  0.1564 -0.0033
  125MOL    F2815156   4.826   4.610   6.733  0.1172 -0.1961 -0.3466
  125MOL    H2915157   4.674   4.417   6.725 -1.4505 -1.6214  0.6019
  125MOL    H3015158   4.590   4.555   6.797  1.5546  0.9873 -2.1438
  125MOL    H3115159   4.868   4.451   6.840  1.0452  0.5064 -2.4602
  125MOL    C3215160   4.811   4.611   6.969  0.3107  0.2375 -0.0932
  125MOL    C3315161   4.928   4.703   6.987  0.2757  0.1944  0.1594
  125MOL    F3415162   4.889   4.820   6.937 -0.1966 -0.2010  0.1616
  125MOL    H3515163   4.715   4.663   6.975 -1.0382 -2.2022  0.1703
  125MOL    H3615164   4.797   4.542   7.053  0.8360 -1.2302 -1.1985
  125MOL    H3715165   5.012   4.667   6.926 -1.0421 -1.2979 -0.8420
  125MOL    C3815166   4.977   4.737   7.131  0.3843 -0.9078  0.4064
  125MOL    C3915167   4.863   4.812   7.212 -0.3440  0.4617 -0.4865
  125MOL    F4015168   4.764   4.730   7.256 -0.3574  0.1759  0.2376
  125MOL    H4115169   5.005   4.645   7.183  0.7053  0.1357  2.1025
  125MOL    H4215170   5.066   4.799   7.129 -0.4434  0.2859 -1.2603
  125MOL    H4315171   4.809   4.889   7.157  0.9192  1.6689 -0.0587
  125MOL    C4415172   4.935   4.870   7.332 -0.1900 -0.0085  0.3700
  125MOL    C4515173   4.850   4.957   7.432  0.1504 -0.0656  0.1657
  125MOL    F4615174   4.901   4.992   7.546 -0.4506 -0.2070 -0.1033
  125MOL    H4715175   4.984   4.791   7.388  1.1057 -1.1323 -2.2650
  125MOL    H4815176   5.020   4.932   7.303 -0.9532  1.0769  0.4084
  125MOL    H4915177   4.785   4.882   7.479 -0.6281  1.0385  0.8708
  125MOL    C5015178   4.768   5.073   7.376  0.0856 -0.4999  0.3155
  125MOL    C5115179   4.840   5.206   7.369 -0.4117 -0.4003 -0.3749
  125MOL    F5215180   4.927   5.199   7.270 -0.2528  0.0748  0.0168
  125MOL    H5315181   4.720   5.034   7.286  0.4674 -0.4350  0.0822
  125MOL    H5415182   4.679   5.090   7.436 -0.0819 -0.5796  0.0887
  125MOL    H5515183   4.888   5.224   7.465 -0.8464 -1.4922  0.0513
  125MOL    C5615184   4.741   5.319   7.330  1.1022 -0.7082 -0.8014
  125MOL    C5715185   4.802   5.458   7.289 -0.0562  0.9072  0.0278
  125MOL    F5815186   4.709   5.525   7.220  0.1460 -0.2651  0.0733
  125MOL    H5915187   4.680   5.282   7.248  0.7040  0.5905 -1.0979
  125MOL    H6015188   4.673   5.335   7.414  2.6694  1.1369  0.1667
  125MOL    H6115189   4.891   5.437   7.230  0.3050 -0.0778  0.9043
  125MOL    C6215190   4.837   5.553   7.403  0.0057  0.2277 -0.1885
  125MOL    C6315191   4.728   5.629   7.480 -0.6238 -0.1142  0.3061
  125MOL    F6415192   4.657   5.551   7.563  0.0534  0.3519 -0.3764
  125MOL    H6515193   4.904   5.505   7.475 -0.1327  0.4361  0.0815
  125MOL    H6615194   4.899   5.631   7.359 -1.1613  1.2089 -0.1291
  125MOL    H6715195   4.654   5.640   7.401 -0.4087  0.3675  0.1666
  125MOL    C6815196   4.782   5.760   7.546 -0.1757 -0.6056 -0.2976
  125MOL    C6915197   4.678   5.811   7.652 -0.0813  0.8551  0.3356
  125MOL    F7015198   4.731   5.919   7.711 -0.2237  0.2037 -0.2264
  125MOL    H7115199   4.873   5.740   7.603 -1.6992  0.4142  2.6065
  125MOL    H7215200   4.807   5.840   7.476 -1.5977  1.7816  1.8461
  125MOL    H7315201   4.675   5.745   7.739  0.6571  0.6502  0.2099
  125MOL    C7415202   4.544   5.848   7.603  0.1661 -0.4626 -0.0012
  125MOL    C7515203   4.540   5.969   7.508  0.2070 -0.1665 -0.1512
  125MOL    F7615204   4.557   5.910   7.387  0.1725  0.4702  0.0243
  125MOL    H7715205   4.497   5.761   7.558  1.2081 -0.6333 -0.7756
  125MOL    H7815206   4.486   5.886   7.687 -1.2609 -0.1475 -1.1140
  125MOL    H7915207   4.625   6.036   7.522 -0.0566  0.5647 -1.8499
  125MOL    C8015208   4.412   6.062   7.503  0.5491 -0.0064 -0.2983
  125MOL    C8115209   4.418   6.163   7.386 -0.1891 -0.9856 -0.1777
  125MOL    F8215210   4.298   6.206   7.367  0.4557  0.0160 -0.1304
  125MOL    H8315211   4.331   5.990   7.490  1.8680 -1.8681  1.5474
  125MOL    H8415212   4.416   6.109   7.601  0.9945  1.7248 -1.1317
  125MOL    H8515213   4.433   6.111   7.291 -0.3766 -2.9729  0.8432
  125MOL    C8615214   4.513   6.291   7.399 -0.0982 -0.2205 -0.2522
  125MOL    C8715215   4.500   6.400   7.291  0.1060 -0.1546 -0.5196
  125MOL    F8815216   4.598   6.487   7.307  0.3790 -0.0991 -0.2293
  125MOL    H8915217   4.487   6.345   7.490  1.0345  0.4359 -0.3132
  125MOL    H9015218   4.617   6.260   7.400  0.0482  0.2460  2.1420
  125MOL    H9115219   4.410   6.452   7.322 -0.4575 -1.0106 -0.7123
  125MOL    C9215220   4.497   6.349   7.142  0.0015 -0.4781 -0.5815
  125MOL    C9315221   4.471   6.459   7.033 -0.0748  0.1577  0.6001
  125MOL    F9415222   4.488   6.392   6.917 -0.9722 -0.1426 -0.1480
  125MOL    H9515223   4.591   6.299   7.117 -0.0748 -0.6721 -0.4788
  125MOL    H9615224   4.413   6.280   7.137 -1.0471  0.7343 -0.0810
  125MOL    H9715225   4.557   6.526   7.042  0.5385 -0.6941  1.1885
  125MOL    C9815226   4.346   6.542   7.044 -0.1048  0.3021 -0.0627
  125MOL    C9915227   4.208   6.469   7.037  0.5325  0.5330  0.2728
  125MOL   F10015228   4.185   6.404   7.151 -1.1150  0.5837  0.3664
  125MOL   H10115229   4.346   6.612   7.128 -2.0075 -1.8871  1.8332
  125MOL   H10215230   4.360   6.610   6.960  1.0958 -1.9004 -1.6967
  125MOL   H10315231   4.218   6.396   6.958  0.7348  0.1676  0.6344
  125MOL   C10415232   4.099   6.580   7.047  0.1751 -0.4872  0.2291
  125MOL   C10515233   3.951   6.542   7.003 -0.7900 -0.4078 -0.1938
  125MOL   F10615234   3.905   6.460   7.097 -0.3502  0.1813 -0.6715
  125MOL   H10715235   4.096   6.611   7.151 -0.9758  0.3194 -0.0328
  125MOL   H10815236   4.130   6.664   6.985 -0.8290  0.7146  1.3315
  125MOL   H10915237   3.948   6.489   6.907  1.1679 -3.1309  1.1650
  125MOL   C11015238   3.863   6.666   6.986 -0.1681  0.4573  0.7084
  125MOL   C11115239   3.742   6.638   6.899 -0.3848 -0.1952  0.1230
  125MOL   F11215240   3.654   6.725   6.939  0.4751  0.3705  0.2019
  125MOL   H11315241   3.832   6.708   7.081 -0.1564  1.2519  0.3696
  125MOL   H11415242   3.915   6.749   6.937  0.5921 -0.4398 -0.0126
  125MOL   H11515243   3.694   6.542   6.918 -2.7938  0.5615 -1.8182
  125MOL   C11615244   3.755   6.631   6.746 -0.0296 -0.2152  0.0568
  125MOL   C11715245   3.623   6.594   6.665 -0.2227  0.0266 -0.1034
  125MOL   F11815246   3.571   6.476   6.705 -0.1999 -0.1447  0.5027
  125MOL   H11915247   3.799   6.719   6.701 -0.9378  0.0010 -0.4254
  125MOL   H12015248   3.823   6.550   6.720 -0.9398 -1.3728  1.1936
  125MOL   H12115249   3.641   6.581   6.559 -0.6975  0.2371 -0.2100
  125MOL   H12215250   3.543   6.667   6.674  0.9586  1.4240 -0.8092
  126MOL     C115251   1.857   4.353   3.294 -0.4515  0.4409 -0.1495
  126MOL     C215252   1.736   4.381   3.390  0.3231  0.1401 -0.3538
  126MOL     F315253   1.652   4.274   3.382  0.2999  0.0073  0.1461
  126MOL     H415254   1.909   4.445   3.270  0.5357  0.0166  0.3291
  126MOL     H515255   1.829   4.319   3.195 -1.8728 -2.1416  1.0798
  126MOL     H615256   1.681   4.464   3.347 -1.1313 -0.6992 -0.1578
  126MOL     H715257   1.931   4.284   3.335 -1.2576 -0.0885  0.4378
  126MOL     C815258   1.778   4.392   3.538 -0.3343  0.0829  0.3612
  126MOL     C915259   1.857   4.511   3.569  0.6575 -0.3998 -0.4476
  126MOL    F1015260   1.774   4.623   3.558 -0.2811 -0.7828  0.0158
  126MOL    H1115261   1.684   4.394   3.592 -0.2604  2.6331  0.4371
  126MOL    H1215262   1.829   4.301   3.570  1.5498  0.1233 -2.3772
  126MOL    H1315263   1.939   4.524   3.499 -1.4607  0.9785 -2.8040
  126MOL    C1415264   1.921   4.507   3.710  0.8826  0.2996  0.4469
  126MOL    C1515265   2.013   4.610   3.752 -0.5964 -0.7111 -0.7557
  126MOL    F1615266   1.940   4.714   3.778 -0.0672 -0.5081  0.4407
  126MOL    H1715267   1.842   4.491   3.783  0.6000 -0.2391  0.0283
  126MOL    H1815268   1.981   4.417   3.700  1.4335  0.9361 -2.6717
  126MOL    H1915269   2.086   4.630   3.673 -0.2270 -0.6457 -0.4011
  126MOL    C2015270   2.088   4.589   3.887 -0.5800 -0.2585 -0.4635
  126MOL    C2115271   2.193   4.471   3.881 -0.0967  0.3054 -0.0322
  126MOL    F2215272   2.290   4.508   3.794 -0.1830  0.5391 -0.3199
  126MOL    H2315273   2.144   4.675   3.923 -1.1266  0.0213 -0.2713
  126MOL    H2415274   2.013   4.552   3.957  0.2976  0.9548  1.1516
  126MOL    H2515275   2.146   4.384   3.835  0.4369  0.1603 -0.3125
  126MOL    C2615276   2.259   4.431   4.014 -0.5920  0.2220  0.2424
  126MOL    C2715277   2.169   4.346   4.110 -0.2508 -0.3219  0.8495
  126MOL    F2815278   2.137   4.240   4.042  0.2161 -0.5641  0.1098
  126MOL    H2915279   2.341   4.367   3.982 -2.2695 -2.5553  1.3047
  126MOL    H3015280   2.301   4.522   4.057  2.0367 -0.2968 -1.1483
  126MOL    H3115281   2.078   4.404   4.125  0.6197  1.3799 -0.3078
  126MOL    C3215282   2.238   4.313   4.240  0.3538  0.1644  0.1568
  126MOL    C3315283   2.157   4.232   4.346 -0.4851 -0.1389 -0.4021
  126MOL    F3415284   2.246   4.160   4.418 -0.1376  0.5128  0.6886
  126MOL    H3515285   2.322   4.248   4.213 -0.3432 -0.4856 -0.4663
  126MOL    H3615286   2.291   4.398   4.284 -1.6973  0.6128  1.8079
  126MOL    H3715287   2.091   4.164   4.292  0.2262 -0.8310 -0.4124
  126MOL    C3815288   2.066   4.313   4.432 -0.0374  0.3585  0.4140
  126MOL    C3915289   2.021   4.252   4.563 -0.0880 -0.6211  1.0885
  126MOL    F4015290   1.958   4.353   4.620 -0.0826 -0.1076 -0.7557
  126MOL    H4115291   2.113   4.407   4.461  0.6663  0.1670 -0.0943
  126MOL    H4215292   1.976   4.339   4.376 -0.8902  0.2265  1.6949
  126MOL    H4315293   2.106   4.233   4.629 -0.3282 -0.4652  1.4428
  126MOL    C4415294   1.923   4.128   4.548  0.4253 -0.8120  0.2480
  126MOL    C4515295   1.849   4.102   4.674 -0.3052  0.3673 -0.0217
  126MOL    F4615296   1.767   4.200   4.719  0.0987  0.2142 -0.5360
  126MOL    H4715297   1.862   4.146   4.459  2.4752  2.3964 -0.6127
  126MOL    H4815298   1.976   4.036   4.522  0.2325 -1.2391  1.3504
  126MOL    H4915299   1.928   4.094   4.748 -1.6526 -1.8032  1.2682
  126MOL    C5015300   1.765   3.973   4.662  0.3236 -0.3122  1.1138
  126MOL    C5115301   1.629   3.994   4.598  0.8314  0.1385 -0.0952
  126MOL    F5215302   1.644   4.029   4.478 -0.5789  0.6438  0.2025
  126MOL    H5315303   1.820   3.885   4.627 -3.6460 -1.9426 -1.3638
  126MOL    H5415304   1.754   3.934   4.763 -0.3198 -0.4165  1.0063
  126MOL    H5515305   1.596   4.083   4.652  0.5699  1.3083 -2.1195
  126MOL    C5615306   1.517   3.889   4.598  0.3807  0.1951  0.2460
  126MOL    C5715307   1.380   3.934   4.643 -0.3076 -0.2214  0.4094
  126MOL    F5815308   1.317   4.012   4.558  0.2440 -0.1616 -0.0694
  126MOL    H5915309   1.502   3.855   4.495 -0.8597 -2.1025  1.1395
  126MOL    H6015310   1.550   3.794   4.641  0.2291  1.7704  4.0713
  126MOL    H6115311   1.395   4.002   4.728  0.1021 -1.7880  1.6146
  126MOL    C6215312   1.300   3.804   4.681  0.0798 -0.3717  0.6374
  126MOL    C6315313   1.165   3.833   4.759  0.1023  0.0636 -0.5171
  126MOL    F6415314   1.073   3.894   4.674 -0.2135  0.8212  0.1317
  126MOL    H6515315   1.278   3.756   4.586 -1.3529 -1.5805  1.5576
  126MOL    H6615316   1.360   3.736   4.741 -2.0400 -1.3600  1.6950
  126MOL    H6715317   1.185   3.908   4.836 -0.3720  1.8327 -2.0867
  126MOL    C6815318   1.100   3.712   4.831 -0.7420 -0.4795 -0.4564
  126MOL    C6915319   1.055   3.592   4.751 -0.1490 -0.0447  0.4200
  126MOL    F7015320   1.167   3.532   4.693 -0.1859  0.1578  0.4061
  126MOL    H7115321   1.172   3.673   4.903 -0.7886  0.0272 -0.1326
  126MOL    H7215322   1.022   3.766   4.884  0.1584 -2.1677  2.7244
  126MOL    H7315323   0.994   3.627   4.668 -3.0286 -1.2015  1.9755
  126MOL    C7415324   0.991   3.475   4.828  0.2436 -0.0498 -0.4980
  126MOL    C7515325   0.954   3.349   4.747 -0.8635  0.8338 -0.0156
  126MOL    F7615326   0.945   3.244   4.831 -0.1613 -0.0806  0.3625
  126MOL    H7715327   1.063   3.446   4.904  0.3341 -1.6834 -1.2045
  126MOL    H7815328   0.901   3.508   4.879  0.1679 -2.6534  1.1315
  126MOL    H7915329   1.045   3.329   4.690 -0.2106 -2.5192  2.0703
  126MOL    C8015330   0.828   3.358   4.655  0.1040 -0.0240  0.0086
  126MOL    C8115331   0.820   3.239   4.557 -0.3787 -0.1783 -0.0487
  126MOL    F8215332   0.931   3.218   4.492  0.6954  0.0339  0.3177
  126MOL    H8315333   0.733   3.370   4.706  0.1147  0.6498 -0.1236
  126MOL    H8415334   0.831   3.444   4.588  0.6834  0.2655  0.3929
  126MOL    H8515335   0.741   3.254   4.483 -2.0494 -0.5800  1.6087
  126MOL    C8615336   0.782   3.104   4.618 -0.3672  0.1879  0.1839
  126MOL    C8715337   0.741   2.992   4.514  0.7167 -0.4380 -0.1688
  126MOL    F8815338   0.849   2.939   4.472 -0.2501  0.4629 -0.1445
  126MOL    H8915339   0.856   3.068   4.690  0.0606  0.0608 -0.3102
  126MOL    H9015340   0.688   3.127   4.668 -1.9412 -1.1761 -2.0418
  126MOL    H9115341   0.681   3.033   4.433 -0.4038 -1.1923  0.2620
  126MOL    C9215342   0.659   2.865   4.567 -0.0203 -0.6588 -0.2195
  126MOL    C9315343   0.566   2.795   4.467 -0.4682  0.0200  0.3078
  126MOL    F9415344   0.630   2.766   4.356  0.1275  0.3250 -0.0098
  126MOL    H9515345   0.720   2.787   4.613  2.5203  1.1504 -0.4771
  126MOL    H9615346   0.600   2.907   4.649  1.7477 -0.3933  0.9403
  126MOL    H9715347   0.492   2.868   4.433 -0.3744  0.1131  0.3022
  126MOL    C9815348   0.473   2.690   4.519  0.1001  0.0107 -0.1705
  126MOL    C9915349   0.347   2.731   4.591  0.1866 -0.1624  0.0890
  126MOL   F10015350   0.264   2.772   4.497 -0.1361 -0.4854 -0.1056
  126MOL   H10115351   0.439   2.623   4.439  1.9171 -2.9730  1.4771
  126MOL   H10215352   0.528   2.628   4.589 -0.7617  2.6642  2.9363
  126MOL   H10315353   0.366   2.816   4.657 -0.3624 -0.7311  0.9886
  126MOL   C10415354   0.279   2.618   4.672  0.3570 -0.1748 -0.5379
  126MOL   C10515355   0.145   2.641   4.739 -0.5009  0.0572 -0.1753
  126MOL   F10615356   0.069   2.680   4.640 -0.3681 -0.1609  0.6126
  126MOL   H10715357   0.275   2.525   4.615 -2.0239 -1.1910  1.2187
  126MOL   H10815358   0.353   2.600   4.750 -0.9908 -0.0513  0.7864
  126MOL   H10915359   0.165   2.729   4.800  1.2616  0.0659 -0.7480
  126MOL   C11015360   0.081   2.515   4.806  0.1192 -0.5781 -0.4632
  126MOL   C11115361   7.947   2.552   4.872  0.7590 -0.7728 -0.8894
  126MOL   F11215362   7.899   2.437   4.921  0.0197  0.4861  0.5359
  126MOL   H11315363   0.072   2.439   4.727 -2.5488  0.4995 -1.2642
  126MOL   H11415364   0.143   2.463   4.879  1.0514  1.0402 -0.0915
  126MOL   H11515365   7.870   2.569   4.797  0.1664 -0.2103 -0.1550
  126MOL   C11615366   7.944   2.656   4.979 -0.4210  0.0195  0.0094
  126MOL   C11715367   7.794   2.696   5.007 -0.7898  0.0715 -0.6998
  126MOL   F11815368   7.761   2.788   4.916 -0.1606 -0.2718 -0.2581
  126MOL   H11915369   8.002   2.622   5.065  0.5487 -0.8441 -0.9739
  126MOL   H12015370   7.988   2.750   4.946  0.9387 -0.3867  0.6200
  126MOL   H12115371   7.783   2.752   5.100  0.5995  0.0649 -0.5216
  126MOL   H12215372   7.741   2.601   5.002 -1.1752  0.3609 -2.3495
  127MOL     C115373   7.909   3.770   6.311  0.0691  0.1520 -0.8377
  127MOL     C215374   7.812   3.773   6.184 -0.7393  0.0379 -0.0415
  127MOL     F315375   7.844   3.690   6.094 -0.0284  0.4523  0.0272
  127MOL     H415376   0.009   3.801   6.291 -0.5622  1.1632 -2.5842
  127MOL     H515377   7.901   3.674   6.362 -0.5614  0.1200 -0.9937
  127MOL     H615378   7.824   3.869   6.133  0.6279  0.3416  0.8364
  127MOL     H715379   7.865   3.841   6.381 -1.1085  0.3426 -1.7599
  127MOL     C815380   7.667   3.755   6.227 -0.5608  0.1442 -0.4883
  127MOL     C915381   7.633   3.612   6.279  0.0146  0.5878  0.3850
  127MOL    F1015382   7.668   3.592   6.408  0.0658 -0.4540 -0.4385
  127MOL    H1115383   7.642   3.824   6.308  0.4703  0.7700 -0.6832
  127MOL    H1215384   7.601   3.778   6.144 -0.3622 -0.2152 -0.7414
  127MOL    H1315385   7.694   3.536   6.230 -0.6173 -0.0315  0.5616
  127MOL    C1415386   7.480   3.574   6.282 -0.4718 -0.3558  0.2433
  127MOL    C1515387   7.443   3.425   6.288 -0.4773 -0.2657 -0.2639
  127MOL    F1615388   7.321   3.414   6.334 -0.2958  0.1952 -0.1890
  127MOL    H1715389   7.443   3.626   6.370 -0.6662 -0.5668  0.2841
  127MOL    H1815390   7.426   3.606   6.193  0.9730 -1.8879 -1.2350
  127MOL    H1915391   7.505   3.388   6.369  0.5851  0.6699 -0.6318
  127MOL    C2015392   7.460   3.350   6.157 -0.1436 -0.0202  0.1962
  127MOL    C2115393   7.477   3.195   6.163 -0.2984 -0.2473 -0.1952
  127MOL    F2215394   7.584   3.150   6.228 -0.5778  0.0807 -0.5410
  127MOL    H2315395   7.369   3.366   6.098  0.6113 -1.7390 -1.5093
  127MOL    H2415396   7.541   3.379   6.091  0.4128 -0.9605  0.4592
  127MOL    H2515397   7.490   3.166   6.058 -3.6165 -0.3452 -0.6386
  127MOL    C2615398   7.364   3.112   6.218 -0.6002  1.4372 -0.1795
  127MOL    C2715399   7.229   3.138   6.145 -0.8958 -0.4535 -0.3897
  127MOL    F2815400   7.250   3.123   6.017 -0.1119 -0.2702 -0.0815
  127MOL    H2915401   7.397   3.008   6.212  0.2790  1.7348 -0.5865
  127MOL    H3015402   7.348   3.141   6.321 -1.2028  1.6924 -0.3408
  127MOL    H3115403   7.197   3.240   6.168  1.4219  0.2145 -0.0768
  127MOL    C3215404   7.117   3.038   6.196 -0.2132 -0.2662  0.2795
  127MOL    C3315405   6.990   3.058   6.107 -0.3264  0.2083  0.1522
  127MOL    F3415406   7.018   3.022   5.983 -0.4319 -0.1596  0.5617
  127MOL    H3515407   7.146   2.933   6.195  1.4122  0.1039  3.2439
  127MOL    H3615408   7.102   3.063   6.301  0.2715  0.7363  0.1231
  127MOL    H3715409   6.965   3.164   6.101 -2.1438 -0.2710 -1.2813
  127MOL    C3815410   6.869   2.980   6.153 -0.1706 -0.9902  0.1687
  127MOL    C3915411   6.856   2.829   6.129 -0.9289 -0.2674  0.3034
  127MOL    F4015412   6.742   2.792   6.197  0.4350 -0.1514  0.1318
  127MOL    H4115413   6.847   3.002   6.258  0.0965 -1.6022  0.3610
  127MOL    H4215414   6.785   3.018   6.097  0.6924  1.4398  0.4658
  127MOL    H4315415   6.932   2.766   6.175 -0.2274  0.4444  0.1247
  127MOL    C4415416   6.826   2.795   5.977  0.1839 -0.4536  0.0406
  127MOL    C4515417   6.808   2.645   5.942 -0.2387 -0.2669  0.3922
  127MOL    F4615418   6.684   2.626   5.939  0.6411 -0.3984 -0.0494
  127MOL    H4715419   6.742   2.859   5.953 -0.5272 -1.7888 -1.0762
  127MOL    H4815420   6.909   2.839   5.922  0.1729 -0.1627  0.2530
  127MOL    H4915421   6.850   2.578   6.018  3.2709  0.9446 -0.3848
  127MOL    C5015422   6.860   2.612   5.806 -0.4787 -0.1340  0.3727
  127MOL    C5115423   7.017   2.627   5.785  0.1802  0.3109 -0.4517
  127MOL    F5215424   7.071   2.571   5.893 -0.2268 -0.6258  0.5693
  127MOL    H5315425   6.835   2.508   5.784  1.6814 -0.4031 -0.9441
  127MOL    H5415426   6.809   2.680   5.737  1.2599 -0.2660 -1.0850
  127MOL    H5515427   7.044   2.731   5.800  0.6496  0.0333  0.6648
  127MOL    C5615428   7.073   2.569   5.646 -0.2737  0.1416  0.7973
  127MOL    C5715429   7.034   2.660   5.525  0.4797 -0.2546 -0.0748
  127MOL    F5815430   7.067   2.787   5.551  0.3808 -0.6045  0.4190
  127MOL    H5915431   7.181   2.579   5.649 -0.0292 -0.7141 -2.5571
  127MOL    H6015432   7.036   2.466   5.645  1.2734 -0.4484 -3.0370
  127MOL    H6115433   6.925   2.665   5.524  0.4815 -0.2075 -0.0119
  127MOL    C6215434   7.077   2.607   5.386  0.3878 -0.3377  0.1532
  127MOL    C6315435   6.988   2.628   5.261 -0.7415 -0.1683 -0.2021
  127MOL    F6415436   6.902   2.529   5.274 -0.5064  0.4199 -0.1243
  127MOL    H6515437   7.174   2.653   5.371  1.1281 -2.6363 -2.3662
  127MOL    H6615438   7.093   2.499   5.390 -0.9655 -0.4911  2.0272
  127MOL    H6715439   7.058   2.621   5.178  1.0517  2.2935  1.0526
  127MOL    C6815440   6.908   2.761   5.256 -0.4848 -0.3355  0.1770
  127MOL    C6915441   6.852   2.792   5.116  0.0488  0.3684  0.2588
  127MOL    F7015442   6.756   2.706   5.101  0.5914  0.2819 -0.2471
  127MOL    H7115443   6.824   2.757   5.325 -0.9434 -0.2769 -0.3694
  127MOL    H7215444   6.984   2.832   5.288 -0.3000 -0.9439  1.0851
  127MOL    H7315445   6.922   2.773   5.036  0.3355 -0.1139  0.6261
  127MOL    C7415446   6.789   2.938   5.099 -0.4849  0.4337 -0.4781
  127MOL    C7515447   6.883   3.061   5.140  0.7221 -0.0683  0.2997
  127MOL    F7615448   6.993   3.056   5.071 -0.4815  0.1264  0.6465
  127MOL    H7715449   6.776   2.954   4.992 -0.1168  1.8820 -0.3123
  127MOL    H7815450   6.694   2.952   5.152 -0.4432  1.8884 -0.7759
  127MOL    H7915451   6.895   3.059   5.248 -2.8660 -0.1646  0.7701
  127MOL    C8015452   6.831   3.205   5.109  0.2656  0.0932  0.0688
  127MOL    C8115453   6.723   3.243   5.215  0.1457  0.6185  0.0059
  127MOL    F8215454   6.772   3.275   5.335 -0.1827 -0.3771  0.2662
  127MOL    H8315455   6.913   3.275   5.129 -0.5744  0.8645  0.8405
  127MOL    H8415456   6.797   3.219   5.007  3.5530 -1.3814 -1.3142
  127MOL    H8515457   6.668   3.152   5.241  0.1346  1.1701  1.9748
  127MOL    C8615458   6.618   3.350   5.171  0.9621  0.5747 -0.0791
  127MOL    C8715459   6.510   3.384   5.277  0.1085  0.5505 -0.9338
  127MOL    F8815460   6.475   3.280   5.351 -0.7596  0.1879 -0.1982
  127MOL    H8915461   6.674   3.438   5.138  1.0030  0.8884  0.8204
  127MOL    H9015462   6.584   3.311   5.075  0.9710  1.0914 -0.3002
  127MOL    H9115463   6.421   3.416   5.222 -1.0211  0.4265  0.7548
  127MOL    C9215464   6.560   3.502   5.365 -0.0956  0.3382  0.0951
  127MOL    C9315465   6.472   3.563   5.469 -0.5100 -0.1866 -0.0349
  127MOL    F9415466   6.549   3.647   5.539  0.2666 -0.1700 -0.4953
  127MOL    H9515467   6.663   3.485   5.392 -0.3667 -0.4629  0.6201
  127MOL    H9615468   6.583   3.589   5.303  1.0433  0.7769  1.1202
  127MOL    H9715469   6.452   3.484   5.542 -2.3803 -1.1041 -1.4787
  127MOL    C9815470   6.345   3.636   5.421  0.6146 -0.4541  0.3619
  127MOL    C9915471   6.372   3.748   5.320 -0.0471  0.3612 -0.5835
  127MOL   F10015472   6.371   3.698   5.194  0.4038  0.6528 -0.3882
  127MOL   H10115473   6.266   3.570   5.385 -0.6803  1.1411  0.2326
  127MOL   H10215474   6.303   3.677   5.513  0.4404  0.2841 -0.0429
  127MOL   H10315475   6.471   3.791   5.333  0.4626 -0.5525 -1.3803
  127MOL   C10415476   6.265   3.858   5.314 -0.6905  0.7583  0.4255
  127MOL   C10515477   6.252   3.946   5.442 -0.0185 -0.1855 -0.7650
  127MOL   F10615478   6.364   4.005   5.473 -0.5733 -0.4930  0.0653
  127MOL   H10715479   6.291   3.925   5.233  1.6115  0.9986  1.3229
  127MOL   H10815480   6.170   3.806   5.295  0.2330 -1.3959  1.4745
  127MOL   H10915481   6.230   3.886   5.530 -0.6931  0.9218 -0.1556
  127MOL   C11015482   6.164   4.081   5.423 -0.1529  0.1484  0.4550
  127MOL   C11115483   6.150   4.169   5.548 -0.3508 -0.0240 -0.8464
  127MOL   F11215484   6.261   4.198   5.615  0.0381 -0.2873 -0.0655
  127MOL   H11315485   6.205   4.144   5.343  0.2608  0.5924  1.0054
  127MOL   H11415486   6.068   4.050   5.383  0.1052 -0.1470  0.0556
  127MOL   H11515487   6.092   4.128   5.631 -0.2653  1.0033 -0.2661
  127MOL   C11615488   6.080   4.303   5.525 -0.7453  0.2919  0.2655
  127MOL   C11715489   6.167   4.423   5.502 -0.1531 -0.7804  0.5159
  127MOL   F11815490   6.228   4.403   5.380 -0.0282 -0.0657  0.0709
  127MOL   H11915491   6.002   4.291   5.451 -0.6974  0.1544  0.2390
  127MOL   H12015492   6.024   4.340   5.611 -2.1122 -0.3371 -0.3465
  127MOL   H12115493   6.239   4.445   5.582  1.0147 -0.3039 -0.6532
  127MOL   H12215494   6.103   4.510   5.490 -0.1815 -1.2268 -2.9245
  128MOL     C115495   6.012   6.722   2.764 -0.1690  0.1818  0.1049
  128MOL     C215496   5.944   6.589   2.807  0.3447  0.4005 -0.3611
  128MOL     F315497   5.998   6.570   2.924 -0.1481  0.1924 -0.8053
  128MOL     H415498   5.998   6.731   2.656 -0.4158  1.1163  0.2074
  128MOL     H515499   6.120   6.711   2.773 -0.0556 -1.3755 -2.5227
  128MOL     H615500   5.980   6.503   2.751 -2.1233  0.6145 -2.3835
  128MOL     H715501   5.978   6.809   2.820  0.0267  1.0891 -1.1502
  128MOL     C815502   5.794   6.595   2.811 -0.0623  0.0709  0.5317
  128MOL     C915503   5.717   6.481   2.873 -0.4731 -0.1744 -0.4981
  128MOL    F1015504   5.585   6.495   2.868 -0.1416 -0.2280 -0.4173
  128MOL    H1115505   5.762   6.683   2.866  1.4052  0.0777  1.4220
  128MOL    H1215506   5.771   6.592   2.705 -2.0254  2.1018  0.8667
  128MOL    H1315507   5.748   6.486   2.978  1.1199  0.3550 -0.9711
  128MOL    C1415508   5.761   6.341   2.829 -0.6134 -0.1337 -0.0443
  128MOL    C1515509   5.707   6.301   2.685  0.6191  0.2586  0.0417
  128MOL    F1615510   5.770   6.366   2.594  0.5133  0.1050 -0.0146
  128MOL    H1715511   5.868   6.329   2.846 -0.0014  2.1352 -1.9148
  128MOL    H1815512   5.702   6.275   2.892 -0.2656 -0.6999 -0.3064
  128MOL    H1915513   5.603   6.333   2.675  0.3760 -0.7074 -0.6305
  128MOL    C2015514   5.720   6.147   2.656 -0.1241  0.0755  0.8981
  128MOL    C2115515   5.636   6.038   2.739  0.3263  0.0148  0.0629
  128MOL    F2215516   5.513   6.077   2.734 -0.1082  0.3092  0.0867
  128MOL    H2315517   5.694   6.128   2.552 -0.1597 -0.2444  0.9626
  128MOL    H2415518   5.828   6.130   2.660 -0.3009 -0.7569  2.5116
  128MOL    H2515519   5.670   6.042   2.843  0.3835 -1.9271  0.1435
  128MOL    C2615520   5.643   5.901   2.674 -1.0233 -0.4486 -0.1851
  128MOL    C2715521   5.595   5.777   2.755  0.0622  0.0831 -0.3441
  128MOL    F2815522   5.678   5.751   2.857 -0.4959  0.1940 -0.1918
  128MOL    H2915523   5.610   5.912   2.570 -0.4451  0.0319 -0.3195
  128MOL    H3015524   5.745   5.876   2.644 -1.4270 -1.7068 -0.5279
  128MOL    H3115525   5.608   5.689   2.692  0.6343 -1.1697  1.4966
  128MOL    C3215526   5.453   5.793   2.807  0.8060 -0.2157  0.1707
  128MOL    C3315527   5.337   5.802   2.701  0.8421  0.0386 -1.1380
  128MOL    F3415528   5.329   5.694   2.629 -0.2565 -0.0326 -0.4401
  128MOL    H3515529   5.434   5.706   2.869  0.9872 -1.5585 -1.6237
  128MOL    H3615530   5.442   5.873   2.880 -0.6125 -1.0256  0.8714
  128MOL    H3715531   5.368   5.867   2.618  0.6058 -0.0426 -1.2915
  128MOL    C3815532   5.208   5.849   2.758 -0.0498  0.0928  0.3014
  128MOL    C3915533   5.095   5.850   2.662  1.1098  0.1980  0.0650
  128MOL    F4015534   5.053   5.722   2.646 -0.2656 -0.2638  0.0984
  128MOL    H4115535   5.193   5.789   2.848 -0.6811  1.5831  1.2036
  128MOL    H4215536   5.247   5.948   2.780  0.6324  0.4802 -2.4316
  128MOL    H4315537   5.117   5.895   2.566  1.3147 -0.7945 -0.3517
  128MOL    C4415538   4.967   5.937   2.711  0.0586 -0.8836 -0.1915
  128MOL    C4515539   4.983   6.092   2.672  0.0894  0.4717  0.3809
  128MOL    F4615540   4.964   6.114   2.543  0.2486  0.0146  0.1591
  128MOL    H4715541   4.875   5.901   2.666  0.0461 -1.9864  0.7143
  128MOL    H4815542   4.958   5.924   2.818  0.9497  0.8151  0.1120
  128MOL    H4915543   5.085   6.129   2.687  0.4536 -0.6707  0.8166
  128MOL    C5015544   4.882   6.183   2.738 -0.2282 -0.2859 -0.1288
  128MOL    C5115545   4.896   6.338   2.714  0.9281  0.4271  0.4601
  128MOL    F5215546   4.790   6.403   2.773  0.3815 -0.3268  0.4135
  128MOL    H5315547   4.784   6.147   2.707 -0.5171 -1.0090  1.5904
  128MOL    H5415548   4.886   6.183   2.847  1.0945 -1.5695 -0.1615
  128MOL    H5515549   4.911   6.360   2.609  1.7431 -1.1285  0.2534
  128MOL    C5615550   5.019   6.395   2.785 -0.6701 -0.1584  0.1559
  128MOL    C5715551   5.045   6.537   2.764 -0.6226  0.2412 -0.0237
  128MOL    F5815552   4.949   6.618   2.808  0.1503  0.0529 -0.1178
  128MOL    H5915553   5.022   6.359   2.888 -2.4390 -0.6412  0.0513
  128MOL    H6015554   5.106   6.347   2.740 -0.3905  0.4619  0.0257
  128MOL    H6115555   5.043   6.548   2.655 -0.5483 -2.0917 -0.2748
  128MOL    C6215556   5.182   6.588   2.823 -0.0116  0.4257 -0.5173
  128MOL    C6315557   5.224   6.724   2.774  0.4426  0.3425  0.1110
  128MOL    F6415558   5.127   6.809   2.805  0.3185 -0.4276  0.4024
  128MOL    H6515559   5.163   6.590   2.930 -0.6040 -1.0016 -0.5726
  128MOL    H6615560   5.265   6.520   2.804 -1.0172 -1.4339  1.4835
  128MOL    H6715561   5.243   6.726   2.667  3.8050  0.4454  0.6628
  128MOL    C6815562   5.357   6.775   2.842  0.3331 -0.0672  0.0983
  128MOL    C6915563   5.393   6.923   2.811 -0.1585 -0.6282  0.1253
  128MOL    F7015564   5.493   6.962   2.893  0.2690  0.1352 -0.1499
  128MOL    H7115565   5.355   6.762   2.950  1.5916 -2.5426 -0.1305
  128MOL    H7215566   5.442   6.716   2.808  0.4227  1.2230 -2.0109
  128MOL    H7315567   5.306   6.977   2.849 -1.2676 -0.7260 -2.2255
  128MOL    C7415568   5.435   6.951   2.667  0.1463  0.4240  0.4881
  128MOL    C7515569   5.427   7.097   2.620  0.1851  1.3091 -0.2188
  128MOL    F7615570   5.494   7.173   2.708  0.3452 -0.4065 -0.4350
  128MOL    H7715571   5.537   6.912   2.663  0.9310  2.5599 -1.3324
  128MOL    H7815572   5.375   6.886   2.604  1.3302 -0.5900  0.3914
  128MOL    H7915573   5.324   7.130   2.630 -0.0567  0.5817 -0.2558
  128MOL    C8015574   5.476   7.110   2.477  0.1300 -0.1527  0.1166
  128MOL    C8115575   5.498   7.260   2.435  0.4526 -0.2352 -0.5490
  128MOL    F8215576   5.574   7.263   2.323 -0.1544 -0.2349 -0.1940
  128MOL    H8315577   5.572   7.060   2.470 -0.9046 -2.1435 -0.2431
  128MOL    H8415578   5.415   7.057   2.403  3.2120 -0.3689 -2.3997
  128MOL    H8515579   5.542   7.324   2.512 -1.0507 -2.0550  1.8813
  128MOL    C8615580   5.361   7.322   2.404  0.0952  0.0059 -0.4329
  128MOL    C8715581   5.362   7.456   2.324  0.0956  0.1292  0.0764
  128MOL    F8815582   5.238   7.472   2.274  0.3119 -0.0868  0.2664
  128MOL    H8915583   5.298   7.250   2.351 -1.0268  0.5631  0.1390
  128MOL    H9015584   5.306   7.351   2.493 -1.8401 -0.5227 -1.4075
  128MOL    H9115585   5.436   7.442   2.245  1.6192 -0.2278  1.5413
  128MOL    C9215586   5.413   7.567   2.416 -0.7898  0.5120  0.2881
  128MOL    C9315587   5.410   7.704   2.357  0.0231 -0.3004 -0.5777
  128MOL    F9415588   5.280   7.746   2.360 -0.6620 -0.7038 -0.4174
  128MOL    H9515589   5.362   7.571   2.512  0.6843  2.1309  1.0332
  128MOL    H9615590   5.516   7.561   2.449 -0.4574  1.9107 -0.4636
  128MOL    H9715591   5.445   7.712   2.255 -2.3814 -0.8095 -1.4864
  128MOL    C9815592   5.499   7.805   2.442  0.1684  0.0913 -0.0538
  128MOL    C9915593   5.475   7.956   2.411 -0.1781  0.1074 -1.0067
  128MOL   F10015594   5.526   0.016   2.520 -0.3619  0.4527 -0.4114
  128MOL   H10115595   5.466   7.786   2.544  2.6797  1.3456  1.0460
  128MOL   H10215596   5.604   7.777   2.438 -0.0832 -0.9327  0.3447
  128MOL   H10315597   5.370   7.984   2.411  0.0961  1.2050 -1.8858
  128MOL   C10415598   5.545   0.013   2.285  0.8960  0.4074 -0.0336
  128MOL   C10515599   5.544   0.166   2.274 -0.1142 -0.3008  0.4087
  128MOL   F10615600   5.613   0.198   2.168 -0.2886  0.3031  0.3072
  128MOL   H10715601   5.650   7.988   2.277  0.9343  0.9555 -1.7719
  128MOL   H10815602   5.490   7.969   2.203 -0.1543 -0.8843  1.3886
  128MOL   H10915603   5.609   0.195   2.356  1.4002 -2.0111 -0.1383
  128MOL   C11015604   5.401   0.228   2.281 -0.0864  0.2360  0.1994
  128MOL   C11115605   5.408   0.384   2.267  0.6006  0.3076  0.3057
  128MOL   F11215606   5.277   0.419   2.256 -0.3354 -0.3633 -0.2824
  128MOL   H11315607   5.338   0.190   2.201 -0.2082  1.9197 -0.5338
  128MOL   H11415608   5.350   0.202   2.374  0.7272  0.6058  0.7593
  128MOL   H11515609   5.460   0.400   2.172  2.5353 -4.5096  0.3915
  128MOL   C11615610   5.480   0.449   2.376  0.4651 -0.0376 -0.4283
  128MOL   C11715611   5.472   0.602   2.366 -0.3168 -0.1885 -0.6542
  128MOL   F11815612   5.542   0.664   2.461  0.2351 -0.0568 -0.3529
  128MOL   H11915613   5.444   0.410   2.471  1.0721  0.1585 -0.1154
  128MOL   H12015614   5.587   0.429   2.371  0.7318  1.0556  0.6522
  128MOL   H12115615   5.370   0.631   2.388 -0.6193 -0.9493 -1.0408
  128MOL   H12215616   5.509   0.641   2.271 -0.3124  0.5498 -0.3536
  129MOL     C115617   7.556   4.330   0.035 -0.1099  0.0506  0.8507
  129MOL     C215618   7.554   4.252   7.903  0.2923 -0.1318 -0.1808
  129MOL     F315619   7.554   4.336   7.801  0.1040 -0.6463 -0.2900
  129MOL     H415620   7.489   4.416   0.025  0.0461  0.1328  0.4882
  129MOL     H515621   7.658   4.364   0.056  0.6471 -1.6700  0.0268
  129MOL     H615622   7.466   4.188   7.899 -0.9569  1.4329  1.5969
  129MOL     H715623   7.534   4.256   0.111 -0.1737  0.1716  0.9503
  129MOL     C815624   7.675   4.158   7.892 -0.6115  0.4126  0.3602
  129MOL     C915625   7.679   4.077   7.763 -0.2933  0.1064  0.2757
  129MOL    F1015626   7.802   4.025   7.746 -0.2423  0.5269  0.4709
  129MOL    H1115627   7.769   4.211   7.903 -0.0437 -0.8478  1.8252
  129MOL    H1215628   7.672   4.092   7.979  0.0973  1.4437  1.1639
  129MOL    H1315629   7.671   4.139   7.674  0.9548 -0.1983 -0.0591
  129MOL    C1415630   7.572   3.967   7.755  0.6097  0.1108 -0.1408
  129MOL    C1515631   7.598   3.880   7.625 -0.0280  0.7788  0.7507
  129MOL    F1615632   7.707   3.810   7.664 -0.8574  0.5006 -0.5110
  129MOL    H1715633   7.568   3.897   7.838  0.0501 -0.5790 -0.7433
  129MOL    H1815634   7.474   4.014   7.756  0.4823 -0.1247 -1.0454
  129MOL    H1915635   7.633   3.949   7.549 -0.0174 -0.1712 -0.1127
  129MOL    C2015636   7.476   3.787   7.581 -0.2350 -0.0515  0.1491
  129MOL    C2115637   7.412   3.678   7.670  0.3099 -0.1830  0.2672
  129MOL    F2215638   7.345   3.733   7.770 -0.0074 -0.3827  0.6547
  129MOL    H2315639   7.398   3.844   7.531 -1.2429 -2.1506 -0.7332
  129MOL    H2415640   7.513   3.728   7.497 -0.6233  0.9664 -0.7517
  129MOL    H2515641   7.488   3.620   7.724  0.3087  1.6354  2.2705
  129MOL    C2615642   7.306   3.585   7.598 -0.1447 -0.2539 -0.6668
  129MOL    C2715643   7.258   3.472   7.687  0.1131 -0.1896 -0.2700
  129MOL    F2815644   7.173   3.512   7.778  0.1900  0.2796  1.0585
  129MOL    H2915645   7.216   3.636   7.564  0.8700 -0.4083 -3.7593
  129MOL    H3015646   7.350   3.537   7.510 -0.3796  1.8461 -1.9774
  129MOL    H3115647   7.338   3.437   7.753 -0.0253 -1.3613 -0.7115
  129MOL    C3215648   7.196   3.355   7.610 -0.6092  0.2043  0.0996
  129MOL    C3315649   7.295   3.272   7.527  0.0703 -0.8887  0.7167
  129MOL    F3415650   7.372   3.215   7.617 -0.2862  0.1040  0.1968
  129MOL    H3515651   7.155   3.282   7.681  1.1851 -0.8597  0.0679
  129MOL    H3615652   7.112   3.401   7.558 -0.9776  0.0252  0.5255
  129MOL    H3715653   7.348   3.340   7.461  0.1046 -3.0540 -1.5740
  129MOL    C3815654   7.226   3.159   7.449  0.0006 -0.2696  0.0047
  129MOL    C3915655   7.148   3.215   7.326  1.0907  0.3092 -0.7956
  129MOL    F4015656   7.235   3.267   7.238  0.2665  0.0901  0.3164
  129MOL    H4115657   7.302   3.090   7.411  1.1017  1.1376 -0.4031
  129MOL    H4215658   7.168   3.095   7.514 -0.0949  0.3670  0.5479
  129MOL    H4315659   7.071   3.287   7.350  1.6003  0.7115 -0.3468
  129MOL    C4415660   7.069   3.094   7.255  0.7914 -0.4426 -0.4896
  129MOL    C4515661   6.915   3.095   7.279  0.0509 -0.6924 -0.0313
  129MOL    F4615662   6.850   3.012   7.199 -0.3721 -0.5470  0.4414
  129MOL    H4715663   7.084   3.091   7.148  0.3349 -0.2650 -0.5594
  129MOL    H4815664   7.107   2.997   7.287 -1.3573 -0.8666  0.9575
  129MOL    H4915665   6.875   3.193   7.251  0.0313 -0.8491 -0.5622
  129MOL    C5015666   6.872   3.069   7.424 -0.2600 -0.2631 -0.6347
  129MOL    C5115667   6.725   3.083   7.455  0.1034 -0.0677  0.0680
  129MOL    F5215668   6.697   3.028   7.571  0.0793 -0.1797  0.6557
  129MOL    H5315669   6.897   2.964   7.442  0.6238  0.2578  1.3012
  129MOL    H5415670   6.926   3.130   7.496 -0.7906 -0.1554 -0.3309
  129MOL    H5515671   6.679   3.017   7.382  0.6485 -0.6945  0.2810
  129MOL    C5615672   6.651   3.221   7.449 -0.0770  0.6136  0.4572
  129MOL    C5715673   6.707   3.321   7.546  0.2413 -0.0573 -0.0386
  129MOL    F5815674   6.831   3.367   7.528  0.7032 -0.9075 -0.2682
  129MOL    H5915675   6.665   3.257   7.347  0.3840  0.3617  0.4277
  129MOL    H6015676   6.545   3.209   7.472  0.2862  0.5935  2.1965
  129MOL    H6115677   6.707   3.277   7.646  2.6687 -0.2255 -0.0787
  129MOL    C6215678   6.617   3.445   7.553  0.2048  0.0519  0.3379
  129MOL    C6315679   6.651   3.555   7.659  0.6512  0.5325 -0.6256
  129MOL    F6415680   6.636   3.491   7.775  0.1598 -0.2985  0.2753
  129MOL    H6515681   6.606   3.481   7.451 -1.1819 -1.0278  0.0912
  129MOL    H6615682   6.517   3.407   7.573 -0.8440  0.6635 -3.3557
  129MOL    H6715683   6.580   3.638   7.656  1.2013  0.9731 -1.6902
  129MOL    C6815684   6.794   3.618   7.661  0.5105 -0.1469 -0.5564
  129MOL    C6915685   6.820   3.745   7.735  0.0393 -0.0688 -0.0536
  129MOL    F7015686   6.809   3.711   7.863  0.3175  0.3169 -0.1917
  129MOL    H7115687   6.865   3.553   7.712 -0.5395  0.3170  1.5426
  129MOL    H7215688   6.835   3.632   7.561 -1.7463 -1.6769 -1.7436
  129MOL    H7315689   6.742   3.819   7.714  0.2411  0.3143  0.5200
  129MOL    C7415690   6.960   3.817   7.719 -1.2329  0.6507  0.2160
  129MOL    C7515691   6.980   3.901   7.589  0.4138 -0.6824  0.4747
  129MOL    F7615692   6.868   3.966   7.563  0.8215 -0.2949 -0.4679
  129MOL    H7715693   6.963   3.888   7.802  3.8703 -0.1990  0.9182
  129MOL    H7815694   7.039   3.749   7.754  2.1465  4.2336 -0.0728
  129MOL    H7915695   6.996   3.838   7.502 -2.1833 -0.4243 -0.2416
  129MOL    C8015696   7.095   4.001   7.594 -0.2134 -0.4154 -0.5544
  129MOL    C8115697   7.121   4.079   7.467  0.4005  0.5188  0.2330
  129MOL    F8215698   7.020   4.169   7.455  0.7261 -0.2338  0.0457
  129MOL    H8315699   7.088   4.067   7.681  2.0577 -0.7180 -0.0983
  129MOL    H8415700   7.185   3.948   7.626 -1.8087 -2.5256  0.5940
  129MOL    H8515701   7.126   4.006   7.386 -0.8108  1.2257 -0.4979
  129MOL    C8615702   7.256   4.147   7.476 -0.5819 -0.3826 -0.6847
  129MOL    C8715703   7.269   4.256   7.576 -0.1315 -0.0425 -0.3946
  129MOL    F8815704   7.300   4.202   7.695  0.3599  0.5456  0.6287
  129MOL    H8915705   7.324   4.062   7.472  1.1357  0.5551  4.5950
  129MOL    H9015706   7.268   4.200   7.381  0.2457 -0.0292 -0.3816
  129MOL    H9115707   7.174   4.302   7.606  0.1563  1.8068 -2.1529
  129MOL    C9215708   7.360   4.368   7.535  0.6894  0.0926  0.0110
  129MOL    C9315709   7.316   4.456   7.411 -0.3288 -0.5467 -0.9915
  129MOL    F9415710   7.186   4.497   7.426 -0.3018 -0.1532  0.0439
  129MOL    H9515711   7.383   4.431   7.620 -0.3259  0.2586  0.1654
  129MOL    H9615712   7.453   4.312   7.521 -0.4725 -1.7299 -0.5623
  129MOL    H9715713   7.317   4.392   7.323  0.5345  0.1509 -1.4907
  129MOL    C9815714   7.406   4.579   7.392  0.1080 -0.2061 -0.4239
  129MOL    C9915715   7.395   4.655   7.259  0.3110  0.0872  0.1286
  129MOL   F10015716   7.266   4.696   7.233 -0.1995  0.4891  0.2391
  129MOL   H10115717   7.384   4.647   7.475  0.2982 -1.3708  0.5955
  129MOL   H10215718   7.509   4.543   7.396  0.4595  0.8371  0.5021
  129MOL   H10315719   7.420   4.587   7.178 -1.9019  0.2492 -0.7164
  129MOL   C10415720   7.480   4.780   7.267 -0.1229  0.2718  0.2144
  129MOL   C10515721   7.627   4.739   7.257  0.1156  0.2619 -0.4175
  129MOL   F10615722   7.646   4.666   7.151  0.4821  0.5351 -0.0917
  129MOL   H10715723   7.465   4.840   7.177  1.2250 -0.5103 -0.5502
  129MOL   H10815724   7.448   4.838   7.354 -2.4729 -0.7879  0.1193
  129MOL   H10915725   7.656   4.676   7.342 -1.4668  1.2324  0.8637
  129MOL   C11015726   7.729   4.859   7.252  0.7054 -0.1645 -0.2710
  129MOL   C11115727   7.724   4.942   7.382  0.4051  0.0990  0.0114
  129MOL   F11215728   7.742   4.867   7.491 -0.1174  0.0302  0.2615
  129MOL   H11315729   7.826   4.812   7.240 -0.4769 -2.4433 -1.3198
  129MOL   H11415730   7.719   4.926   7.168  0.9253  1.5710  1.0655
  129MOL   H11515731   7.627   4.988   7.398 -0.7005 -1.0683 -2.9891
  129MOL   C11615732   7.820   5.052   7.383 -0.0972  0.5068 -0.1290
  129MOL   C11715733   7.817   5.159   7.498 -0.0120  0.8792 -0.5284
  129MOL   F11815734   7.854   5.280   7.467  0.0220 -0.0392  0.2837
  129MOL   H11915735   7.916   5.006   7.361 -0.7491 -0.5037 -0.8674
  129MOL   H12015736   7.802   5.115   7.296 -1.3267  0.4750  0.0804
  129MOL   H12115737   7.878   5.122   7.580  0.6945 -1.3187 -2.0068
  129MOL   H12215738   7.718   5.170   7.542  0.5529  0.3270  0.9083
  130MOL     C115739   4.987   4.249   4.517 -0.0444  0.5408 -0.1166
  130MOL     C215740   5.015   4.402   4.521  0.5304 -0.7245 -0.7118
  130MOL     F315741   4.917   4.456   4.442 -0.5820  0.0552  0.2634
  130MOL     H415742   5.072   4.208   4.571 -0.7457  0.3995  0.9154
  130MOL     H515743   4.993   4.212   4.415 -0.5399 -2.0427  0.7244
  130MOL     H615744   5.110   4.432   4.478  1.7482 -0.7630  1.8536
  130MOL     H715745   4.887   4.223   4.554  0.2479  0.3551  0.5457
  130MOL     C815746   5.003   4.468   4.661 -0.0901 -0.3851  0.5434
  130MOL     C915747   5.123   4.444   4.757 -0.3923  1.1806 -0.2841
  130MOL    F1015748   5.246   4.480   4.703  0.2456 -0.5844 -0.3157
  130MOL    H1115749   5.011   4.576   4.645 -1.1856 -0.1890  1.3262
  130MOL    H1215750   4.909   4.452   4.713 -1.4524 -0.1539 -1.7674
  130MOL    H1315751   5.127   4.338   4.782  0.1119  1.1071 -0.6673
  130MOL    C1415752   5.123   4.521   4.890 -0.4055 -0.0752 -0.2135
  130MOL    C1515753   5.017   4.483   4.994  0.8279 -0.0230  0.8008
  130MOL    F1615754   5.051   4.360   5.028  0.3796  0.0690 -0.4627
  130MOL    H1715755   5.217   4.511   4.943  0.5785  0.4906 -1.8202
  130MOL    H1815756   5.102   4.624   4.861 -0.9791  0.1287  0.9264
  130MOL    H1915757   4.923   4.486   4.938  2.2579 -1.0018 -1.7677
  130MOL    C2015758   5.016   4.570   5.118  0.0587  0.6251  0.2690
  130MOL    C2115759   5.007   4.721   5.092  0.8727  0.3220 -0.0943
  130MOL    F2215760   5.106   4.782   5.031 -0.1651 -0.6345  0.0329
  130MOL    H2315761   4.931   4.534   5.175  0.5148 -0.9271 -0.0159
  130MOL    H2415762   5.091   4.537   5.190  2.4852 -0.1749 -2.4938
  130MOL    H2515763   5.003   4.769   5.190 -1.6594 -0.3501  0.1705
  130MOL    C2615764   4.882   4.750   5.001 -0.0102 -0.0257 -0.1201
  130MOL    C2715765   4.828   4.893   5.013  0.4039  0.2057 -0.3987
  130MOL    F2815766   4.908   4.972   4.939 -0.1422 -0.0713 -0.0495
  130MOL    H2915767   4.896   4.719   4.898 -1.5275  0.3412 -0.4504
  130MOL    H3015768   4.801   4.686   5.035 -1.1467  2.1198  1.3883
  130MOL    H3115769   4.847   4.912   5.119  1.0415 -0.9054 -0.3023
  130MOL    C3215770   4.682   4.930   4.989  0.1706  0.4469 -0.7827
  130MOL    C3315771   4.640   4.925   4.840  0.9610  0.1376  0.6941
  130MOL    F3415772   4.669   4.809   4.790 -0.6473  0.0051 -0.4137
  130MOL    H3515773   4.615   4.867   5.047  2.1960 -0.1756  0.9106
  130MOL    H3615774   4.672   5.029   5.034 -1.9897 -0.5203  0.9835
  130MOL    H3715775   4.707   4.991   4.786 -0.4007  1.1989  0.2709
  130MOL    C3815776   4.491   4.963   4.803  0.5050  0.2643 -0.0984
  130MOL    C3915777   4.389   4.859   4.825  0.9403 -0.2938  0.0498
  130MOL    F4015778   4.386   4.828   4.958 -0.3922 -0.4088  0.5503
  130MOL    H4115779   4.455   5.050   4.857 -0.7842  0.5834 -1.4219
  130MOL    H4215780   4.484   4.992   4.698  2.7346  0.0488 -0.3424
  130MOL    H4315781   4.403   4.764   4.773  1.1311 -0.9521  1.2820
  130MOL    C4415782   4.253   4.916   4.790  0.5361  0.5792 -0.0993
  130MOL    C4515783   4.129   4.822   4.798  0.3329  0.2816  0.2534
  130MOL    F4615784   4.142   4.712   4.719  1.0758  0.0082 -0.6286
  130MOL    H4715785   4.235   4.992   4.866 -1.3323 -0.8081  0.8828
  130MOL    H4815786   4.259   4.967   4.693  0.1154 -0.3131 -0.5981
  130MOL    H4915787   4.046   4.870   4.746 -0.0302  0.8383  1.3410
  130MOL    C5015788   4.080   4.786   4.945  0.0184  0.3795  0.4698
  130MOL    C5115789   4.015   4.900   5.022 -0.7907  0.5745  0.7220
  130MOL    F5215790   3.908   4.934   4.949  0.0464 -0.5157  0.1543
  130MOL    H5315791   4.014   4.699   4.947 -0.4354  0.6489 -1.2635
  130MOL    H5415792   4.163   4.739   4.996  0.3903  0.1738 -0.3192
  130MOL    H5515793   4.082   4.986   5.025 -1.3768  1.0638  0.0930
  130MOL    C5615794   3.975   4.857   5.171  0.3461 -0.5799 -0.3051
  130MOL    C5715795   3.890   4.952   5.262  0.2408  0.2178 -0.3555
  130MOL    F5815796   3.954   5.063   5.298 -0.5620  0.3336 -0.1941
  130MOL    H5915797   3.925   4.761   5.177 -2.9645  1.1840  1.7981
  130MOL    H6015798   4.069   4.845   5.224  0.4077  1.5651  0.1175
  130MOL    H6115799   3.869   4.905   5.358 -1.3204 -1.1582 -1.3654
  130MOL    C6215800   3.751   4.989   5.219 -0.0009  0.6656 -0.3434
  130MOL    C6315801   3.686   5.105   5.297 -0.6247  0.0782  0.2067
  130MOL    F6415802   3.570   5.136   5.240  0.2739  0.1122 -0.0957
  130MOL    H6515803   3.748   5.023   5.115 -1.7112  0.0965 -0.5077
  130MOL    H6615804   3.678   4.908   5.227  1.0709 -0.3280 -0.5597
  130MOL    H6715805   3.753   5.191   5.305  1.1729 -1.1980 -0.6850
  130MOL    C6815806   3.639   5.068   5.439  0.2575 -0.8983 -0.3830
  130MOL    C6915807   3.577   5.183   5.516 -0.9689  0.1510  0.2974
  130MOL    F7015808   3.483   5.137   5.600 -0.4607 -0.3216  0.1679
  130MOL    H7115809   3.561   4.992   5.438 -0.6687 -0.0208  2.1271
  130MOL    H7215810   3.713   5.030   5.509  0.0952 -0.2121  0.1644
  130MOL    H7315811   3.532   5.242   5.437 -1.8432 -1.4793 -0.4558
  130MOL    C7415812   3.674   5.260   5.616  0.6050  0.7657 -0.5058
  130MOL    C7515813   3.778   5.341   5.536 -0.2237 -1.0858 -0.1361
  130MOL    F7615814   3.731   5.402   5.429 -0.5131  0.0741  0.5956
  130MOL    H7715815   3.606   5.323   5.673 -1.8029 -0.2783 -2.1457
  130MOL    H7815816   3.717   5.201   5.698  1.6079 -0.6842 -2.0334
  130MOL    H7915817   3.850   5.272   5.492 -1.8537 -2.7283 -0.2993
  130MOL    C8015818   3.846   5.452   5.616  0.4065 -0.5459  0.3964
  130MOL    C8115819   3.944   5.408   5.727  0.0346 -0.1022 -0.5651
  130MOL    F8215820   4.017   5.305   5.693  0.1049  0.0354  0.2793
  130MOL    H8315821   3.883   5.509   5.531 -1.9653 -0.5685 -0.7087
  130MOL    H8415822   3.762   5.513   5.651  0.3466  0.1640 -0.9571
  130MOL    H8515823   3.892   5.379   5.818 -0.3501 -1.2574 -1.1489
  130MOL    C8615824   4.054   5.518   5.767 -0.2414 -0.1076 -0.4091
  130MOL    C8715825   4.132   5.479   5.898 -0.1090  0.0172 -0.3154
  130MOL    F8815826   4.240   5.562   5.908  0.3569  0.1376 -0.2198
  130MOL    H8915827   4.122   5.536   5.683 -1.1554 -2.0654 -1.6011
  130MOL    H9015828   4.000   5.612   5.774 -0.7298 -0.3886 -0.4122
  130MOL    H9115829   4.186   5.385   5.889 -1.1893 -1.0261  3.3999
  130MOL    C9215830   4.060   5.478   6.032 -0.0179 -0.6989 -0.4130
  130MOL    C9315831   4.005   5.613   6.079 -0.0193  0.7919 -0.6905
  130MOL    F9415832   3.899   5.640   6.006  0.1095 -0.2129  0.0580
  130MOL    H9515833   3.975   5.411   6.032  0.2130 -0.9965 -1.8327
  130MOL    H9615834   4.124   5.428   6.105 -0.1940  0.6523  0.6997
  130MOL    H9715835   4.084   5.685   6.059  1.0037 -0.0480  0.2720
  130MOL    C9815836   3.982   5.618   6.233  0.5308 -0.5985 -0.1455
  130MOL    C9915837   3.873   5.534   6.279  0.1012  0.8142  0.8883
  130MOL   F10015838   3.885   5.408   6.242  0.2529 -0.2618  0.4019
  130MOL   H10115839   4.068   5.586   6.292  0.4567 -0.3923  0.0728
  130MOL   H10215840   3.954   5.719   6.260 -0.6686  0.0585 -3.5891
  130MOL   H10315841   3.783   5.573   6.233 -0.5997 -0.1513  1.4352
  130MOL   C10415842   3.844   5.525   6.428  0.3580 -0.9217  0.8500
  130MOL   C10515843   3.797   5.655   6.496 -0.3041 -0.6098 -0.2116
  130MOL   F10615844   3.690   5.702   6.433 -0.8155  0.4791  0.2374
  130MOL   H10715845   3.775   5.444   6.453 -0.8603 -0.9382 -2.3306
  130MOL   H10815846   3.935   5.501   6.483  0.2828 -2.0575  0.5007
  130MOL   H10915847   3.867   5.737   6.483  0.3443 -1.1518 -0.1990
  130MOL   C11015848   3.758   5.643   6.641 -0.0477 -0.5641 -0.0598
  130MOL   C11115849   3.879   5.614   6.732  0.6119 -0.0882  0.3239
  130MOL   F11215850   3.933   5.734   6.751  0.0586 -0.1761 -0.1343
  130MOL   H11315851   3.705   5.731   6.678  0.7172  0.8221 -2.1744
  130MOL   H11415852   3.681   5.566   6.652  1.1499 -1.6423  0.9152
  130MOL   H11515853   3.957   5.551   6.689 -0.1369 -1.8540  1.5148
  130MOL   C11615854   3.843   5.564   6.874 -0.2660 -0.0512 -0.1615
  130MOL   C11715855   3.761   5.438   6.871  0.0130 -0.0918 -0.4921
  130MOL   F11815856   3.634   5.451   6.835  0.2378 -0.3931  0.2819
  130MOL   H11915857   3.935   5.536   6.924 -0.2489  2.8404  1.5292
  130MOL   H12015858   3.796   5.640   6.936 -0.8862 -0.7879  0.2906
  130MOL   H12115859   3.766   5.396   6.972  2.5471  4.7904  1.5994
  130MOL   H12215860   3.794   5.367   6.796 -0.4520 -0.6742 -0.1536
  131MOL     C115861   0.358   7.903   0.176 -0.1280  0.5978  0.1363
  131MOL     C215862   0.357   0.017   0.071  0.1714  0.3788 -0.1524
  131MOL     F315863   0.298   7.983   7.961  0.2336  0.2538  0.3786
  131MOL     H415864   0.428   7.829   0.137 -0.1726  0.7827 -0.2923
  131MOL     H515865   0.262   7.854   0.182  0.0257  0.0772 -1.4251
  131MOL     H615866   0.464   0.029   0.051  0.6072 -1.9691  0.5908
  131MOL     H715867   0.386   7.926   0.279 -0.6514 -0.9716  0.6358
  131MOL     C815868   0.307   0.154   0.119 -0.5296 -0.5324 -0.5361
  131MOL     C915869   0.309   0.274   0.025 -0.5049  0.0585 -0.0991
  131MOL    F1015870   0.420   0.272   7.959  0.1547 -0.3990  0.0447
  131MOL    H1115871   0.206   0.150   0.160 -1.0272  1.2509 -1.5218
  131MOL    H1215872   0.367   0.185   0.204 -0.1227 -0.7904 -0.7267
  131MOL    H1315873   0.293   0.366   0.081 -0.7723 -0.7747  1.2092
  131MOL    C1415874   0.196   0.262   7.915  0.2590  0.4098 -0.3410
  131MOL    C1515875   0.178   0.379   7.816 -0.4327  0.5210  0.3178
  131MOL    F1615876   0.252   0.354   7.709  0.2938  0.2707 -0.0622
  131MOL    H1715877   0.206   0.169   7.859  1.1257  0.3140 -0.0380
  131MOL    H1815878   0.106   0.251   7.975  2.6428 -0.6398  3.2034
  131MOL    H1915879   0.215   0.476   7.849 -0.0421  0.7951 -0.8900
  131MOL    C2015880   0.033   0.396   7.768  0.4532 -0.3743  0.1211
  131MOL    C2115881   7.946   0.479   7.865 -0.3619 -0.2016  0.2983
  131MOL    F2215882   0.017   0.594   7.895 -0.2141  0.6933 -0.0801
  131MOL    H2315883   0.022   0.438   7.667 -3.1259 -1.3791  0.0194
  131MOL    H2415884   7.992   0.297   7.752 -2.4837  1.1627 -1.8273
  131MOL    H2515885   7.927   0.428   7.959 -1.9355  1.2456  0.8032
  131MOL    C2615886   7.808   0.513   7.798 -0.2261  0.0148 -0.1153
  131MOL    C2715887   7.703   0.563   7.896  0.4345  0.5741  0.9597
  131MOL    F2815888   7.649   0.465   7.968 -0.0688 -0.6652 -0.4445
  131MOL    H2915889   7.821   0.588   7.719  3.2273 -1.1217 -0.7074
  131MOL    H3015890   7.773   0.422   7.750  1.3268 -0.1921 -0.8962
  131MOL    H3115891   7.623   0.593   7.828  0.8109 -0.5712 -0.0236
  131MOL    C3215892   7.739   0.675   7.995  0.5468  0.2716 -0.1067
  131MOL    C3315893   7.613   0.741   0.061 -0.2177  1.0042 -0.6212
  131MOL    F3415894   7.554   0.648   0.146 -0.4079 -0.4869  0.1410
  131MOL    H3515895   7.801   0.635   0.072  0.1653  1.1176  0.6271
  131MOL    H3615896   7.796   0.743   7.932 -0.4082  2.6010  1.4687
  131MOL    H3715897   7.544   0.764   7.983  0.5124  1.8873 -0.9952
  131MOL    C3815898   7.658   0.864   0.139 -0.4493  0.0499  0.2131
  131MOL    C3915899   7.555   0.967   0.194 -0.4477  0.4552  0.7553
  131MOL    F4015900   7.622   1.077   0.229 -0.3390  0.8132 -0.5955
  131MOL    H4115901   7.729   0.833   0.216 -1.3815  0.5372  1.2853
  131MOL    H4215902   7.725   0.911   0.067 -0.5625 -0.2796 -0.1031
  131MOL    H4315903   7.503   0.939   0.285  1.1549  1.0249  1.8699
  131MOL    C4415904   7.448   0.994   0.091 -0.4918 -0.3171 -0.4960
  131MOL    C4515905   7.344   1.103   0.142 -0.1155  0.2093 -0.8120
  131MOL    F4615906   7.262   1.133   0.048  0.5037  0.3019  0.0578
  131MOL    H4715907   7.496   1.016   7.999  0.1527 -0.2812 -0.1711
  131MOL    H4815908   7.403   0.896   0.078  0.4768 -1.1717  2.2561
  131MOL    H4915909   7.395   1.190   0.183  0.3002  0.9494 -2.8279
  131MOL    C5015910   7.262   1.047   0.261 -0.3245  0.1834 -0.7798
  131MOL    C5115911   7.182   0.914   0.238 -0.7848  0.3584  0.3879
  131MOL    F5215912   7.273   0.821   0.262  0.2475 -0.1237 -0.7739
  131MOL    H5315913   7.332   1.023   0.340  1.2067 -0.5301 -2.3189
  131MOL    H5415914   7.197   1.125   0.300 -2.2266 -2.0060  0.5889
  131MOL    H5515915   7.162   0.905   0.131 -0.5015 -1.5173  0.4805
  131MOL    C5615916   7.040   0.893   0.309 -0.1667  0.8198  0.2334
  131MOL    C5715917   6.923   0.975   0.262  0.4946 -0.0998 -0.1068
  131MOL    F5815918   6.907   0.945   0.134  0.3644  0.1578  0.2479
  131MOL    H5915919   7.025   0.786   0.320  0.4693  0.8042  0.9804
  131MOL    H6015920   7.061   0.916   0.414 -2.1437 -0.4379  0.9241
  131MOL    H6115921   6.952   1.080   0.264  0.2476  0.0919 -3.2461
  131MOL    C6215922   6.793   0.933   0.334 -0.9197 -0.0749 -0.7230
  131MOL    C6315923   6.675   1.035   0.315 -0.6584 -0.0482 -0.1858
  131MOL    F6415924   6.704   1.137   0.393 -0.3040 -0.3053  0.5136
  131MOL    H6515925   6.760   0.834   0.304 -0.3870 -0.0474 -1.3950
  131MOL    H6615926   6.812   0.912   0.439 -2.6641  0.3242 -0.2969
  131MOL    H6715927   6.587   0.984   0.354  1.2200 -1.7123  2.0011
  131MOL    C6815928   6.640   1.097   0.180 -0.5108 -0.6254 -0.0514
  131MOL    C6915929   6.601   0.988   0.073 -0.2690 -0.2752  0.1183
  131MOL    F7015930   6.487   0.937   0.102 -0.1686  0.2523 -0.0488
  131MOL    H7115931   6.562   1.169   0.204  0.1289 -0.2635  0.9644
  131MOL    H7215932   6.731   1.152   0.154 -0.5781 -0.8599 -0.8004
  131MOL    H7315933   6.668   0.903   0.060 -0.7657 -0.5105 -0.8972
  131MOL    C7415934   6.587   1.042   7.929 -0.3971  0.2714 -0.2355
  131MOL    C7515935   6.584   0.934   7.825 -0.0576 -0.3077  0.2206
  131MOL    F7615936   6.499   0.839   7.857  0.2747 -0.6641  0.2539
  131MOL    H7715937   6.493   1.098   7.926 -0.2159  0.7512  1.9826
  131MOL    H7815938   6.667   1.114   7.910  0.4665 -0.5743  0.1528
  131MOL    H7915939   6.684   0.891   7.831 -0.9862 -2.8399 -1.8657
  131MOL    C8015940   6.555   0.976   7.679  0.2248 -0.6550  0.9523
  131MOL    C8115941   6.562   0.861   7.576 -0.1203  0.1994 -0.1150
  131MOL    F8215942   6.514   0.913   7.462  0.3442 -0.1891 -0.1548
  131MOL    H8315943   6.456   1.021   7.676  0.9802  0.9783 -0.3023
  131MOL    H8415944   6.619   1.059   7.649 -0.3797 -0.7565 -0.6690
  131MOL    H8515945   6.495   0.777   7.592 -1.4108  1.0010 -1.1908
  131MOL    C8615946   6.711   0.817   7.558 -0.2088  0.7370 -0.1295
  131MOL    C8715947   6.730   0.693   7.470 -0.0764  0.3314 -0.6816
  131MOL    F8815948   6.670   0.587   7.533 -0.1808  0.7669 -0.2614
  131MOL    H8915949   6.764   0.895   7.504  0.6552 -0.0383 -0.3983
  131MOL    H9015950   6.755   0.794   7.655 -1.5159 -0.0904  0.2774
  131MOL    H9115951   6.836   0.672   7.463 -0.3599 -1.2486 -0.6000
  131MOL    C9215952   6.679   0.703   7.327 -0.6791 -0.4518 -0.1561
  131MOL    C9315953   6.741   0.820   7.249 -0.1573  0.0146  0.0657
  131MOL    F9415954   6.878   0.809   7.261  0.5272  0.4505 -0.2832
  131MOL    H9515955   6.722   0.614   7.281 -1.1764 -1.2619  0.9327
  131MOL    H9615956   6.571   0.701   7.315 -0.8597  1.6732  0.9113
  131MOL    H9715957   6.704   0.915   7.286 -1.2198 -0.3188 -0.1221
  131MOL    C9815958   6.707   0.806   7.095 -0.7245 -0.6476 -0.9868
  131MOL    C9915959   6.562   0.820   7.047 -0.3125 -0.1833 -0.3096
  131MOL   F10015960   6.517   0.937   7.095 -0.2157 -0.0904 -0.3935
  131MOL   H10115961   6.762   0.888   7.048 -2.3470  1.5402  0.8482
  131MOL   H10215962   6.743   0.711   7.055 -0.5846 -0.2699 -1.7748
  131MOL   H10315963   6.497   0.745   7.092 -1.2681  0.1313 -1.1497
  131MOL   C10415964   6.544   0.816   6.900  0.0046 -0.9219  0.2649
  131MOL   C10515965   6.402   0.809   6.842 -0.5699 -0.2844 -0.9251
  131MOL   F10615966   6.339   0.695   6.882  0.4572  0.6823 -0.3165
  131MOL   H10715967   6.573   0.919   6.877 -1.5542 -0.1964  1.4558
  131MOL   H10815968   6.612   0.740   6.862 -0.5919 -1.0399 -0.5764
  131MOL   H10915969   6.406   0.810   6.733  2.0995  0.9591 -0.8566
  131MOL   C11015970   6.317   0.927   6.890  0.0505  0.0591 -0.2993
  131MOL   C11115971   6.201   0.959   6.792 -0.2509  0.4838 -0.0347
  131MOL   F11215972   6.101   0.872   6.802 -0.0151 -0.1031  0.6381
  131MOL   H11315973   6.279   0.911   6.991 -1.1241  0.9792 -0.5957
  131MOL   H11415974   6.373   1.019   6.906 -0.8191  0.4897  0.3241
  131MOL   H11515975   6.236   0.980   6.691  0.1373  1.1794  0.2365
  131MOL   C11615976   6.134   1.095   6.826 -0.4345 -0.1799  0.6175
  131MOL   C11715977   6.025   1.131   6.717 -0.2328  0.2757 -0.2477
  131MOL   F11815978   5.941   1.221   6.768 -0.3484  0.1045 -0.0434
  131MOL   H11915979   6.072   1.077   6.914 -1.1764  1.4091  0.4441
  131MOL   H12015980   6.198   1.181   6.846  2.2539 -1.6225 -1.5913
  131MOL   H12115981   5.954   1.050   6.696 -1.3460  1.4849 -1.2360
  131MOL   H12215982   6.069   1.161   6.622 -1.6586  0.4191 -0.8704
  132MOL     C115983   5.109   1.329   5.524 -0.2924 -0.5347  0.1820
  132MOL     C215984   5.008   1.438   5.486  0.9437 -0.5582  0.1907
  132MOL     F315985   5.055   1.545   5.553  0.1592 -0.2501 -0.2643
  132MOL     H415986   5.091   1.235   5.471 -2.3372  0.0559 -0.2221
  132MOL     H515987   5.115   1.298   5.628  0.8950 -0.3092  0.1890
  132MOL     H615988   4.912   1.402   5.522  0.2634  0.1739 -0.8894
  132MOL     H715989   5.211   1.361   5.502 -1.1599  0.1456 -3.2253
  132MOL     C815990   5.006   1.474   5.334 -0.0333  0.3926 -0.7770
  132MOL     C915991   5.149   1.506   5.275 -0.3784 -0.3407  0.2446
  132MOL    F1015992   5.205   1.390   5.234  0.1015  0.1233 -0.5019
  132MOL    H1115993   4.956   1.392   5.282 -1.3171  0.2580  0.6185
  132MOL    H1215994   4.945   1.564   5.334 -1.8466 -0.7910  0.8383
  132MOL    H1315995   5.225   1.537   5.347  1.5110 -3.0145 -0.5302
  132MOL    C1415996   5.144   1.612   5.161  0.2544 -0.7546 -0.1461
  132MOL    C1515997   5.277   1.669   5.113  0.3304  0.2010 -0.1489
  132MOL    F1615998   5.340   1.734   5.206  0.7677 -0.3149 -1.1647
  132MOL    H1715999   5.098   1.575   5.069 -1.1848  1.2846 -0.2804
  132MOL    H1816000   5.094   1.700   5.200  4.2210  1.1161  1.0358
  132MOL    H1916001   5.246   1.745   5.042 -0.9592  0.7479  0.9859
  132MOL    C2016002   5.371   1.564   5.032  0.3561  0.4125 -0.4051
  132MOL    C2116003   5.474   1.639   4.947 -0.2996  0.3576 -0.7814
  132MOL    F2216004   5.550   1.713   5.015  1.1817  0.1090 -0.1435
  132MOL    H2316005   5.436   1.519   5.107  2.2977 -0.0173 -2.2741
  132MOL    H2416006   5.317   1.485   4.981  1.4688 -0.0929 -0.8202
  132MOL    H2516007   5.425   1.708   4.878 -0.2459  0.9008 -0.2734
  132MOL    C2616008   5.556   1.553   4.855 -0.2451  0.6154 -0.1932
  132MOL    C2716009   5.669   1.606   4.774 -0.2250 -0.1333  0.0295
  132MOL    F2816010   5.758   1.513   4.754 -0.7849 -0.1542  0.3452
  132MOL    H2916011   5.604   1.480   4.920  1.4103  1.4800 -0.4190
  132MOL    H3016012   5.484   1.495   4.797 -1.0059  0.7206  0.6368
  132MOL    H3116013   5.728   1.676   4.832  0.4272 -0.1098 -0.6475
  132MOL    C3216014   5.630   1.675   4.646 -0.2822  0.3228 -0.1179
  132MOL    C3316015   5.720   1.785   4.600  0.4305  0.1102  0.3399
  132MOL    F3416016   5.732   1.875   4.697 -0.1098 -0.1041 -0.0164
  132MOL    H3516017   5.626   1.603   4.565  0.2033 -0.5879  0.6688
  132MOL    H3616018   5.526   1.708   4.647 -0.6179 -0.7203  0.1591
  132MOL    H3716019   5.680   1.844   4.517  0.8268  0.8920  0.6963
  132MOL    C3816020   5.863   1.732   4.567  0.0574  0.3382  0.0137
  132MOL    C3916021   5.877   1.647   4.448  0.7981  0.3534 -0.7598
  132MOL    F4016022   5.792   1.690   4.353  0.1105 -0.0432 -0.4410
  132MOL    H4116023   5.937   1.812   4.562  0.1342  0.1597 -1.7758
  132MOL    H4216024   5.894   1.676   4.655 -1.1398 -0.9102 -0.3408
  132MOL    H4316025   5.840   1.549   4.476  0.6019 -0.0217 -2.2986
  132MOL    C4416026   6.010   1.641   4.379  0.2062 -0.4199  0.4607
  132MOL    C4516027   6.117   1.550   4.447 -0.2249  0.1559 -0.5655
  132MOL    F4616028   6.081   1.423   4.453  0.6522 -0.0959  0.2900
  132MOL    H4716029   5.992   1.596   4.281  0.5674  0.3132  0.0491
  132MOL    H4816030   6.050   1.741   4.362  4.5808 -2.2761 -0.9654
  132MOL    H4916031   6.138   1.593   4.545 -1.1954 -2.4131  0.8082
  132MOL    C5016032   6.245   1.557   4.362 -0.1708 -0.3726 -0.5391
  132MOL    C5116033   6.331   1.682   4.380 -0.0484 -0.3855 -0.7814
  132MOL    F5216034   6.380   1.678   4.510 -0.4471 -0.0953  0.1630
  132MOL    H5316035   6.293   1.459   4.364 -0.1082 -0.3479 -0.7871
  132MOL    H5416036   6.213   1.562   4.257 -2.2129  1.6686  0.1349
  132MOL    H5516037   6.262   1.766   4.372 -1.1743 -1.1483  0.7437
  132MOL    C5616038   6.440   1.685   4.277 -0.6734  0.5519 -0.2581
  132MOL    C5716039   6.536   1.803   4.288  0.4579 -0.2963 -0.2488
  132MOL    F5816040   6.592   1.786   4.409  0.4098  0.7965 -0.0360
  132MOL    H5916041   6.502   1.596   4.265 -1.4787 -0.0235 -0.2018
  132MOL    H6016042   6.387   1.702   4.183 -0.2632  1.3517 -0.3512
  132MOL    H6116043   6.487   1.901   4.292  0.4882 -0.3586  1.8375
  132MOL    C6216044   6.658   1.801   4.196  0.1311  0.7239 -0.1246
  132MOL    C6316045   6.764   1.900   4.250 -0.3561 -0.0495 -0.2321
  132MOL    F6416046   6.889   1.846   4.222 -0.4274  0.0661  0.1351
  132MOL    H6516047   6.701   1.701   4.195  1.4987  1.2985 -0.0150
  132MOL    H6616048   6.638   1.833   4.094 -1.2134  0.9881  0.2201
  132MOL    H6716049   6.759   1.910   4.358 -3.3702 -1.3433 -0.1988
  132MOL    C6816050   6.765   2.040   4.172 -0.0062 -0.1440 -0.8384
  132MOL    C6916051   6.854   2.149   4.231 -0.0836 -0.0844  0.0716
  132MOL    F7016052   6.844   2.257   4.145 -0.1680 -0.2526  0.4551
  132MOL    H7116053   6.793   2.042   4.067 -3.4483  0.5996 -1.7950
  132MOL    H7216054   6.667   2.088   4.175 -1.0263 -2.1919  0.1905
  132MOL    H7316055   6.955   2.120   4.202  0.2185 -1.3156  2.2044
  132MOL    C7416056   6.829   2.190   4.377 -0.3147 -0.1114 -0.1185
  132MOL    C7516057   6.939   2.287   4.433  0.5447  0.3475 -0.4605
  132MOL    F7616058   6.910   2.328   4.556  0.4583 -0.0810 -0.3655
  132MOL    H7716059   6.739   2.251   4.374 -0.1068  0.1310 -1.6772
  132MOL    H7816060   6.813   2.106   4.445 -0.3761 -0.8038 -0.9854
  132MOL    H7916061   6.919   2.373   4.369  0.1428 -0.9378 -2.0941
  132MOL    C8016062   7.085   2.245   4.413  0.3109 -0.1887 -0.7429
  132MOL    C8116063   7.116   2.109   4.487 -0.7772 -0.5750 -0.3793
  132MOL    F8216064   7.083   2.017   4.397 -0.1403 -0.7404 -0.3796
  132MOL    H8316065   7.110   2.240   4.306 -2.1553 -0.1812 -1.3477
  132MOL    H8416066   7.138   2.330   4.455 -1.5397  0.9152 -0.5895
  132MOL    H8516067   7.054   2.100   4.577  0.0561 -2.4194  0.0300
  132MOL    C8616068   7.260   2.101   4.534  0.2632 -0.8241 -0.3242
  132MOL    C8716069   7.296   1.972   4.613 -0.1716  0.1785  0.7450
  132MOL    F8816070   7.230   1.971   4.726  0.2962  0.7593  0.0095
  132MOL    H8916071   7.315   2.086   4.441 -0.5642  5.3166 -2.0143
  132MOL    H9016072   7.298   2.183   4.594  1.2168 -0.2914 -1.6113
  132MOL    H9116073   7.402   1.970   4.636 -0.1416 -2.8409  0.5724
  132MOL    C9216074   7.263   1.842   4.526 -0.6418  0.1532 -0.9423
  132MOL    C9316075   7.335   1.717   4.591  0.6258  0.0637  0.1090
  132MOL    F9416076   7.465   1.734   4.587  0.2775  0.0221  0.0771
  132MOL    H9516077   7.154   1.843   4.523 -0.7365 -1.1003  1.2230
  132MOL    H9616078   7.308   1.864   4.429  0.0786  1.6385 -0.2921
  132MOL    H9716079   7.316   1.635   4.522  0.4642 -0.5050  0.8253
  132MOL    C9816080   7.291   1.670   4.733  0.5695 -0.9793 -0.2456
  132MOL    C9916081   7.343   1.532   4.788 -0.2860 -0.2756 -0.3303
  132MOL   F10016082   7.308   1.435   4.700 -0.1468 -0.0452 -0.2542
  132MOL   H10116083   7.317   1.750   4.802 -0.5984 -1.5663  0.8851
  132MOL   H10216084   7.183   1.661   4.739  0.3758  0.1341 -1.8420
  132MOL   H10316085   7.288   1.512   4.880  2.0637 -1.3185  0.8989
  132MOL   C10416086   7.491   1.543   4.824  0.7179  0.1448 -0.1982
  132MOL   C10516087   7.546   1.435   4.918 -0.5649  0.0801  0.2219
  132MOL   F10616088   7.525   1.321   4.856 -0.1452  0.6027 -0.1136
  132MOL   H10716089   7.553   1.554   4.735 -0.6494 -0.0496 -1.1931
  132MOL   H10816090   7.497   1.634   4.883  1.4139  0.2810 -0.4830
  132MOL   H10916091   7.497   1.421   5.014 -1.4635 -0.7515 -0.3364
  132MOL   C11016092   7.700   1.453   4.942 -0.8864  0.4143 -0.6107
  132MOL   C11116093   7.745   1.546   5.053  0.6405 -0.9292  1.0257
  132MOL   F11216094   7.688   1.501   5.165  0.2236  0.5595 -0.3901
  132MOL   H11316095   7.735   1.352   4.964  0.2120  0.9476  0.1176
  132MOL   H11416096   7.746   1.488   4.849  2.9588  1.9914  1.7462
  132MOL   H11516097   7.708   1.645   5.025  0.3648 -1.3665 -0.2029
  132MOL   C11616098   7.895   1.555   5.072  0.1957  0.5453  0.6992
  132MOL   C11716099   7.942   1.626   5.195  0.1271 -0.2441 -0.5712
  132MOL   F11816100   7.932   1.761   5.186 -0.2985 -0.3078  0.1661
  132MOL   H11916101   7.932   1.454   5.091 -2.3529 -0.4670  0.4974
  132MOL   H12016102   7.936   1.603   4.983 -0.7429 -0.3497 -0.2225
  132MOL   H12116103   0.038   1.601   5.234 -0.4146 -2.7889 -0.7104
  132MOL   H12216104   7.879   1.595   5.278 -2.6529  1.4753 -1.9562
  133MOL     C116105   2.743   3.644   1.174 -0.6179 -0.7469  0.2755
  133MOL     C216106   2.693   3.671   1.028  0.0749 -0.8705 -0.2092
  133MOL     F316107   2.640   3.794   1.012 -0.4184 -0.2199  0.3194
  133MOL     H416108   2.832   3.582   1.173 -0.5301 -0.6151 -0.3685
  133MOL     H516109   2.660   3.621   1.241  0.2896  2.0552  2.5085
  133MOL     H616110   2.613   3.602   1.003  3.0045 -3.9149 -1.4929
  133MOL     H716111   2.784   3.737   1.214  0.7183 -0.9461 -0.5777
  133MOL     C816112   2.817   3.654   0.941 -0.1742  0.4749 -0.4191
  133MOL     C916113   2.784   3.637   0.797  0.1411  0.5710 -0.2756
  133MOL    F1016114   2.723   3.747   0.754  0.0980 -0.5414  0.0642
  133MOL    H1116115   2.897   3.728   0.951  1.0619 -1.0311  1.2709
  133MOL    H1216116   2.863   3.558   0.965 -0.9341  0.2654  0.1984
  133MOL    H1316117   2.720   3.551   0.773  0.7871  0.3789 -1.3371
  133MOL    C1416118   2.919   3.625   0.725  0.0653  0.4238 -0.6811
  133MOL    C1516119   2.920   3.661   0.579  1.2658  0.7921  0.1447
  133MOL    F1616120   3.040   3.645   0.525  0.1022  0.5623  0.2716
  133MOL    H1716121   2.998   3.676   0.780 -0.3672  0.1066  0.2342
  133MOL    H1816122   2.956   3.523   0.729 -1.4390 -0.0758  0.8779
  133MOL    H1916123   2.898   3.767   0.570 -0.4340  0.4621  0.1387
  133MOL    C2016124   2.821   3.574   0.501 -0.2853 -0.2625  0.0295
  133MOL    C2116125   2.810   3.589   0.352 -0.3825  0.2138  0.7338
  133MOL    F2216126   2.737   3.485   0.304 -0.3026 -0.5819  0.6462
  133MOL    H2316127   2.838   3.469   0.523  0.7639 -0.1152 -0.0282
  133MOL    H2416128   2.724   3.598   0.544 -0.1863 -0.1999  0.2220
  133MOL    H2516129   2.909   3.583   0.307 -1.0715  0.8729 -0.9419
  133MOL    C2616130   2.736   3.717   0.321  0.0642 -0.5969  1.0235
  133MOL    C2716131   2.730   3.732   0.168 -0.1083  0.0681 -0.3570
  133MOL    F2816132   2.640   3.823   0.138 -0.5374 -0.3625 -0.0606
  133MOL    H2916133   2.632   3.713   0.353 -0.2844 -1.2909 -0.1975
  133MOL    H3016134   2.779   3.811   0.357  2.9862 -1.9069  1.1389
  133MOL    H3116135   2.683   3.645   0.122 -0.6162 -0.2305  0.7119
  133MOL    C3216136   2.863   3.765   0.095  0.3116  0.1104  0.3467
  133MOL    C3316137   2.949   3.879   0.152  0.2668  0.0081  0.1073
  133MOL    F3416138   3.022   3.829   0.255 -0.1017  0.4879 -0.6319
  133MOL    H3516139   2.917   3.671   0.082  1.0697  0.6066 -0.1240
  133MOL    H3616140   2.828   3.780   7.996 -0.6526  0.4673  0.7261
  133MOL    H3716141   2.882   3.948   0.203 -0.2839  0.2930 -0.9727
  133MOL    C3816142   3.046   3.942   0.046 -0.6902 -0.1344  0.1293
  133MOL    C3916143   3.161   4.031   0.102 -0.0858  1.1558  0.8939
  133MOL    F4016144   3.217   4.073   7.993 -0.2960  0.0366  0.4992
  133MOL    H4116145   3.099   3.860   8.001 -2.9537 -2.6692  1.8046
  133MOL    H4216146   2.981   3.997   7.981  1.9255  1.0794 -1.4653
  133MOL    H4316147   3.229   3.970   0.163  0.9845 -1.1582 -2.4905
  133MOL    C4416148   3.101   4.153   0.180 -0.6660 -0.1270 -0.3129
  133MOL    C4516149   3.214   4.260   0.211  0.1794  0.2658  0.3444
  133MOL    F4616150   3.243   4.342   0.108 -0.3074 -0.2449  0.0033
  133MOL    H4716151   3.036   4.200   0.107  0.6747  2.7931  0.2982
  133MOL    H4816152   3.043   4.108   0.262  2.3012 -2.4324  0.6168
  133MOL    H4916153   3.307   4.203   0.224 -0.1573 -0.7128 -1.4383
  133MOL    C5016154   3.203   4.339   0.337  0.1735 -0.3849 -1.0477
  133MOL    C5116155   3.331   4.416   0.381  0.3349 -0.3442 -0.0635
  133MOL    F5216156   3.365   4.510   0.286  0.1550  0.2387 -0.7667
  133MOL    H5316157   3.120   4.410   0.334  0.3861 -0.0496  0.3385
  133MOL    H5416158   3.175   4.274   0.420 -0.7712 -0.6133 -1.5405
  133MOL    H5516159   3.414   4.347   0.393  2.0906  1.5089 -1.2095
  133MOL    C5616160   3.304   4.482   0.517  0.0827  0.2899 -0.0066
  133MOL    C5716161   3.413   4.580   0.575  0.2192  0.1300 -0.7820
  133MOL    F5816162   3.423   4.692   0.498 -0.2110 -0.4283  0.1010
  133MOL    H5916163   3.209   4.535   0.513  1.2829  2.5125  0.1330
  133MOL    H6016164   3.275   4.409   0.593 -1.9616 -1.7691 -2.6479
  133MOL    H6116165   3.512   4.536   0.584 -0.0031 -0.5584 -1.5895
  133MOL    C6216166   3.375   4.617   0.720 -0.2356  0.0307  0.1247
  133MOL    C6316167   3.485   4.689   0.800  0.1790 -0.5359 -0.0955
  133MOL    F6416168   3.427   4.744   0.909 -0.5517 -0.5177  0.5621
  133MOL    H6516169   3.295   4.689   0.700  1.6157  1.9001 -0.6793
  133MOL    H6616170   3.330   4.529   0.766 -4.2291  1.1072 -1.4895
  133MOL    H6716171   3.529   4.773   0.745  3.3300 -1.6821  0.5551
  133MOL    C6816172   3.607   4.608   0.845 -0.3579 -0.4673 -0.3130
  133MOL    C6916173   3.717   4.686   0.934 -0.1361  0.8060 -0.2289
  133MOL    F7016174   3.664   4.730   1.055  0.1894  0.1810  0.3125
  133MOL    H7116175   3.566   4.522   0.897 -0.3585  1.1362  2.4465
  133MOL    H7216176   3.662   4.576   0.757 -0.9065 -1.2683 -0.3671
  133MOL    H7316177   3.746   4.778   0.884 -3.3944  1.1769 -1.5771
  133MOL    C7416178   3.841   4.590   0.955 -0.2676  0.7028 -0.4095
  133MOL    C7516179   3.951   4.634   1.058 -1.0220 -0.4433  0.8379
  133MOL    F7616180   4.027   4.531   1.057  0.0965 -0.5763  0.0390
  133MOL    H7716181   3.810   4.493   0.992  1.1134  0.9957  1.6149
  133MOL    H7816182   3.874   4.573   0.853 -2.8697  0.3996 -1.2370
  133MOL    H7916183   3.908   4.655   1.156 -0.3019 -0.4029  1.1454
  133MOL    C8016184   4.028   4.754   1.004  0.0284 -0.2092  0.0328
  133MOL    C8116185   4.143   4.812   1.083 -0.3523 -0.2458  0.0278
  133MOL    F8216186   4.215   4.894   1.002  0.5035  0.5014 -0.2106
  133MOL    H8316187   4.073   4.732   0.906 -0.0280 -0.9037  0.1566
  133MOL    H8416188   3.956   4.833   0.985 -0.4783 -1.7602 -5.3248
  133MOL    H8516189   4.213   4.731   1.108 -0.4937 -0.4492 -0.2331
  133MOL    C8616190   4.104   4.900   1.200 -0.3101 -1.2354 -0.9530
  133MOL    C8716191   4.211   4.959   1.293  0.2940 -0.0428  0.0450
  133MOL    F8816192   4.148   5.047   1.377  0.0270 -0.0076 -0.0021
  133MOL    H8916193   4.042   4.982   1.162  1.2212  0.5569  0.3615
  133MOL    H9016194   4.034   4.864   1.275 -0.8048 -0.1194 -0.8590
  133MOL    H9116195   4.295   5.005   1.241  0.1162 -0.0032 -0.2086
  133MOL    C9216196   4.285   4.845   1.369 -0.5717 -0.0788 -0.0159
  133MOL    C9316197   4.376   4.883   1.494 -0.3702  0.0069  0.6214
  133MOL    F9416198   4.292   4.908   1.596 -0.5600  0.0119 -0.0160
  133MOL    H9516199   4.218   4.768   1.405  0.1100 -0.8775 -0.4182
  133MOL    H9616200   4.350   4.793   1.298  0.1784  0.9613 -0.1015
  133MOL    H9716201   4.416   4.979   1.464  0.2400  0.6301  3.2882
  133MOL    C9816202   4.476   4.779   1.529 -0.2663  0.2963 -0.3543
  133MOL    C9916203   4.549   4.798   1.660  0.1848  0.3862 -0.0312
  133MOL   F10016204   4.609   4.679   1.694  0.2308 -0.3479 -0.5153
  133MOL   H10116205   4.421   4.685   1.530 -1.4087  0.9414 -0.6911
  133MOL   H10216206   4.544   4.791   1.445 -0.7555  1.7490 -0.5554
  133MOL   H10316207   4.475   4.821   1.737  1.0760 -1.1431  1.3215
  133MOL   C10416208   4.655   4.908   1.648  0.3549 -0.3869  0.2709
  133MOL   C10516209   4.761   4.895   1.757 -0.2337 -0.1956 -0.6230
  133MOL   F10616210   4.860   4.961   1.709 -0.0050 -0.1564  0.6572
  133MOL   H10716211   4.714   4.893   1.558 -0.4653  2.5806 -0.8296
  133MOL   H10816212   4.613   5.008   1.642  2.0487  0.3707  0.6786
  133MOL   H10916213   4.782   4.789   1.773  0.4208 -0.2056 -1.5319
  133MOL   C11016214   4.730   4.960   1.895 -0.2845  0.1334 -0.5789
  133MOL   C11116215   4.828   4.898   2.002  0.5728 -0.2244 -0.5352
  133MOL   F11216216   4.956   4.901   1.961 -0.1550  0.3319 -0.3950
  133MOL   H11316217   4.747   5.067   1.901 -2.0341  0.7012 -4.1762
  133MOL   H11416218   4.623   4.949   1.916 -0.0771 -0.0151  0.4079
  133MOL   H11516219   4.800   4.793   2.012 -1.7706  0.6573  2.8068
  133MOL   C11616220   4.825   4.967   2.136 -0.2060  0.0822 -0.1132
  133MOL   C11716221   4.891   4.892   2.253 -0.1185 -0.1495 -0.0490
  133MOL   F11816222   4.880   4.956   2.370  0.0101  0.0298  0.9155
  133MOL   H11916223   4.869   5.066   2.127  2.9912 -1.0386  2.1277
  133MOL   H12016224   4.719   4.975   2.158  0.2617  0.8629  1.9610
  133MOL   H12116225   4.995   4.869   2.231  0.3996 -0.6665  2.8275
  133MOL   H12216226   4.838   4.798   2.268 -0.8473  0.5044  1.5490
  134MOL     C116227   5.072   3.162   3.987  0.1262  1.0448  0.1858
  134MOL     C216228   4.955   3.251   3.949  0.7781 -0.4935  0.0914
  134MOL     F316229   4.862   3.256   4.051  0.1374 -0.2661 -0.1598
  134MOL     H416230   5.123   3.200   4.075  1.4722  1.7057 -0.8578
  134MOL     H516231   5.149   3.157   3.910  1.0320  2.1828  0.9945
  134MOL     H616232   4.897   3.215   3.863  0.8123 -2.5208  0.8946
  134MOL     H716233   5.037   3.063   4.015  0.1236  1.1111  0.4156
  134MOL     C816234   5.010   3.387   3.923  0.3664 -0.9614  0.0763
  134MOL     C916235   4.901   3.494   3.899 -0.0056 -0.2370 -0.3018
  134MOL    F1016236   4.850   3.533   4.019  0.0415 -0.4857  0.2732
  134MOL    H1116237   5.055   3.434   4.011  0.8879 -0.3281 -0.5266
  134MOL    H1216238   5.080   3.386   3.840  0.2453 -0.4125 -0.0323
  134MOL    H1316239   4.818   3.459   3.838  1.0082  2.7013 -3.5233
  134MOL    C1416240   4.965   3.618   3.833  0.2349 -0.2560  0.0043
  134MOL    C1516241   4.868   3.740   3.808  0.3003 -0.2345 -0.2025
  134MOL    F1616242   4.834   3.794   3.931  0.0988 -0.0648  0.4920
  134MOL    H1716243   5.049   3.646   3.896  1.2983  0.8705 -1.8498
  134MOL    H1816244   5.006   3.574   3.741 -3.8566  0.3766 -2.2418
  134MOL    H1916245   4.771   3.711   3.768 -0.3265  1.3244  0.1452
  134MOL    C2016246   4.939   3.854   3.735  0.2457  1.0182  0.2372
  134MOL    C2116247   4.958   3.812   3.585  0.1602 -0.5229  0.4277
  134MOL    F2216248   4.842   3.801   3.524 -0.2374 -0.1231  0.0106
  134MOL    H2316249   4.883   3.947   3.748  0.9250  1.6063 -0.9045
  134MOL    H2416250   5.037   3.882   3.774  0.7036  0.5453 -0.5676
  134MOL    H2516251   5.023   3.725   3.569  1.0880 -0.4010  3.1445
  134MOL    C2616252   5.017   3.938   3.510 -0.1244  0.0342 -0.5957
  134MOL    C2716253   5.168   3.943   3.503  0.1283  0.0555 -0.4547
  134MOL    F2816254   5.210   3.839   3.428  0.3289 -0.3157 -0.7570
  134MOL    H2916255   4.978   3.948   3.409  1.5279 -0.8029 -1.3265
  134MOL    H3016256   4.988   4.036   3.549 -2.1017 -0.3397 -1.0444
  134MOL    H3116257   5.205   3.940   3.606 -1.0896  0.0310 -0.0134
  134MOL    C3216258   5.221   4.065   3.426 -0.0358 -0.1703 -0.8008
  134MOL    C3316259   5.371   4.064   3.401 -0.1917  0.5539  0.5539
  134MOL    F3416260   5.390   4.151   3.296 -0.2766  0.5204 -0.0263
  134MOL    H3516261   5.173   4.062   3.328 -1.2089  0.4225 -0.2627
  134MOL    H3616262   5.200   4.157   3.479  0.0584 -1.3152  1.2811
  134MOL    H3716263   5.402   3.963   3.372  0.2126  1.1438 -1.1235
  134MOL    C3816264   5.459   4.107   3.519  0.0342 -0.2023 -0.4006
  134MOL    C3916265   5.604   4.119   3.481  0.2031 -0.0496 -0.1735
  134MOL    F4016266   5.620   4.234   3.401  0.0628 -0.0618 -0.2042
  134MOL    H4116267   5.434   4.210   3.546 -0.0872 -0.1504 -0.7078
  134MOL    H4216268   5.438   4.042   3.604  2.2561 -0.1874  0.1893
  134MOL    H4316269   5.627   4.036   3.414  1.2769 -0.5569  0.8061
  134MOL    C4416270   5.710   4.117   3.582 -0.2909  0.7531  0.0862
  134MOL    C4516271   5.713   4.240   3.679  0.1390 -0.4906 -0.0158
  134MOL    F4616272   5.600   4.258   3.744  0.4683  0.1347 -0.2991
  134MOL    H4716273   5.693   4.030   3.645 -0.4416  0.8380  0.1635
  134MOL    H4816274   5.807   4.114   3.533 -0.9445  0.5279 -1.2087
  134MOL    H4916275   5.717   4.335   3.625 -0.3589 -1.4428 -1.7646
  134MOL    C5016276   5.826   4.238   3.773 -0.7388  0.1806  0.8942
  134MOL    C5116277   5.853   4.360   3.854  0.6428  0.2755  0.3495
  134MOL    F5216278   5.963   4.341   3.926 -0.6404 -0.1762  0.0820
  134MOL    H5316279   5.817   4.152   3.840 -0.6779  0.6469  1.5032
  134MOL    H5416280   5.915   4.222   3.712 -1.7992 -1.8408 -0.1653
  134MOL    H5516281   5.772   4.360   3.926  2.6399 -2.2090  2.7387
  134MOL    C5616282   5.864   4.498   3.784  0.2654  0.0741 -0.5611
  134MOL    C5716283   5.905   4.613   3.882  0.0474  0.6343  0.6373
  134MOL    F5816284   5.978   4.716   3.825  0.2576  0.5386  0.7256
  134MOL    H5916285   5.943   4.488   3.710 -0.9507 -0.1746 -1.8518
  134MOL    H6016286   5.782   4.539   3.725  0.3686  1.0070 -0.0655
  134MOL    H6116287   5.970   4.572   3.960  0.8535  2.3953  0.9209
  134MOL    C6216288   5.792   4.683   3.947  0.8086 -0.3453 -0.0380
  134MOL    C6316289   5.829   4.776   4.066  0.1057 -0.1935 -0.1191
  134MOL    F6416290   5.899   4.707   4.155 -0.0244  0.4198 -0.1870
  134MOL    H6516291   5.739   4.742   3.872  2.9335  3.6090  1.4153
  134MOL    H6616292   5.726   4.610   3.994  1.1675 -0.9049 -0.4018
  134MOL    H6716293   5.743   4.793   4.131  0.0154 -2.3070  0.3749
  134MOL    C6816294   5.893   4.910   4.028 -0.2006 -0.4282 -0.3013
  134MOL    C6916295   5.876   5.017   4.140 -0.0953 -0.1826  0.5267
  134MOL    F7016296   5.742   5.051   4.143 -0.3440  0.0355 -0.3148
  134MOL    H7116297   6.000   4.902   4.010  0.2927 -0.6488  2.4377
  134MOL    H7216298   5.855   4.951   3.935  0.0498  1.1953  0.2970
  134MOL    H7316299   5.931   5.106   4.111 -0.7509 -1.3231 -4.7206
  134MOL    C7416300   5.930   4.977   4.287  0.4179 -0.1483 -0.6368
  134MOL    C7516301   5.936   5.092   4.394  0.1119  0.1834  1.2661
  134MOL    F7616302   5.965   5.029   4.502  0.3131  0.3796 -0.4864
  134MOL    H7716303   5.871   4.894   4.326  0.2279  0.3328  0.1201
  134MOL    H7816304   6.028   4.931   4.276  0.0144 -2.0775  3.0637
  134MOL    H7916305   5.846   5.152   4.413  0.1303 -0.1868  2.5663
  134MOL    C8016306   6.057   5.183   4.368  0.0871 -0.5804 -0.3082
  134MOL    C8116307   6.086   5.286   4.486  0.3320  0.3257  0.3202
  134MOL    F8216308   6.127   5.216   4.593  0.0051  0.2662 -0.5646
  134MOL    H8316309   6.146   5.121   4.356  0.1427 -0.5916  0.1181
  134MOL    H8416310   6.034   5.242   4.280 -0.3307  0.2608  0.3605
  134MOL    H8516311   5.989   5.332   4.508  1.3264  3.5004 -1.5077
  134MOL    C8616312   6.196   5.395   4.447  0.1539  0.3247 -0.3869
  134MOL    C8716313   6.199   5.511   4.542  0.5341 -0.2453 -1.1294
  134MOL    F8816314   6.204   5.468   4.663 -0.6364 -0.1116 -0.2199
  134MOL    H8916315   6.294   5.346   4.442 -0.3854 -0.8424  0.1741
  134MOL    H9016316   6.172   5.438   4.350 -0.3992  0.6199 -0.1193
  134MOL    H9116317   6.103   5.562   4.535 -0.5427 -2.1889 -1.1064
  134MOL    C9216318   6.307   5.604   4.501 -0.3321  0.0114  0.2575
  134MOL    C9316319   6.450   5.580   4.533  0.4078  0.3240  0.4994
  134MOL    F9416320   6.493   5.495   4.441 -0.7004 -0.1063  0.3504
  134MOL    H9516321   6.289   5.630   4.397 -0.5332 -1.6505 -0.1286
  134MOL    H9616322   6.287   5.697   4.554  2.0841 -0.0253  1.3093
  134MOL    H9716323   6.450   5.534   4.632  1.0245 -0.7076  0.0303
  134MOL    C9816324   6.520   5.720   4.518  0.3722 -0.1236 -0.9738
  134MOL    C9916325   6.674   5.723   4.543 -0.3058  0.0660  0.4356
  134MOL   F10016326   6.727   5.636   4.459 -0.0437  0.2821  0.2846
  134MOL   H10116327   6.506   5.763   4.419  0.4303 -0.3909 -1.0989
  134MOL   H10216328   6.483   5.792   4.590 -0.8668 -0.3144 -1.4188
  134MOL   H10316329   6.697   5.688   4.643  2.9157  2.7708  0.7579
  134MOL   C10416330   6.743   5.866   4.515  0.3782 -0.3478 -0.3203
  134MOL   C10516331   6.890   5.881   4.550  0.0687 -0.0805 -0.5802
  134MOL   F10616332   6.904   5.857   4.681 -0.1601 -0.1268 -0.3342
  134MOL   H10716333   6.714   5.907   4.418 -0.4037  0.2893  0.1763
  134MOL   H10816334   6.700   5.938   4.584  4.0400  1.8524 -0.2305
  134MOL   H10916335   6.917   5.985   4.532 -1.1881 -0.0293 -2.2399
  134MOL   C11016336   6.991   5.790   4.471  0.4101  0.1683  0.4542
  134MOL   C11116337   7.035   5.833   4.333 -0.0484 -0.4476  0.3444
  134MOL   F11216338   7.132   5.747   4.310 -0.0702 -0.4220  0.0903
  134MOL   H11316339   7.087   5.788   4.523  0.4938 -0.4031  0.2873
  134MOL   H11416340   6.952   5.689   4.485 -0.6016  0.4211 -0.5205
  134MOL   H11516341   7.081   5.932   4.331 -0.4880 -0.2387  0.5513
  134MOL   C11616342   6.944   5.815   4.213  0.4610  0.2197  0.7818
  134MOL   C11716343   7.013   5.839   4.079 -0.5100  0.2382  0.8944
  134MOL   F11816344   7.023   5.969   4.060 -0.2908 -0.1207  0.1061
  134MOL   H11916345   6.905   5.715   4.233 -0.7454  0.6031  0.4335
  134MOL   H12016346   6.860   5.883   4.232  0.5534  1.0795 -1.7150
  134MOL   H12116347   6.955   5.796   3.998 -0.6311 -1.0470  1.6529
  134MOL   H12216348   7.114   5.796   4.077 -1.6194 -2.4472  0.9535
  135MOL     C116349   5.660   2.919   1.626  0.0104 -0.0954  0.4869
  135MOL     C216350   5.812   2.928   1.585 -0.2504  0.7440 -0.5295
  135MOL     F316351   5.823   2.970   1.458 -0.3621 -0.0987 -0.3520
  135MOL     H416352   5.610   2.846   1.563  0.7858 -1.6168  1.6237
  135MOL     H516353   5.616   3.014   1.594  0.0628 -0.3515 -0.3614
  135MOL     H616354   5.868   2.834   1.590 -1.1455  0.1837 -0.9723
  135MOL     H716355   5.645   2.902   1.733  0.4709  1.2007  0.7756
  135MOL     C816356   5.878   3.030   1.678  0.3550 -0.2115  0.4604
  135MOL     C916357   5.902   3.001   1.829 -0.4399  0.3810  0.5451
  135MOL    F1016358   5.992   2.902   1.829  0.5018 -0.0432  0.1948
  135MOL    H1116359   5.972   3.073   1.645 -0.0979  0.0326 -0.5331
  135MOL    H1216360   5.811   3.115   1.667 -0.8009 -0.7547  2.9030
  135MOL    H1316361   5.812   2.971   1.882  0.1345  1.6021  2.2454
  135MOL    C1416362   5.959   3.122   1.910 -0.0097  0.0853 -0.6710
  135MOL    C1516363   5.863   3.238   1.943 -0.6389 -0.0463  0.0607
  135MOL    F1616364   5.773   3.177   2.015 -0.1288 -0.0127  0.0343
  135MOL    H1716365   5.993   3.077   2.004  3.1264  2.0877 -0.7794
  135MOL    H1816366   6.049   3.162   1.864 -0.5556  1.6614 -0.4081
  135MOL    H1916367   5.806   3.268   1.855 -0.4094 -1.1801 -0.4858
  135MOL    C2016368   5.917   3.350   2.039 -0.0497 -0.6283 -0.2776
  135MOL    C2116369   6.018   3.457   1.987 -0.1563  0.4143 -0.6882
  135MOL    F2216370   5.955   3.530   1.896 -0.2824  0.6333  0.7649
  135MOL    H2316371   5.824   3.401   2.064  0.9700  0.6471  1.0000
  135MOL    H2416372   5.950   3.308   2.134  0.5491  2.1956  0.8259
  135MOL    H2516373   6.082   3.403   1.916 -0.4188  3.4449 -3.3360
  135MOL    C2616374   6.102   3.533   2.090  0.4050 -0.1571 -0.2018
  135MOL    C2716375   6.014   3.620   2.188  0.0430 -0.5379  0.2970
  135MOL    F2816376   5.965   3.554   2.293  0.3591 -0.3874 -0.1236
  135MOL    H2916377   6.162   3.463   2.147  1.3290  0.5415 -0.3005
  135MOL    H3016378   6.183   3.587   2.042  1.6008 -0.7073  1.1635
  135MOL    H3116379   5.925   3.658   2.139  0.4317  0.3435  0.2722
  135MOL    C3216380   6.091   3.743   2.247  0.1920 -0.8598 -0.7815
  135MOL    C3316381   6.006   3.853   2.316 -0.7137  0.0238 -0.6451
  135MOL    F3416382   5.939   3.801   2.417  0.6235 -0.0642 -0.2450
  135MOL    H3516383   6.176   3.709   2.305  1.8238  0.0548 -2.5933
  135MOL    H3616384   6.134   3.799   2.164 -0.6130 -0.2661 -0.8029
  135MOL    H3716385   5.924   3.893   2.256 -1.4851  1.6600  1.4060
  135MOL    C3816386   6.090   3.977   2.348 -0.4373 -1.0720 -0.1873
  135MOL    C3916387   6.007   4.070   2.449 -0.1557 -0.3181 -0.0425
  135MOL    F4016388   6.091   4.145   2.527 -0.2570  0.0239 -0.4757
  135MOL    H4116389   6.181   3.947   2.399 -0.1673  2.3592  1.4840
  135MOL    H4216390   6.122   4.034   2.260 -0.1009 -0.7293  0.1578
  135MOL    H4316391   5.935   4.014   2.509 -0.3368 -0.8669 -0.7656
  135MOL    C4416392   5.925   4.178   2.380 -1.3303  0.1295  1.1480
  135MOL    C4516393   5.817   4.229   2.469 -0.7298 -0.1538 -0.1072
  135MOL    F4616394   5.862   4.265   2.586 -0.0248 -0.2078  0.1358
  135MOL    H4716395   5.986   4.260   2.342 -0.2753 -1.3959 -0.5610
  135MOL    H4816396   5.869   4.139   2.295 -0.8643  0.9884  0.4402
  135MOL    H4916397   5.743   4.152   2.493 -0.4474 -0.8063 -1.2980
  135MOL    C5016398   5.727   4.343   2.415 -0.1287 -0.0075  0.4409
  135MOL    C5116399   5.623   4.394   2.512 -0.3235 -1.0222  0.4498
  135MOL    F5216400   5.564   4.499   2.448 -0.4332  0.0211 -0.7788
  135MOL    H5316401   5.799   4.419   2.382  0.8457 -1.3289 -0.5440
  135MOL    H5416402   5.669   4.315   2.327  0.8173  1.4930 -0.6982
  135MOL    H5516403   5.663   4.437   2.604  2.2163 -2.5550  0.1067
  135MOL    C5616404   5.514   4.296   2.551 -0.2555  0.1410  0.3437
  135MOL    C5716405   5.558   4.233   2.681  0.4177  0.0455 -0.4429
  135MOL    F5816406   5.569   4.327   2.773  0.5973  0.2620  0.0998
  135MOL    H5916407   5.420   4.350   2.566 -0.4812 -0.3339  0.6274
  135MOL    H6016408   5.490   4.224   2.473  1.2133  0.3559 -0.3280
  135MOL    H6116409   5.655   4.184   2.667  0.7467  0.6920 -0.4860
  135MOL    C6216410   5.471   4.121   2.729 -0.2796 -0.7753 -0.4945
  135MOL    C6316411   5.513   4.068   2.857 -0.7830  0.2392  0.2560
  135MOL    F6416412   5.425   3.966   2.891 -0.1457 -0.6093  0.3775
  135MOL    H6516413   5.371   4.160   2.749 -0.2271 -1.1319  0.5374
  135MOL    H6616414   5.456   4.041   2.657 -1.1219 -2.1669  1.1728
  135MOL    H6716415   5.499   4.140   2.937 -0.5252 -0.4724  0.9445
  135MOL    C6816416   5.648   3.986   2.861 -0.5189 -0.2444 -0.2400
  135MOL    C6916417   5.671   3.879   2.755 -0.0789  0.1325  0.2982
  135MOL    F7016418   5.680   3.938   2.634  0.2900 -0.1169 -0.2189
  135MOL    H7116419   5.731   4.056   2.862  0.2556 -1.1435 -0.4695
  135MOL    H7216420   5.665   3.955   2.964  1.1690  1.7537  0.1128
  135MOL    H7316421   5.584   3.814   2.751  0.1388 -0.0349 -2.9009
  135MOL    C7416422   5.798   3.797   2.780  0.6996  0.3313 -0.2477
  135MOL    C7516423   5.806   3.663   2.701 -0.0991  0.1000 -0.4260
  135MOL    F7616424   5.937   3.656   2.656 -0.4929  0.0455  0.1825
  135MOL    H7716425   5.880   3.859   2.745  1.0818  0.7487  1.3646
  135MOL    H7816426   5.805   3.789   2.888 -0.7766 -1.3883 -0.2408
  135MOL    H7916427   5.742   3.670   2.613 -0.6596  1.2320  0.0602
  135MOL    C8016428   5.755   3.543   2.782  0.6063  0.1109 -0.2498
  135MOL    C8116429   5.801   3.404   2.727 -0.0624 -0.1836 -0.8132
  135MOL    F8216430   5.753   3.317   2.812  0.6189 -0.3600  0.2525
  135MOL    H8316431   5.794   3.551   2.884 -1.1981  0.5350  0.4209
  135MOL    H8416432   5.647   3.528   2.787  0.4980  1.3916  1.5236
  135MOL    H8516433   5.908   3.383   2.731 -0.0552 -0.1290 -0.7122
  135MOL    C8616434   5.743   3.365   2.586 -0.1772  0.3394 -0.5174
  135MOL    C8716435   5.834   3.252   2.533 -0.3109  0.1395  0.7280
  135MOL    F8816436   5.836   3.150   2.620  0.1009 -0.8518  0.2074
  135MOL    H8916437   5.641   3.328   2.600 -0.5539  0.8838 -1.7498
  135MOL    H9016438   5.747   3.444   2.512  0.9598 -0.1338 -0.9775
  135MOL    H9116439   5.933   3.287   2.504  0.6039 -1.3231  2.0284
  135MOL    C9216440   5.777   3.194   2.400  0.6429 -0.2318  0.0152
  135MOL    C9316441   5.855   3.079   2.339  0.7080  0.1477 -0.0755
  135MOL    F9416442   5.981   3.113   2.335  0.2885 -0.4679  0.2758
  135MOL    H9516443   5.676   3.157   2.417  0.6147  0.7892  2.2583
  135MOL    H9616444   5.764   3.274   2.327 -2.0031 -0.8195 -0.2230
  135MOL    H9716445   5.829   3.080   2.233 -1.5875  0.0054  0.4668
  135MOL    C9816446   5.839   2.941   2.409  0.1621 -1.2013 -0.1324
  135MOL    C9916447   5.879   2.820   2.325  0.1812 -0.2169  0.2320
  135MOL   F10016448   5.901   2.716   2.405 -0.3957 -0.2031  0.0187
  135MOL   H10116449   5.903   2.948   2.497  0.6526  0.3908 -0.5971
  135MOL   H10216450   5.735   2.934   2.442  0.8592 -1.0921  2.2432
  135MOL   H10316451   5.970   2.834   2.267  0.2409 -0.9605  0.1512
  135MOL   C10416452   5.768   2.787   2.224 -0.6872  0.0609 -0.0806
  135MOL   C10516453   5.769   2.659   2.134  0.0549 -0.3286  0.3289
  135MOL   F10616454   5.639   2.617   2.127 -0.3046 -0.1567  0.2194
  135MOL   H10716455   5.679   2.784   2.287  0.1414  0.0850  1.1010
  135MOL   H10816456   5.761   2.881   2.170 -1.6336  1.3468  2.2289
  135MOL   H10916457   5.820   2.577   2.185 -0.0888  0.5677  1.9344
  135MOL   C11016458   5.821   2.677   1.986 -0.4038  0.1341 -0.4040
  135MOL   C11116459   5.850   2.544   1.905  0.7264 -0.6112  0.9003
  135MOL   F11216460   5.864   2.583   1.777 -0.1683  0.0581  0.3324
  135MOL   H11316461   5.762   2.754   1.937  0.5217 -0.3094 -2.2840
  135MOL   H11416462   5.916   2.730   1.971 -1.1366  1.3334 -0.8988
  135MOL   H11516463   5.762   2.480   1.908 -0.0496  0.2723 -1.8864
  135MOL   C11616464   5.969   2.454   1.951 -0.6252 -0.2149 -0.0568
  135MOL   C11716465   5.974   2.327   1.872 -0.2128  0.4110  0.1468
  135MOL   F11816466   6.084   2.257   1.906 -0.6875  0.2095 -0.1249
  135MOL   H11916467   6.070   2.495   1.957 -0.1398 -0.9696 -2.2256
  135MOL   H12016468   5.966   2.411   2.051 -0.8105 -0.9443 -0.3672
  135MOL   H12116469   5.978   2.350   1.766  0.6779  1.2708  0.3595
  135MOL   H12216470   5.885   2.265   1.887  0.0842  0.0463  0.4252
  136MOL     C116471   4.660   3.649   1.114  0.4335 -0.0444 -0.3051
  136MOL     C216472   4.690   3.531   1.207  0.4733 -0.0727  0.2282
  136MOL     F316473   4.813   3.481   1.195 -0.1403  0.4174  0.1489
  136MOL     H416474   4.668   3.626   1.008  0.0592  0.9911 -0.5602
  136MOL     H516475   4.735   3.725   1.131  2.7990 -2.6048  1.0324
  136MOL     H616476   4.633   3.440   1.186  1.7863 -0.7034 -0.6814
  136MOL     H716477   4.558   3.685   1.126  0.3268  0.0393 -1.3742
  136MOL     C816478   4.672   3.569   1.353  0.5194  0.2201  0.0138
  136MOL     C916479   4.547   3.644   1.392 -0.3757  0.5145 -0.2067
  136MOL    F1016480   4.438   3.563   1.376  0.4021  0.3642  0.2218
  136MOL    H1116481   4.673   3.476   1.409  0.5083 -0.1607 -0.6171
  136MOL    H1216482   4.750   3.627   1.403  2.2108 -0.4333 -1.7729
  136MOL    H1316483   4.531   3.727   1.323 -1.6173  0.4737  0.0209
  136MOL    C1416484   4.538   3.697   1.537  0.5216 -0.1033  0.4554
  136MOL    C1516485   4.490   3.597   1.647 -0.1998  0.5891 -1.0693
  136MOL    F1616486   4.569   3.487   1.646 -0.6475  0.3874  0.0012
  136MOL    H1716487   4.635   3.739   1.563  0.1488  1.0527  0.0274
  136MOL    H1816488   4.468   3.780   1.533  1.1516  0.3666 -1.5881
  136MOL    H1916489   4.390   3.560   1.624 -1.4214  3.5432 -0.7608
  136MOL    C2016490   4.472   3.662   1.788 -0.1536  0.3043  0.1873
  136MOL    C2116491   4.417   3.584   1.905 -0.5101  0.2639 -0.0023
  136MOL    F2216492   4.484   3.473   1.934 -0.3388  0.6467  0.2836
  136MOL    H2316493   4.564   3.714   1.817  0.4644 -0.8898  0.3824
  136MOL    H2416494   4.404   3.747   1.779  0.8470  0.9555 -1.3704
  136MOL    H2516495   4.316   3.545   1.889  0.3963 -2.9491  1.6082
  136MOL    C2616496   4.405   3.670   2.039 -0.4204  0.2967  0.2276
  136MOL    C2716497   4.337   3.598   2.162 -0.0822  0.5189  0.3986
  136MOL    F2816498   4.367   3.667   2.271 -0.1085  0.6310  0.2261
  136MOL    H2916499   4.505   3.703   2.067 -0.2752  0.7808 -0.8117
  136MOL    H3016500   4.343   3.757   2.016 -1.5465 -0.0547  1.8581
  136MOL    H3116501   4.374   3.499   2.189  0.7173  0.9013  0.7199
  136MOL    C3216502   4.180   3.569   2.147  0.4064 -0.5156  0.2663
  136MOL    C3316503   4.127   3.458   2.243  0.3814 -1.0998 -0.1316
  136MOL    F3416504   4.177   3.342   2.211  0.0834  0.0518 -0.5786
  136MOL    H3516505   4.112   3.653   2.162  1.9372  0.5391  1.4091
  136MOL    H3616506   4.158   3.530   2.047  2.2285 -0.6941 -0.0836
  136MOL    H3716507   4.022   3.439   2.221  0.1671  1.0191 -1.1047
  136MOL    C3816508   4.144   3.483   2.393 -0.1628 -0.5246  0.9611
  136MOL    C3916509   4.071   3.392   2.477 -0.2417 -0.1101  0.1383
  136MOL    F4016510   4.118   3.270   2.461 -0.0500 -0.0472 -0.4002
  136MOL    H4116511   4.249   3.481   2.423 -0.3465  2.3321  1.9311
  136MOL    H4216512   4.114   3.585   2.412 -1.8808 -0.2215 -2.9934
  136MOL    H4316513   3.972   3.391   2.430 -0.6933  2.5061  0.9258
  136MOL    C4416514   4.071   3.442   2.624  0.3284  0.4103  0.2144
  136MOL    C4516515   4.015   3.336   2.710  0.6383 -0.1686 -0.3046
  136MOL    F4616516   4.032   3.376   2.833  0.0811  0.6883 -0.3334
  136MOL    H4716517   4.170   3.464   2.666  0.0681 -1.8645  2.1136
  136MOL    H4816518   4.015   3.535   2.636 -1.8054 -0.5344 -2.0888
  136MOL    H4916519   4.079   3.248   2.700  0.1774 -0.3510 -1.6883
  136MOL    C5016520   3.865   3.310   2.690  0.7641 -0.2043 -0.4583
  136MOL    C5116521   3.814   3.215   2.800  0.1565  0.7556 -0.0810
  136MOL    F5216522   3.689   3.187   2.777 -0.1679  0.2626  0.0033
  136MOL    H5316523   3.814   3.406   2.700  0.2405 -0.7228  2.1805
  136MOL    H5416524   3.837   3.268   2.594  0.0193  0.7495 -0.6702
  136MOL    H5516525   3.812   3.273   2.892 -2.8853  0.8687 -0.1711
  136MOL    C5616526   3.902   3.085   2.831  0.1056 -0.3059  0.0126
  136MOL    C5716527   3.903   2.984   2.714 -0.8323  0.5610 -0.0698
  136MOL    F5816528   3.971   3.034   2.611 -0.0159  0.1815 -0.5703
  136MOL    H5916529   4.007   3.106   2.848 -0.7687  3.1469  1.5267
  136MOL    H6016530   3.867   3.030   2.918 -0.2905 -0.9338 -0.5328
  136MOL    H6116531   3.802   2.965   2.678 -0.4584  0.5167 -1.1090
  136MOL    C6216532   3.970   2.849   2.747  0.0817  0.0606 -0.2356
  136MOL    C6316533   3.987   2.754   2.626 -0.2859  0.1141 -0.6241
  136MOL    F6416534   4.040   2.644   2.675  0.4997 -0.0667  0.4983
  136MOL    H6516535   4.068   2.873   2.787  1.7261 -2.2584 -2.6844
  136MOL    H6616536   3.908   2.788   2.813  1.8558 -1.1809  0.2919
  136MOL    H6716537   4.055   2.799   2.554  0.4657  1.7934  1.1221
  136MOL    C6816538   3.855   2.715   2.551  0.3971 -0.3575 -0.2646
  136MOL    C6916539   3.864   2.605   2.447 -0.3673  0.2853  0.2086
  136MOL    F7016540   3.742   2.567   2.418 -0.0034  0.2546 -0.6462
  136MOL    H7116541   3.789   2.668   2.625 -1.2871  3.2146  0.6064
  136MOL    H7216542   3.809   2.801   2.503  1.3480 -1.3384 -3.0502
  136MOL    H7316543   3.897   2.512   2.494 -1.7124  0.2784  1.1777
  136MOL    C7416544   3.942   2.649   2.323 -0.4596  0.4022  0.5656
  136MOL    C7516545   3.964   2.539   2.213  0.1405 -0.6970  0.5354
  136MOL    F7616546   4.015   2.429   2.273 -0.2639  0.7676  0.2369
  136MOL    H7716547   3.886   2.728   2.272  0.7370  0.6131 -0.4469
  136MOL    H7816548   4.035   2.701   2.346 -1.5599  3.3470 -1.2700
  136MOL    H7916549   4.039   2.571   2.141 -0.1652 -1.5118 -0.1647
  136MOL    C8016550   3.836   2.505   2.130 -0.0458  0.3873 -0.0148
  136MOL    C8116551   3.791   2.598   2.018  0.0963  0.3984 -0.0997
  136MOL    F8216552   3.894   2.609   1.933 -0.5224 -0.0583 -0.0005
  136MOL    H8316553   3.846   2.407   2.083  0.3849  0.4621 -0.0904
  136MOL    H8416554   3.756   2.477   2.198  0.5874  0.3871  0.7339
  136MOL    H8516555   3.778   2.698   2.059  2.1447  1.2658 -1.4634
  136MOL    C8616556   3.662   2.553   1.948  0.2212  0.0349 -0.7521
  136MOL    C8716557   3.605   2.643   1.839 -0.6214 -0.6724  0.8201
  136MOL    F8816558   3.577   2.762   1.898 -0.6029  0.1507  0.3289
  136MOL    H8916559   3.677   2.453   1.907  1.2437  0.1430 -0.6726
  136MOL    H9016560   3.582   2.547   2.021 -0.8779 -0.9350 -2.0159
  136MOL    H9116561   3.509   2.609   1.801 -1.4210  2.9773 -0.6436
  136MOL    C9216562   3.695   2.666   1.713  0.4669  0.9146  0.9982
  136MOL    C9316563   3.628   2.757   1.608 -0.0270 -0.0745  0.2731
  136MOL    F9416564   3.700   2.867   1.621 -0.5538  0.0760 -0.4722
  136MOL    H9516565   3.788   2.715   1.744 -0.0270  1.3143  1.8622
  136MOL    H9616566   3.718   2.565   1.679 -1.9793  0.1722  1.4572
  136MOL    H9716567   3.524   2.767   1.639  0.2670  1.8973  0.6411
  136MOL    C9816568   3.636   2.699   1.461  0.5651  0.2403  0.0094
  136MOL    C9916569   3.536   2.579   1.437  0.1866 -0.1485  1.0718
  136MOL   F10016570   3.413   2.623   1.444  0.0126 -0.0046  0.4195
  136MOL   H10116571   3.619   2.776   1.386  1.7439  1.1005  0.6060
  136MOL   H10216572   3.734   2.654   1.451  0.4333 -0.5153  1.8518
  136MOL   H10316573   3.551   2.498   1.509 -0.0612 -0.5861  0.6329
  136MOL   C10416574   3.558   2.521   1.292  0.5249 -0.2729 -0.5734
  136MOL   C10516575   3.517   2.373   1.268  0.6738 -0.0616 -0.4693
  136MOL   F10616576   3.527   2.355   1.138  0.0990  0.0555 -0.1951
  136MOL   H10716577   3.507   2.589   1.224  0.0470 -0.1160 -0.0651
  136MOL   H10816578   3.663   2.530   1.264  0.8017 -0.8801  0.2441
  136MOL   H10916579   3.413   2.363   1.299  1.4288 -1.4845  1.8064
  136MOL   C11016580   3.592   2.266   1.347  0.4371 -0.6041 -0.4936
  136MOL   C11116581   3.542   2.124   1.338 -0.6245  0.0869 -0.4251
  136MOL   F11216582   3.547   2.090   1.209  0.2456  0.1651  0.2018
  136MOL   H11316583   3.695   2.269   1.311  0.6512  2.1622  0.2678
  136MOL   H11416584   3.602   2.297   1.451 -1.8575 -0.0525 -0.4006
  136MOL   H11516585   3.438   2.118   1.370 -0.2869 -3.0740  0.2791
  136MOL   C11616586   3.610   2.010   1.419 -0.5532 -0.0970 -0.4125
  136MOL   C11716587   3.514   1.898   1.449  0.4513  0.0318  0.2756
  136MOL   F11816588   3.425   1.944   1.534  0.3167 -0.0307 -0.4505
  136MOL   H11916589   3.692   1.969   1.359  0.4990  0.8452  0.3520
  136MOL   H12016590   3.664   2.031   1.511 -0.4869  0.7453 -0.6377
  136MOL   H12116591   3.569   1.818   1.499  0.3978 -0.5101 -0.5324
  136MOL   H12216592   3.464   1.868   1.357 -0.2360  0.5678  0.4683
  137MOL     C116593   3.278   4.663   3.009  0.0336  0.6803  0.2405
  137MOL     C216594   3.279   4.640   2.859 -0.3637 -0.3463  0.0072
  137MOL     F316595   3.301   4.761   2.813  0.3785 -0.1589 -0.4750
  137MOL     H416596   3.380   4.687   3.037  0.4774 -0.1108 -0.6500
  137MOL     H516597   3.247   4.570   3.058 -1.0903  0.4085 -0.9445
  137MOL     H616598   3.178   4.614   2.827 -0.3252 -0.8000  0.2446
  137MOL     H716599   3.208   4.738   3.045  0.6213  1.0330  0.6491
  137MOL     C816600   3.393   4.543   2.819  0.0477  0.3255  0.0794
  137MOL     C916601   3.388   4.487   2.678 -0.2005 -0.4653 -0.3569
  137MOL    F1016602   3.483   4.395   2.673  0.0831 -0.0782 -0.2574
  137MOL    H1116603   3.488   4.595   2.826  0.5491 -0.7188  1.2910
  137MOL    H1216604   3.390   4.463   2.893  0.0857 -0.2261 -0.5119
  137MOL    H1316605   3.423   4.569   2.616  0.5891  1.7733  2.8990
  137MOL    C1416606   3.259   4.422   2.640 -0.7300  0.0085 -0.4498
  137MOL    C1516607   3.256   4.368   2.498 -0.3554 -0.2022 -0.2206
  137MOL    F1616608   3.176   4.259   2.501 -0.1046  0.1457  0.4028
  137MOL    H1716609   3.227   4.341   2.705  1.0014 -0.3325  0.0197
  137MOL    H1816610   3.176   4.492   2.650  0.9244  1.7847  1.3481
  137MOL    H1916611   3.350   4.313   2.495 -0.3723 -0.3581  1.5212
  137MOL    C2016612   3.232   4.465   2.384  0.9481 -0.6874  0.5791
  137MOL    C2116613   3.101   4.554   2.381 -0.0983  0.4262  0.5043
  137MOL    F2216614   3.135   4.651   2.459 -0.1509  0.1036 -0.0084
  137MOL    H2316615   3.318   4.528   2.361  0.1994 -0.0225 -0.4042
  137MOL    H2416616   3.232   4.401   2.297  2.6633 -1.6687  1.2820
  137MOL    H2516617   3.015   4.503   2.425 -0.5895 -0.7831 -1.8110
  137MOL    C2616618   3.074   4.613   2.241  0.5631 -0.3101 -0.9544
  137MOL    C2716619   2.978   4.734   2.241  0.0772 -0.3334 -0.5962
  137MOL    F2816620   3.040   4.831   2.309 -0.1482  0.1317  0.2010
  137MOL    H2916621   3.169   4.620   2.189  1.4840 -1.4216  0.5460
  137MOL    H3016622   3.020   4.538   2.183 -2.5735  0.9019  0.2716
  137MOL    H3116623   2.883   4.719   2.292 -0.8683  2.0525 -1.5712
  137MOL    C3216624   2.941   4.784   2.099  0.3029  0.3619  0.6956
  137MOL    C3316625   2.858   4.909   2.100 -0.0535 -0.2049  0.2970
  137MOL    F3416626   2.863   4.947   1.973 -0.1441  0.1566  0.2256
  137MOL    H3516627   3.031   4.800   2.039 -0.2735 -0.7108 -0.4789
  137MOL    H3616628   2.887   4.700   2.055 -0.3656  0.6563  0.9514
  137MOL    H3716629   2.908   4.986   2.158  1.5409  1.5886 -3.3046
  137MOL    C3816630   2.708   4.873   2.121  0.6486  0.3362 -0.4628
  137MOL    C3916631   2.611   4.994   2.097 -0.4116 -0.4080 -0.9496
  137MOL    F4016632   2.485   4.958   2.119 -0.3815  0.1945 -0.5083
  137MOL    H4116633   2.676   4.795   2.052  1.3390 -1.2547  0.9913
  137MOL    H4216634   2.680   4.830   2.217 -0.6608 -0.2049 -1.0761
  137MOL    H4316635   2.617   5.010   1.989  0.4633 -3.4246 -1.4129
  137MOL    C4416636   2.638   5.124   2.174  0.6561  0.0443  0.0972
  137MOL    C4516637   2.642   5.115   2.329 -0.3000  0.7496  0.0440
  137MOL    F4616638   2.752   5.049   2.354 -0.1761  0.0983 -0.3715
  137MOL    H4716639   2.735   5.166   2.146  0.5807 -0.9347 -1.7721
  137MOL    H4816640   2.557   5.190   2.142  0.0224 -1.4051 -1.3754
  137MOL    H4916641   2.571   5.038   2.357  1.8869  0.4336  5.2981
  137MOL    C5016642   2.627   5.244   2.398 -0.3905  0.7306  0.2746
  137MOL    C5116643   2.755   5.330   2.405  0.0140  0.2721 -0.0194
  137MOL    F5216644   2.801   5.352   2.284 -0.2282 -0.2563 -0.1943
  137MOL    H5316645   2.537   5.300   2.371 -1.6105 -1.4763 -0.3090
  137MOL    H5416646   2.603   5.213   2.500 -3.6603  0.2320 -0.5974
  137MOL    H5516647   2.839   5.268   2.440 -0.1252 -0.1426 -0.4180
  137MOL    C5616648   2.748   5.454   2.491 -0.3678 -0.8865  0.0669
  137MOL    C5716649   2.728   5.430   2.639  0.0528  0.5304  0.0362
  137MOL    F5816650   2.808   5.333   2.679 -0.3218 -0.3691 -0.0687
  137MOL    H5916651   2.846   5.502   2.484 -0.1403 -1.4758 -0.7978
  137MOL    H6016652   2.678   5.525   2.445  0.4098  0.0083  0.2411
  137MOL    H6116653   2.633   5.378   2.653  1.1699 -1.9548 -1.3332
  137MOL    C6216654   2.733   5.546   2.729 -0.0396 -0.3565 -0.5492
  137MOL    C6316655   2.646   5.675   2.691 -0.7166 -0.4419 -0.2485
  137MOL    F6416656   2.524   5.626   2.675  0.1824 -0.6241 -0.1469
  137MOL    H6516657   2.719   5.524   2.835 -0.3816  1.1346 -0.2736
  137MOL    H6616658   2.838   5.577   2.730 -0.1142 -0.1183  0.9862
  137MOL    H6716659   2.677   5.714   2.594  2.1352  0.3755  0.9440
  137MOL    C6816660   2.642   5.778   2.805 -0.3088 -0.6045 -0.1165
  137MOL    C6916661   2.762   5.874   2.811 -0.7072  0.3997 -0.1344
  137MOL    F7016662   2.747   5.955   2.711  0.6092  0.3541  0.9915
  137MOL    H7116663   2.549   5.834   2.804  0.6172  0.9542 -1.1876
  137MOL    H7216664   2.639   5.728   2.902 -0.0036  0.0544  0.2351
  137MOL    H7316665   2.856   5.822   2.796  0.0221  0.9588  2.3048
  137MOL    C7416666   2.774   5.962   2.936 -0.4281  0.3761 -0.3499
  137MOL    C7516667   2.849   6.097   2.915 -0.3488  0.0051  0.2027
  137MOL    F7616668   2.846   6.167   3.033  0.6158 -0.4134 -0.5306
  137MOL    H7716669   2.673   5.974   2.975 -0.5960 -0.2064 -0.5918
  137MOL    H7816670   2.825   5.907   3.014  0.4818  0.4329 -0.8974
  137MOL    H7916671   2.791   6.147   2.838 -0.5821 -1.8143 -0.8289
  137MOL    C8016672   3.000   6.082   2.882  0.3256  0.1100 -0.0482
  137MOL    C8116673   3.078   6.207   2.836  0.5808 -0.3687  0.1908
  137MOL    F8216674   3.036   6.223   2.712 -0.4473 -0.4699 -0.1320
  137MOL    H8316675   3.050   6.043   2.971  1.2779 -0.1309 -0.6916
  137MOL    H8416676   3.009   6.005   2.806 -2.4478 -0.6313  0.2912
  137MOL    H8516677   3.182   6.179   2.820  1.0287  0.6923  1.1733
  137MOL    C8616678   3.068   6.336   2.924 -0.2939  0.6538  0.0157
  137MOL    C8716679   3.180   6.437   2.900  0.0925 -0.6386 -0.5170
  137MOL    F8816680   3.286   6.384   2.950  0.3246 -0.0723  0.3993
  137MOL    H8916681   2.973   6.386   2.904  0.0747  1.4442  0.2224
  137MOL    H9016682   3.061   6.313   3.030 -2.6578 -3.6065 -0.9602
  137MOL    H9116683   3.166   6.520   2.970  1.4218 -0.9601  0.1394
  137MOL    C9216684   3.200   6.476   2.749 -1.0574 -0.6071  0.2000
  137MOL    C9316685   3.083   6.557   2.696 -0.0564  0.2364 -0.1809
  137MOL    F9416686   3.069   6.673   2.772 -0.4399  0.0193  0.0011
  137MOL    H9516687   3.293   6.531   2.736  0.6568 -3.9452 -2.2428
  137MOL    H9616688   3.217   6.386   2.690 -2.0180 -0.7497  0.1265
  137MOL    H9716689   2.996   6.495   2.717 -1.6891  1.7082 -2.3473
  137MOL    C9816690   3.071   6.606   2.549 -0.0850  0.2546 -0.7753
  137MOL    C9916691   3.043   6.493   2.448  0.1472 -0.5471 -0.0887
  137MOL   F10016692   2.924   6.447   2.483 -0.6397  0.4823 -0.4003
  137MOL   H10116693   2.993   6.681   2.542  0.0853  0.7569  2.1003
  137MOL   H10216694   3.170   6.645   2.522  0.5015 -0.9109 -0.3383
  137MOL   H10316695   3.110   6.409   2.464  0.3505  0.2993  4.1777
  137MOL   C10416696   3.041   6.527   2.299 -0.4751 -0.0468  0.3903
  137MOL   C10516697   3.175   6.587   2.257 -0.4298  0.3919 -0.5932
  137MOL   F10616698   3.279   6.502   2.281  0.4694  0.0661 -0.6555
  137MOL   H10716699   3.012   6.434   2.251  0.8880  0.2029 -0.9716
  137MOL   H10816700   2.953   6.584   2.271 -0.8233 -1.5880 -1.7180
  137MOL   H10916701   3.214   6.673   2.312 -0.8240 -0.6441  1.3526
  137MOL   C11016702   3.178   6.615   2.107  0.4495 -0.3576 -0.6731
  137MOL   C11116703   3.315   6.652   2.047  0.5874  0.3000 -0.1329
  137MOL   F11216704   3.323   6.623   1.918  0.1238 -0.5372  0.6700
  137MOL   H11316705   3.145   6.522   2.061 -1.1669  0.6076 -1.4950
  137MOL   H11416706   3.106   6.691   2.075  1.6871  1.0504 -0.1650
  137MOL   H11516707   3.384   6.585   2.098  1.3061  0.9777 -0.1987
  137MOL   C11616708   3.344   6.803   2.064 -0.1723  0.0449 -0.2738
  137MOL   C11716709   3.495   6.831   2.060 -0.0547 -0.9289 -0.3572
  137MOL   F11816710   3.506   6.965   2.052 -0.2536 -0.0846  0.0511
  137MOL   H11916711   3.276   6.863   2.003 -1.9579  1.1898  2.7290
  137MOL   H12016712   3.316   6.825   2.167 -2.8392  0.4268 -1.0270
  137MOL   H12116713   3.546   6.803   1.968  0.0227 -2.4384  0.1308
  137MOL   H12216714   3.541   6.803   2.155  0.8488 -1.5782 -0.9715
  138MOL     C116715   5.291   3.241   2.803 -0.1966 -0.3048 -0.6203
  138MOL     C216716   5.408   3.143   2.768 -0.5360  0.0086  0.2888
  138MOL     F316717   5.453   3.125   2.895 -0.2110  0.3639  0.0228
  138MOL     H416718   5.277   3.259   2.910 -1.4200 -0.3629 -0.7671
  138MOL     H516719   5.195   3.203   2.768 -0.3332  0.6247 -1.2572
  138MOL     H616720   5.477   3.197   2.704 -2.5324  3.6304  1.0723
  138MOL     H716721   5.310   3.337   2.757 -0.5832 -0.1793 -0.5162
  138MOL     C816722   5.357   3.000   2.729  0.2627 -0.4209  0.4580
  138MOL     C916723   5.333   2.986   2.579  0.4571  0.1840 -0.0923
  138MOL    F1016724   5.460   3.002   2.528 -0.1544  0.0877 -0.4690
  138MOL    H1116725   5.425   2.924   2.766 -0.0545 -0.5157  0.8522
  138MOL    H1216726   5.260   2.984   2.776 -0.3954  1.2468 -0.2565
  138MOL    H1316727   5.264   3.066   2.552 -1.1471 -1.1546 -0.0458
  138MOL    C1416728   5.278   2.856   2.527  0.2229 -0.4181  0.5277
  138MOL    C1516729   5.254   2.857   2.371 -0.1396  0.0782 -0.0830
  138MOL    F1616730   5.183   2.961   2.318  0.2418  0.3880  0.3802
  138MOL    H1716731   5.328   2.766   2.562  1.8003  0.6014  0.9799
  138MOL    H1816732   5.180   2.847   2.573  0.1067  0.2482  0.4143
  138MOL    H1916733   5.180   2.778   2.355 -1.0686  1.0677 -0.7421
  138MOL    C2016734   5.384   2.839   2.290  0.5025  1.3882 -0.4692
  138MOL    C2116735   5.378   2.817   2.135 -0.2638 -0.1806 -0.5282
  138MOL    F2216736   5.497   2.839   2.080  0.1228 -0.2101  0.0729
  138MOL    H2316737   5.456   2.921   2.296  2.6776 -0.5002 -0.0837
  138MOL    H2416738   5.437   2.755   2.334  2.1063  3.3519  1.5355
  138MOL    H2516739   5.306   2.884   2.088  0.8747  1.2016 -0.3154
  138MOL    C2616740   5.333   2.675   2.086 -0.4144  0.8830  0.3707
  138MOL    C2716741   5.311   2.657   1.927  0.3125 -0.2655 -0.0022
  138MOL    F2816742   5.251   2.768   1.885  0.1337 -0.2523 -0.7218
  138MOL    H2916743   5.414   2.611   2.120 -1.0766 -0.8136 -1.1343
  138MOL    H3016744   5.244   2.641   2.139  0.7618 -0.9191  1.2345
  138MOL    H3116745   5.232   2.583   1.907  1.1067 -0.4617 -2.6361
  138MOL    C3216746   5.438   2.644   1.844 -0.1482  0.1557 -0.2846
  138MOL    C3316747   5.416   2.569   1.714 -0.3072 -0.0487  0.4046
  138MOL    F3416748   5.516   2.597   1.633  0.7215  0.1927 -0.0560
  138MOL    H3516749   5.489   2.740   1.833  0.9826 -0.8572 -4.6581
  138MOL    H3616750   5.511   2.579   1.893 -2.2696 -1.1860  1.1711
  138MOL    H3716751   5.333   2.623   1.668 -1.5765 -1.8403  0.4927
  138MOL    C3816752   5.394   2.420   1.722 -0.3503 -0.1014 -0.4071
  138MOL    C3916753   5.349   2.351   1.591 -0.2115 -0.1658 -0.0088
  138MOL    F4016754   5.249   2.423   1.554  0.2118 -0.0491  0.6580
  138MOL    H4116755   5.482   2.370   1.762 -1.9922 -2.3749  0.5562
  138MOL    H4216756   5.321   2.395   1.800 -0.7060  1.9726 -0.0667
  138MOL    H4316757   5.308   2.253   1.616 -1.0906  0.0372 -0.6408
  138MOL    C4416758   5.453   2.344   1.472 -0.0052  0.5559  0.7997
  138MOL    C4516759   5.412   2.274   1.346 -0.0665  0.9284  0.4465
  138MOL    F4616760   5.520   2.287   1.270 -0.4291  0.0450  0.3396
  138MOL    H4716761   5.486   2.446   1.457  0.6083  0.1229 -0.9022
  138MOL    H4816762   5.528   2.295   1.534 -1.9574 -0.7535  2.2051
  138MOL    H4916763   5.325   2.319   1.296 -0.0600 -0.8946 -1.2578
  138MOL    C5016764   5.374   2.121   1.359  0.3397 -0.3546 -0.5173
  138MOL    C5116765   5.313   2.063   1.227 -0.2817 -0.0793  0.4714
  138MOL    F5216766   5.412   2.040   1.136  0.2051  0.0931  0.1597
  138MOL    H5316767   5.458   2.057   1.386 -1.5772 -1.7645  2.3428
  138MOL    H5416768   5.299   2.124   1.438  0.1778 -0.7069 -0.6573
  138MOL    H5516769   5.243   2.137   1.187  0.2875 -0.4737 -1.2829
  138MOL    C5616770   5.233   1.930   1.243  0.2511 -0.0115 -0.2678
  138MOL    C5716771   5.174   1.889   1.107  0.0025  0.1665 -0.3188
  138MOL    F5816772   5.147   1.763   1.124 -0.0145 -0.2406  0.1633
  138MOL    H5916773   5.294   1.850   1.283 -0.4380  0.4582  1.7837
  138MOL    H6016774   5.154   1.937   1.317  0.0360  1.3813 -0.6119
  138MOL    H6116775   5.255   1.885   1.034  0.0208 -0.3305 -0.2671
  138MOL    C6216776   5.046   1.959   1.050 -0.0078 -0.3072  0.1008
  138MOL    C6316777   4.932   1.973   1.157 -0.0639 -0.1805  0.6103
  138MOL    F6416778   4.969   2.067   1.245  0.0242  0.2478  0.3619
  138MOL    H6516779   5.067   2.058   1.009  1.3682  0.2256  2.0107
  138MOL    H6616780   5.003   1.900   0.969  2.0763 -0.3521 -0.9952
  138MOL    H6716781   4.920   1.879   1.209 -0.2335 -0.9491 -0.7796
  138MOL    C6816782   4.791   2.011   1.095 -0.4777 -0.3519 -0.2851
  138MOL    C6916783   4.679   2.023   1.201 -0.1045  0.0788 -0.3768
  138MOL    F7016784   4.716   2.113   1.289 -0.1447  0.3169 -0.5203
  138MOL    H7116785   4.813   2.108   1.049  0.5925  0.0680  1.0727
  138MOL    H7216786   4.765   1.938   1.019 -0.6698 -0.6713  0.0921
  138MOL    H7316787   4.673   1.921   1.239  0.7553  0.1524 -0.0378
  138MOL    C7416788   4.538   2.063   1.139  0.0764 -0.3908  0.7365
  138MOL    C7516789   4.414   2.057   1.225 -0.0295  0.6136 -0.9052
  138MOL    F7616790   4.302   2.088   1.154 -0.1168 -0.2551  0.4358
  138MOL    H7716791   4.553   2.169   1.117 -2.2214  0.0752  1.2734
  138MOL    H7816792   4.503   2.020   1.045  0.8014 -0.3577  0.4518
  138MOL    H7916793   4.422   2.139   1.296 -1.2287  2.8925 -3.2872
  138MOL    C8016794   4.397   1.929   1.318  0.3440 -0.3795  0.1627
  138MOL    C8116795   4.287   1.956   1.421  0.9359  0.1422  0.0493
  138MOL    F8216796   4.169   1.970   1.359  0.4022  0.6717  0.2946
  138MOL    H8316797   4.387   1.828   1.278 -2.5894 -0.8881  1.9874
  138MOL    H8416798   4.489   1.914   1.373  0.7022  0.6881 -0.1262
  138MOL    H8516799   4.297   2.052   1.470  0.4900 -0.7973  2.0296
  138MOL    C8616800   4.291   1.846   1.539 -0.4337 -0.4411  0.4280
  138MOL    C8716801   4.198   1.859   1.654 -0.4020 -0.0503  0.2882
  138MOL    F8816802   4.201   1.981   1.705 -0.3502  0.0318 -0.4799
  138MOL    H8916803   4.285   1.746   1.497  0.9879 -0.2838 -0.2113
  138MOL    H9016804   4.393   1.854   1.576  0.5276  1.2098 -2.3623
  138MOL    H9116805   4.232   1.801   1.739  0.7307 -0.5897 -0.5235
  138MOL    C9216806   4.042   1.839   1.625 -0.0620  0.2368  0.1340
  138MOL    C9316807   3.995   1.693   1.596  0.4300  0.4751 -0.0430
  138MOL    F9416808   4.051   1.635   1.697 -0.0844  0.3789  0.1594
  138MOL    H9516809   3.997   1.875   1.717  0.4286 -0.5059  0.6707
  138MOL    H9616810   4.002   1.913   1.556  0.7023  0.0995 -0.4652
  138MOL    H9716811   4.040   1.661   1.503 -0.0564  1.3276 -0.5812
  138MOL    C9816812   3.843   1.665   1.590 -1.0759 -0.1745 -0.1803
  138MOL    C9916813   3.814   1.516   1.570  0.4160 -1.0739  0.2242
  138MOL   F10016814   3.866   1.475   1.456  0.0351 -0.4700  0.1699
  138MOL   H10116815   3.803   1.695   1.687  0.1143  0.5863  0.0761
  138MOL   H10216816   3.802   1.718   1.504  0.2981 -1.0580 -1.4086
  138MOL   H10316817   3.707   1.505   1.557  0.5277 -0.7301 -0.9964
  138MOL   C10416818   3.870   1.412   1.679  0.1265 -0.1871 -0.1882
  138MOL   C10516819   3.835   1.454   1.817 -0.4857 -0.2190 -0.4677
  138MOL   F10616820   3.704   1.463   1.819 -0.4007  0.6908  0.4820
  138MOL   H10716821   3.827   1.314   1.660  0.9774 -0.9090  1.4980
  138MOL   H10816822   3.975   1.395   1.657  0.1896  0.3395 -0.3053
  138MOL   H10916823   3.871   1.554   1.840  1.6569 -0.5988 -1.9548
  138MOL   C11016824   3.883   1.359   1.921  0.2929  0.0845  0.5120
  138MOL   C11116825   3.836   1.387   2.058  0.4642 -0.5902  0.0459
  138MOL   F11216826   3.839   1.276   2.138  0.2242 -0.0149  0.6672
  138MOL   H11316827   3.840   1.262   1.897  0.8863 -0.0135 -0.1766
  138MOL   H11416828   3.990   1.344   1.911  0.4695  2.5928 -1.8540
  138MOL   H11516829   3.730   1.414   2.058  0.4442 -0.6118  1.9593
  138MOL   C11616830   3.901   1.508   2.125  0.3788 -0.5751 -0.0536
  138MOL   C11716831   4.053   1.485   2.171 -0.0460  0.6088  0.2379
  138MOL   F11816832   4.119   1.599   2.208  0.4639 -0.0703  0.7947
  138MOL   H11916833   3.886   1.590   2.056 -0.8762  0.7532  1.7335
  138MOL   H12016834   3.846   1.547   2.211 -0.9951 -0.5590 -0.9242
  138MOL   H12116835   4.100   1.430   2.089 -0.0899 -0.4609  0.9221
  138MOL   H12216836   4.065   1.423   2.259  1.3128 -0.5891 -0.7637
  139MOL     C116837   6.746   0.041   4.516  0.1419 -0.5389  0.7522
  139MOL     C216838   6.634   7.932   4.542 -0.2267  0.3618  0.4387
  139MOL     F316839   6.556   7.975   4.639  0.3265 -0.2495 -0.0112
  139MOL     H416840   6.708   0.131   4.468  0.5900 -0.2466  0.9391
  139MOL     H516841   6.818   0.001   4.444 -0.8783  1.1601 -1.2752
  139MOL     H616842   6.686   7.840   4.568 -0.2269  0.1494 -0.3082
  139MOL     H716843   6.804   0.064   4.605 -1.5408 -1.2713  2.0467
  139MOL     C816844   6.549   7.896   4.421  0.5950 -0.1071 -0.8363
  139MOL     C916845   6.500   7.745   4.430  0.2051 -0.0844  0.6323
  139MOL    F1016846   6.426   7.730   4.534  0.2408  0.1532 -0.4317
  139MOL    H1116847   6.467   7.962   4.395  0.6790 -0.3061 -1.6064
  139MOL    H1216848   6.620   7.910   4.339  1.9778 -0.2244  0.3306
  139MOL    H1316849   6.585   7.677   4.428 -0.3585 -0.7646 -0.6646
  139MOL    C1416850   6.427   7.706   4.303  0.3406  0.2271  0.0310
  139MOL    C1516851   6.376   7.560   4.307  0.5547 -0.5036 -0.5424
  139MOL    F1616852   6.475   7.476   4.351 -0.4093  0.1621 -0.3357
  139MOL    H1716853   6.333   7.761   4.290 -0.4120 -0.7139  1.3964
  139MOL    H1816854   6.485   7.719   4.212 -1.0177 -1.2930 -1.0927
  139MOL    H1916855   6.342   7.534   4.207 -0.5066 -0.3050 -0.2432
  139MOL    C2016856   6.257   7.536   4.398 -0.0677  0.5264 -0.2684
  139MOL    C2116857   6.200   7.398   4.380 -0.1964 -0.2384 -0.2602
  139MOL    F2216858   6.291   7.323   4.429  0.0059  0.8530  0.0863
  139MOL    H2316859   6.285   7.536   4.503  2.5397 -0.5293 -0.9208
  139MOL    H2416860   6.188   7.618   4.380 -1.4914 -0.3025  1.2811
  139MOL    H2516861   6.177   7.370   4.278 -1.9566 -0.2624  0.1275
  139MOL    C2616862   6.076   7.372   4.459 -0.2422  0.1228 -0.5007
  139MOL    C2716863   5.960   7.455   4.413  0.6783  0.2906  0.1238
  139MOL    F2816864   5.888   7.392   4.326 -0.1638  0.2225 -0.4841
  139MOL    H2916865   6.062   7.264   4.458  3.4343 -0.5080  3.1955
  139MOL    H3016866   6.090   7.401   4.563 -0.8779  1.2955 -0.7395
  139MOL    H3116867   5.985   7.535   4.344 -1.5890  1.7075  0.9179
  139MOL    C3216868   5.863   7.500   4.527  0.3443  0.0363  0.2177
  139MOL    C3316869   5.924   7.602   4.626  0.2645 -0.2070  0.2314
  139MOL    F3416870   5.966   7.704   4.548 -0.1036  0.1121 -0.1815
  139MOL    H3516871   5.780   7.553   4.480  0.5888  0.2118 -0.0130
  139MOL    H3616872   5.820   7.413   4.578  3.7575 -1.3378  0.8691
  139MOL    H3716873   6.002   7.556   4.686 -0.9215 -0.5909  1.5098
  139MOL    C3816874   5.810   7.656   4.714 -0.2044 -0.2691  0.2146
  139MOL    C3916875   5.756   7.555   4.818  0.1359  0.4401 -0.4754
  139MOL    F4016876   5.860   7.522   4.891  0.5037  0.0031 -0.7570
  139MOL    H4116877   5.849   7.746   4.762 -0.3114  1.0384 -2.0547
  139MOL    H4216878   5.731   7.703   4.655 -0.0747  1.2379  1.2112
  139MOL    H4316879   5.724   7.462   4.773 -0.5101  1.4144 -2.0993
  139MOL    C4416880   5.655   7.611   4.923  0.4034 -0.7307  0.6358
  139MOL    C4516881   5.507   7.627   4.878  0.2820 -0.2205 -0.2575
  139MOL    F4616882   5.515   7.693   4.766 -0.4820  0.5645  0.6253
  139MOL    H4716883   5.655   7.543   5.008  0.2045 -0.1756  1.0854
  139MOL    H4816884   5.698   7.703   4.963  0.4835  0.4189 -1.9536
  139MOL    H4916885   5.462   7.699   4.947 -1.2457 -1.6155  0.2606
  139MOL    C5016886   5.426   7.501   4.876  0.4313 -0.3416  0.5362
  139MOL    C5116887   5.278   7.524   4.889  0.1090  0.9199 -1.0099
  139MOL    F5216888   5.236   7.605   4.794 -0.4026 -0.2852  0.0521
  139MOL    H5316889   5.455   7.439   4.791 -2.9268 -0.8043 -0.3512
  139MOL    H5416890   5.455   7.434   4.957 -0.0541  0.4355  1.3661
  139MOL    H5516891   5.257   7.579   4.981  0.6843  0.9919 -0.9180
  139MOL    C5616892   5.194   7.391   4.881  0.1272 -0.0652  0.2941
  139MOL    C5716893   5.195   7.300   5.011 -0.5245  0.4104  0.2711
  139MOL    F5816894   5.170   7.389   5.106  0.5586 -0.2919 -0.0504
  139MOL    H5916895   5.089   7.417   4.872  0.4275  1.0024 -0.1993
  139MOL    H6016896   5.218   7.336   4.790  0.6756 -0.0851  0.4476
  139MOL    H6116897   5.294   7.268   5.044 -1.8387 -4.1571  0.1272
  139MOL    C6216898   5.088   7.185   5.005  0.1321  0.0015 -0.2713
  139MOL    C6316899   5.090   7.087   4.891  0.1267 -0.1327  0.4416
  139MOL    F6416900   5.184   7.005   4.920 -0.0525 -0.1624 -0.5399
  139MOL    H6516901   5.097   7.129   5.098  0.4113 -0.8758 -0.8242
  139MOL    H6616902   4.989   7.229   5.011 -0.1901 -0.9575  1.9791
  139MOL    H6716903   5.112   7.137   4.797  1.9450  1.3308  1.5915
  139MOL    C6816904   4.964   6.998   4.891  0.1399 -0.4397 -0.2830
  139MOL    C6916905   4.830   7.067   4.858 -0.0756 -0.0592 -0.0540
  139MOL    F7016906   4.830   7.096   4.728 -0.3872  0.4075  0.3721
  139MOL    H7116907   4.967   6.914   4.821  0.3993  1.7287 -2.9661
  139MOL    H7216908   4.958   6.950   4.989 -2.1070 -3.0528 -1.6076
  139MOL    H7316909   4.815   7.160   4.913  2.2186  0.0525  0.4181
  139MOL    C7416910   4.713   6.959   4.895 -0.2401 -0.0556  0.0724
  139MOL    C7516911   4.568   7.013   4.889 -0.0094  0.1720 -0.2404
  139MOL    F7616912   4.565   7.110   4.982 -0.0754  0.4168 -0.1064
  139MOL    H7716913   4.714   6.863   4.843 -0.0084  0.1633 -0.3258
  139MOL    H7816914   4.736   6.924   4.996 -1.9155  0.8388  0.7736
  139MOL    H7916915   4.488   6.951   4.930  0.1782  0.5939  0.7940
  139MOL    C8016916   4.533   7.081   4.757  0.4764  0.1070  0.1431
  139MOL    C8116917   4.493   6.998   4.631  0.4584  0.1349 -0.8639
  139MOL    F8216918   4.381   6.938   4.667  0.1238 -0.4295 -0.4191
  139MOL    H8316919   4.442   7.133   4.786 -0.5045 -1.6669  0.3060
  139MOL    H8416920   4.598   7.165   4.733  0.7291  0.6082  2.4169
  139MOL    H8516921   4.558   6.910   4.634 -1.0208 -0.9371  1.0259
  139MOL    C8616922   4.470   7.075   4.500  0.2714 -0.8058 -0.5148
  139MOL    C8716923   4.446   7.001   4.369 -0.5209  0.5440  0.2454
  139MOL    F8816924   4.522   6.893   4.361 -0.3910 -0.0596  0.7506
  139MOL    H8916925   4.389   7.145   4.521  0.9595  0.0373 -0.6432
  139MOL    H9016926   4.565   7.124   4.482  1.0562 -0.2988  4.4127
  139MOL    H9116927   4.475   7.067   4.288  0.7360  2.1587  1.9705
  139MOL    C9216928   4.296   6.949   4.359  0.0319  0.1994 -0.0331
  139MOL    C9316929   4.253   6.871   4.231  0.1932 -0.0723  0.0403
  139MOL    F9416930   4.128   6.830   4.257  0.5763 -0.4912 -0.2374
  139MOL    H9516931   4.270   6.874   4.433 -0.2290 -0.0966 -0.4265
  139MOL    H9616932   4.229   7.034   4.373 -0.3576  0.0568 -1.0133
  139MOL    H9716933   4.322   6.787   4.237  0.6906  0.3473  0.2905
  139MOL    C9816934   4.244   6.953   4.107 -0.0902 -0.5693 -0.4718
  139MOL    C9916935   4.160   6.886   3.996 -0.1001  0.1015 -0.1924
  139MOL   F10016936   4.162   6.964   3.887 -0.2615  0.2488  0.1646
  139MOL   H10116937   4.198   7.050   4.125 -1.3676 -1.5394  1.7729
  139MOL   H10216938   4.342   6.979   4.068 -1.7866  3.2350 -2.5332
  139MOL   H10316939   4.055   6.882   4.024 -0.3000  3.7935 -0.1298
  139MOL   C10416940   4.206   6.740   3.952 -0.3123 -0.0848 -0.0321
  139MOL   C10516941   4.114   6.670   3.855  0.8812 -0.7700  0.1823
  139MOL   F10616942   4.119   6.727   3.731 -0.5678  0.2273 -0.1118
  139MOL   H10716943   4.313   6.745   3.929 -0.6812 -0.4583 -1.9152
  139MOL   H10816944   4.212   6.683   4.045  0.8589  0.6106  0.3332
  139MOL   H10916945   4.011   6.685   3.887  0.8247 -0.7031 -0.0287
  139MOL   C11016946   4.149   6.525   3.832 -0.4735  0.1021  0.1253
  139MOL   C11116947   4.107   6.423   3.945 -0.0771  0.8780  0.1832
  139MOL   F11216948   3.977   6.436   3.980 -0.1405 -0.2932  0.1379
  139MOL   H11316949   4.094   6.486   3.746  0.5523 -3.6075  1.0473
  139MOL   H11416950   4.255   6.515   3.807 -1.0309 -0.5845 -2.0443
  139MOL   H11516951   4.156   6.440   4.041  1.1100 -2.4089  0.2174
  139MOL   C11616952   4.123   6.272   3.900  0.1713 -0.1453 -0.0023
  139MOL   C11716953   4.118   6.178   4.015 -0.2733  0.3514 -0.0699
  139MOL   F11816954   4.127   6.051   3.979  0.1235  0.0510  0.3320
  139MOL   H11916955   4.051   6.249   3.821 -0.5617  0.1276  0.5830
  139MOL   H12016956   4.227   6.255   3.874  0.5121 -0.8416  1.7941
  139MOL   H12116957   4.018   6.180   4.059  0.1148 -0.5997  0.8909
  139MOL   H12216958   4.185   6.190   4.100  1.9620  0.0376 -1.7526
  140MOL     C116959   0.479   0.694   7.964 -0.1755  0.0654 -0.2734
  140MOL     C216960   0.544   0.711   7.832  0.2409 -0.4530 -0.0155
  140MOL     F316961   0.466   0.634   7.741 -0.2143  0.0171  0.5314
  140MOL     H416962   0.482   0.588   7.990 -1.8335 -0.3792 -1.8293
  140MOL     H516963   0.372   0.715   7.965 -0.1982 -0.0451 -0.3247
  140MOL     H616964   0.643   0.667   7.830  0.2632 -0.3513 -1.7715
  140MOL     H716965   0.527   0.748   0.042  3.1786 -2.1830 -0.6383
  140MOL     C816966   0.547   0.863   7.789 -0.0218  0.6813  0.1285
  140MOL     C916967   0.645   0.948   7.870 -0.3971  0.5198 -0.4220
  140MOL    F1016968   0.772   0.893   7.871  0.3000  0.2296  0.3136
  140MOL    H1116969   0.560   0.880   7.682 -1.1097 -0.6497 -0.2258
  140MOL    H1216970   0.452   0.911   7.810 -0.3500 -0.3332  0.9993
  140MOL    H1316971   0.620   0.943   7.976  0.2468  0.4184 -0.2732
  140MOL    C1416972   0.655   1.092   7.821  0.4063 -0.2149 -0.3411
  140MOL    C1516973   0.717   1.184   7.917 -0.0864 -0.6739 -0.4308
  140MOL    F1616974   0.834   1.134   7.968  0.0425  0.1111  0.0715
  140MOL    H1716975   0.702   1.099   7.723  0.2423 -0.2319 -0.4211
  140MOL    H1816976   0.554   1.124   7.798 -0.1601 -1.1536  0.8051
  140MOL    H1916977   0.640   1.181   7.994 -0.1727 -1.7334 -0.5456
  140MOL    C2016978   0.728   1.325   7.859  0.1967 -0.6140  0.0427
  140MOL    C2116979   0.832   1.340   7.746 -0.2985  0.4150  0.2592
  140MOL    F2216980   0.807   1.456   7.692  0.0085  0.1771  0.1380
  140MOL    H2316981   0.630   1.357   7.824 -0.6895 -0.4077  2.5770
  140MOL    H2416982   0.748   1.392   7.943 -1.9342 -1.8847  1.6043
  140MOL    H2516983   0.808   1.273   7.663 -1.6610  2.2844 -0.8867
  140MOL    C2616984   0.985   1.345   7.792 -1.1628  0.1352  0.5034
  140MOL    C2716985   1.077   1.296   7.684 -0.1080  0.5636  0.3725
  140MOL    F2816986   1.034   1.183   7.630  0.0052 -0.6607  0.5198
  140MOL    H2916987   1.008   1.446   7.824  0.5047  0.4424 -1.5688
  140MOL    H3016988   0.990   1.278   7.877  1.1276  1.3058  1.3290
  140MOL    H3116989   1.177   1.285   7.725  0.2182  0.5650 -0.4027
  140MOL    C3216990   1.078   1.387   7.560  0.3228 -0.0749 -0.2028
  140MOL    C3316991   1.200   1.375   7.460  0.2770  0.4987 -0.1104
  140MOL    F3416992   1.187   1.462   7.360  0.3987 -0.5433 -0.3878
  140MOL    H3516993   0.994   1.361   7.496 -0.6379  0.2615  0.8987
  140MOL    H3616994   1.061   1.491   7.588 -1.2340 -0.0872 -1.0866
  140MOL    H3716995   1.201   1.273   7.422 -1.3917  0.2569  0.4742
  140MOL    C3816996   1.351   1.391   7.509  0.3362 -0.0242  0.4861
  140MOL    C3916997   1.375   1.525   7.570  0.0782  0.1921  0.5954
  140MOL    F4016998   1.313   1.531   7.687 -0.0878  0.3015 -0.3712
  140MOL    H4116999   1.377   1.314   7.582 -0.4026  0.7041  1.5266
  140MOL    H4217000   1.425   1.392   7.430  0.9244  0.5534  1.0373
  140MOL    H4317001   1.343   1.602   7.499 -1.1063 -1.2336 -0.4485
  140MOL    C4417002   1.517   1.564   7.610  0.5433 -0.1586  0.3397
  140MOL    C4517003   1.582   1.466   7.707 -0.1468 -0.2764 -0.5897
  140MOL    F4617004   1.627   1.354   7.644  0.1172  0.2124  0.0135
  140MOL    H4717005   1.573   1.572   7.517  0.2194 -2.4098 -0.0834
  140MOL    H4817006   1.513   1.658   7.665  0.7701  1.2210 -1.9213
  140MOL    H4917007   1.517   1.421   7.781  1.4620 -0.9733  0.4384
  140MOL    C5017008   1.715   1.516   7.777 -0.6226 -0.1929 -0.2750
  140MOL    C5117009   1.697   1.628   7.884 -0.0368 -0.2754  0.5458
  140MOL    F5217010   1.640   1.578   7.994 -0.0214 -0.2940  0.2302
  140MOL    H5317011   1.758   1.427   7.824 -0.2013 -0.1813 -0.6443
  140MOL    H5417012   1.777   1.544   7.693  1.0145  0.6335  1.1689
  140MOL    H5517013   1.627   1.702   7.844 -0.6186 -0.2535  1.5837
  140MOL    C5617014   1.831   1.686   7.934 -0.2993 -0.4040  0.4573
  140MOL    C5717015   1.895   1.792   7.835 -0.1713 -0.6360 -0.4743
  140MOL    F5817016   1.815   1.901   7.823 -0.1206  0.1235  0.4636
  140MOL    H5917017   1.827   1.723   0.033 -1.3480 -0.3217  0.3949
  140MOL    H6017018   1.897   1.599   7.939 -0.2653 -0.4828 -1.0117
  140MOL    H6117019   1.897   1.753   7.733 -0.9437  3.5077 -2.2000
  140MOL    C6217020   2.040   1.838   7.871  0.2297  0.9461 -0.0222
  140MOL    C6317021   2.145   1.724   7.908  0.7805 -0.8159 -0.2238
  140MOL    F6417022   2.146   1.620   7.818  0.2302  0.0322  0.1188
  140MOL    H6517023   2.069   1.901   7.787 -0.0544  0.3226 -0.5917
  140MOL    H6617024   2.025   1.905   7.956  0.6459  1.3742 -0.2840
  140MOL    H6717025   2.102   1.671   7.994 -0.4907 -0.3300 -0.5498
  140MOL    C6817026   2.278   1.783   7.954 -0.1710  0.1874 -1.0784
  140MOL    C6917027   2.356   1.692   0.050  0.2199 -0.6410  0.3744
  140MOL    F7017028   2.351   1.562   0.013  0.0523  0.1348 -0.1522
  140MOL    H7117029   2.341   1.803   7.867  1.5840 -1.3583 -0.1981
  140MOL    H7217030   2.261   1.881   7.998 -1.1487 -0.4435 -0.0173
  140MOL    H7317031   2.323   1.699   0.154 -0.3130  1.0740  0.1027
  140MOL    C7417032   2.500   1.737   0.053 -0.5126  0.9238 -0.3118
  140MOL    C7517033   2.530   1.852   0.152  0.0279 -0.1427  0.4077
  140MOL    F7617034   2.493   1.806   0.267 -0.1454  0.0998 -0.4888
  140MOL    H7717035   2.569   1.661   0.088  0.6108  1.9705 -0.2356
  140MOL    H7817036   2.526   1.764   7.954  1.1959  1.1931  0.1903
  140MOL    H7917037   2.465   1.938   0.132  2.4394  1.1835 -2.2216
  140MOL    C8017038   2.673   1.886   0.153  0.4235 -0.4217  0.3181
  140MOL    C8117039   2.698   2.013   0.235  0.2292  0.0688 -0.0100
  140MOL    F8217040   2.751   1.983   0.355  0.6732  0.2039  0.0696
  140MOL    H8317041   2.721   1.799   0.197  1.6177  0.0158 -0.1157
  140MOL    H8417042   2.698   1.894   0.048 -4.7101 -0.3773 -1.0666
  140MOL    H8517043   2.599   2.058   0.243 -0.4547 -1.0830 -1.6838
  140MOL    C8617044   2.804   2.096   0.155  0.3538 -0.1465  0.3090
  140MOL    C8717045   2.865   2.213   0.227 -0.3203 -0.4859 -0.6989
  140MOL    F8817046   2.954   2.160   0.312  0.0003 -1.1605 -0.0105
  140MOL    H8917047   2.886   2.027   0.136  0.3067 -0.0766 -0.1605
  140MOL    H9017048   2.761   2.137   0.063  1.4395  1.5385  0.5430
  140MOL    H9117049   2.780   2.261   0.274  0.0850  1.1032 -1.5395
  140MOL    C9217050   2.950   2.301   0.127  0.0886  0.4401  0.4581
  140MOL    C9317051   3.064   2.224   0.062  0.3427  0.8026 -0.7693
  140MOL    F9417052   3.011   2.140   7.976  0.1892  0.2478 -0.2957
  140MOL    H9517053   2.889   2.347   0.050 -0.5938 -2.0584 -0.5160
  140MOL    H9617054   2.994   2.381   0.187 -1.0386  2.4103 -1.3045
  140MOL    H9717055   3.116   2.165   0.137 -2.2942  0.4982  0.8534
  140MOL    C9817056   3.167   2.320   7.995  0.0827  0.3128 -0.3770
  140MOL    C9917057   3.264   2.250   7.897 -0.7154 -0.4952  0.1920
  140MOL   F10017058   3.354   2.333   7.860 -0.3699 -0.1829  0.0232
  140MOL   H10117059   3.110   2.401   7.950 -2.2374 -1.4028 -0.6500
  140MOL   H10217060   3.227   2.372   0.066  0.1994  1.1712 -1.0673
  140MOL   H10317061   3.219   2.231   7.800 -0.4651 -2.3177  0.4111
  140MOL   C10417062   3.345   2.128   7.949  0.4314  0.5515  0.2762
  140MOL   C10517063   3.454   2.139   0.060 -0.5021 -0.6478 -0.0384
  140MOL   F10617064   3.390   2.156   0.175  0.5614  0.8136 -0.1752
  140MOL   H10717065   3.273   2.056   7.989 -0.7504  1.5431 -0.0270
  140MOL   H10817066   3.391   2.083   7.861 -2.0676 -0.7264 -0.4348
  140MOL   H10917067   3.521   2.224   0.049  1.2831 -2.0112  0.0260
  140MOL   C11017068   3.544   2.017   0.072  0.3057  0.1372  0.1331
  140MOL   C11117069   3.657   2.036   0.175 -0.0828  0.0092 -0.2986
  140MOL   F11217070   3.620   2.054   0.304 -0.3540 -0.3537 -0.1605
  140MOL   H11317071   3.479   1.930   0.089 -2.1421  1.7787 -0.5450
  140MOL   H11417072   3.597   2.003   7.981  2.3492  2.8248  0.8237
  140MOL   H11517073   3.709   2.127   0.146 -2.0567  0.9279 -1.0526
  140MOL   C11617074   3.754   1.919   0.190 -0.7629  0.0707  0.1133
  140MOL   C11717075   3.678   1.787   0.228 -0.4783  0.0440  0.1598
  140MOL   F11817076   3.751   1.679   0.212  0.1212  0.2643 -0.3715
  140MOL   H11917077   3.808   1.910   0.096 -2.3011  0.6028 -0.8430
  140MOL   H12017078   3.836   1.943   0.259 -2.1008 -0.7531  2.0304
  140MOL   H12117079   3.589   1.778   0.166  0.6073 -1.9542 -1.1662
  140MOL   H12217080   3.658   1.789   0.335 -1.6918 -1.1016 -0.0365
  141MOL     C117081   6.212   4.207   2.883 -0.4552  0.3313 -0.5833
  141MOL     C217082   6.066   4.230   2.901 -0.2715 -0.4547  0.2656
  141MOL     F317083   6.006   4.110   2.922  0.7435 -0.1739  0.3814
  141MOL     H417084   6.260   4.300   2.853 -0.8780  0.5162 -0.6829
  141MOL     H517085   6.234   4.140   2.801 -1.5460  0.9045 -1.3526
  141MOL     H617086   6.025   4.265   2.807 -1.0658 -3.3803 -0.5315
  141MOL     H717087   6.268   4.164   2.966 -0.4323 -0.7694 -1.1579
  141MOL     C817088   6.017   4.340   2.997 -0.8492  0.6753  0.1007
  141MOL     C917089   6.078   4.345   3.136  0.6396 -0.6795 -0.3097
  141MOL    F1017090   6.200   4.388   3.120  0.6866 -0.2413  0.2525
  141MOL    H1117091   6.016   4.437   2.949  1.2372 -0.0118 -1.3931
  141MOL    H1217092   5.913   4.321   3.025 -0.4538 -0.3605  0.9103
  141MOL    H1317093   6.086   4.244   3.177  1.0043 -1.9897 -3.4399
  141MOL    C1417094   5.989   4.441   3.232 -0.3572 -0.7983 -0.1203
  141MOL    C1517095   6.023   4.459   3.378 -0.5385  0.2009  0.2236
  141MOL    F1617096   5.989   4.350   3.452  0.3679  0.4793 -0.2807
  141MOL    H1717097   5.974   4.542   3.193 -1.8090 -1.3071 -0.9539
  141MOL    H1817098   5.883   4.416   3.224 -1.0013  1.3293  1.3273
  141MOL    H1917099   5.951   4.530   3.420 -1.4960  0.0271 -1.1093
  141MOL    C2017100   6.171   4.495   3.408  0.3226 -0.3642 -0.1748
  141MOL    C2117101   6.218   4.522   3.558  0.3993  0.0059  0.4268
  141MOL    F2217102   6.190   4.431   3.650 -0.6224  0.3765  0.0002
  141MOL    H2317103   6.221   4.408   3.364  0.7710 -0.0579 -0.2785
  141MOL    H2417104   6.205   4.580   3.349 -2.2329  0.7308 -0.1285
  141MOL    H2517105   6.170   4.616   3.585  1.1674  0.6040 -0.2516
  141MOL    C2617106   6.366   4.571   3.577 -0.8426 -0.5261 -0.1216
  141MOL    C2717107   6.408   4.610   3.726  0.5195  1.0287  0.4408
  141MOL    F2817108   6.536   4.625   3.727  0.0265 -0.8207  0.2872
  141MOL    H2917109   6.445   4.503   3.543  0.4834  1.9495 -2.1590
  141MOL    H3017110   6.378   4.663   3.519 -2.0488 -0.3603 -0.1210
  141MOL    H3117111   6.387   4.523   3.788 -2.7888  1.9019  0.6233
  141MOL    C3217112   6.339   4.737   3.780 -0.6321  0.2448  0.2257
  141MOL    C3317113   6.396   4.784   3.911 -0.0540  0.0563  0.4094
  141MOL    F3417114   6.328   4.889   3.957  0.3297 -0.2856 -0.1163
  141MOL    H3517115   6.349   4.817   3.708 -1.2534 -0.2552 -0.4219
  141MOL    H3617116   6.233   4.714   3.791  0.1381 -2.6718  2.4731
  141MOL    H3717117   6.498   4.819   3.900  0.0736 -0.5960 -0.5351
  141MOL    C3817118   6.382   4.687   4.029 -0.4416 -0.7016  0.4004
  141MOL    C3917119   6.444   4.733   4.160  0.2369 -0.3082 -0.2745
  141MOL    F4017120   6.378   4.829   4.218 -0.8019  0.5576  0.2257
  141MOL    H4117121   6.275   4.670   4.041 -0.7836 -0.0427 -1.5422
  141MOL    H4217122   6.425   4.591   3.999  3.2087  0.2311  2.3696
  141MOL    H4317123   6.539   4.773   4.125 -0.1104 -0.9614 -1.9906
  141MOL    C4417124   6.467   4.613   4.254  0.0894  0.0953 -0.3477
  141MOL    C4517125   6.536   4.657   4.388  0.2048 -0.2992  0.3826
  141MOL    F4617126   6.531   4.567   4.485  0.0079 -0.0790  0.3950
  141MOL    H4717127   6.369   4.573   4.280  0.6626 -1.8254 -1.1030
  141MOL    H4817128   6.521   4.533   4.204 -0.5198  0.4497 -1.6046
  141MOL    H4917129   6.489   4.744   4.433 -1.7101 -0.2355 -1.7047
  141MOL    C5017130   6.691   4.675   4.359  0.8050  0.5941 -0.4117
  141MOL    C5117131   6.775   4.729   4.468 -0.9032  0.2610 -0.4578
  141MOL    F5217132   6.795   4.635   4.563 -0.0329  0.6543 -0.1422
  141MOL    H5317133   6.734   4.580   4.327  0.2089 -1.0162  3.2475
  141MOL    H5417134   6.699   4.732   4.267 -0.0285  1.6849  0.1848
  141MOL    H5517135   6.722   4.813   4.513 -1.0668  0.2422 -0.6133
  141MOL    C5617136   6.913   4.779   4.418 -0.0142 -0.3572  0.1267
  141MOL    C5717137   7.003   4.852   4.525 -1.4967 -0.2896  0.1441
  141MOL    F5817138   7.063   4.761   4.613  0.2551 -0.2571  0.3670
  141MOL    H5917139   6.965   4.696   4.371 -3.2515 -1.4083 -1.7616
  141MOL    H6017140   6.891   4.850   4.338 -0.8726  0.2880  0.9150
  141MOL    H6117141   6.945   4.922   4.587 -0.1108  0.5385  0.5260
  141MOL    C6217142   7.119   4.943   4.465 -0.6240  0.0302 -0.0307
  141MOL    C6317143   7.068   5.049   4.361 -0.3655  0.6431  0.0604
  141MOL    F6417144   6.975   5.120   4.420 -0.6281  0.7121 -0.0814
  141MOL    H6517145   7.164   4.998   4.548 -2.3410  1.9369 -0.3200
  141MOL    H6617146   7.200   4.881   4.427 -0.4097  0.9121 -1.0571
  141MOL    H6717147   7.034   4.994   4.273 -1.0496 -0.4727  1.0148
  141MOL    C6817148   7.183   5.142   4.325 -0.3209 -0.6326 -0.0190
  141MOL    C6917149   7.168   5.222   4.199  0.1037 -0.3520  0.1987
  141MOL    F7017150   7.170   5.139   4.100  0.1562  0.1679 -0.0188
  141MOL    H7117151   7.209   5.202   4.412 -1.1436  0.8577 -0.7759
  141MOL    H7217152   7.268   5.074   4.310 -0.3161 -0.5147 -0.5287
  141MOL    H7317153   7.254   5.290   4.196 -0.2801  0.1024 -0.8515
  141MOL    C7417154   7.046   5.317   4.196 -0.1909 -0.4239  0.0837
  141MOL    C7517155   7.065   5.425   4.094  0.8241 -0.3546 -0.1744
  141MOL    F7617156   7.163   5.505   4.141 -0.4266 -0.0571 -0.8903
  141MOL    H7717157   6.952   5.264   4.177 -0.0744 -0.6795  0.2075
  141MOL    H7817158   7.044   5.365   4.294 -1.8632 -0.5422  0.1342
  141MOL    H7917159   6.971   5.480   4.085  1.9520  1.6451 -0.0398
  141MOL    C8017160   7.090   5.378   3.948  0.5413  0.1189 -0.2523
  141MOL    C8117161   7.088   5.485   3.842 -0.2477  0.8125 -0.3199
  141MOL    F8217162   7.155   5.587   3.883 -0.1488 -0.8374 -0.0776
  141MOL    H8317163   7.182   5.318   3.949 -0.0731 -0.8294  1.5254
  141MOL    H8417164   7.016   5.301   3.927 -1.1723  1.5010  0.6122
  141MOL    H8517165   6.987   5.518   3.818 -0.1530  0.2989 -1.4834
  141MOL    C8617166   7.149   5.445   3.701 -0.3431  0.2347  0.0811
  141MOL    C8717167   7.102   5.318   3.633  0.2581  0.5402 -0.1416
  141MOL    F8817168   6.969   5.304   3.636 -0.3883  0.0237  0.0801
  141MOL    H8917169   7.125   5.520   3.625 -0.5628  0.9274  0.8267
  141MOL    H9017170   7.256   5.450   3.724  0.0476  0.7586 -1.7062
  141MOL    H9117171   7.131   5.229   3.688  0.2662 -0.3079 -1.5112
  141MOL    C9217172   7.158   5.298   3.490 -0.2362 -0.6159  0.4536
  141MOL    C9317173   7.310   5.337   3.480  0.1437  0.6761  0.2103
  141MOL    F9417174   7.360   5.277   3.586 -0.2056  0.3336  0.0047
  141MOL    H9517175   7.142   5.205   3.437 -2.0380  0.2931 -0.6237
  141MOL    H9617176   7.094   5.366   3.434 -1.2629 -1.1894  0.9297
  141MOL    H9717177   7.326   5.444   3.493  1.7422  0.3843  0.8691
  141MOL    C9817178   7.390   5.294   3.353  0.6690 -0.6108 -0.8379
  141MOL    C9917179   7.333   5.357   3.223  0.0317 -0.1684 -0.2819
  141MOL   F10017180   7.342   5.487   3.238 -0.2252  0.0906 -0.1638
  141MOL   H10117181   7.492   5.330   3.366  0.7790 -0.3994 -2.1439
  141MOL   H10217182   7.388   5.186   3.343 -0.1554 -0.5192 -1.8779
  141MOL   H10317183   7.227   5.333   3.212 -0.5803  2.6276 -0.9268
  141MOL   C10417184   7.413   5.328   3.097  0.1914 -0.4110  0.3671
  141MOL   C10517185   7.416   5.182   3.052  0.1138 -0.4606  0.5309
  141MOL   F10617186   7.305   5.129   3.086 -0.3675 -0.2878 -0.3442
  141MOL   H10717187   7.353   5.382   3.024 -0.5242  1.2269  2.1304
  141MOL   H10817188   7.514   5.368   3.104  0.0316  0.2817 -1.1181
  141MOL   H10917189   7.495   5.130   3.107  1.7459  0.0962 -1.2846
  141MOL   C11017190   7.443   5.165   2.903 -0.6506 -0.1744  0.6942
  141MOL   C11117191   7.564   5.234   2.862  1.1019 -0.5926  0.6248
  141MOL   F11217192   7.670   5.180   2.912 -0.4968 -0.5310  0.1587
  141MOL   H11317193   7.459   5.060   2.876 -1.1855 -0.4480  1.4434
  141MOL   H11417194   7.353   5.189   2.847 -0.1702  0.7894  0.3279
  141MOL   H11517195   7.559   5.342   2.871 -1.4363 -0.4017 -2.1976
  141MOL   C11617196   7.589   5.219   2.714  0.8241 -0.8308 -0.8392
  141MOL   C11717197   7.723   5.270   2.666 -0.6398  0.8161  0.1808
  141MOL   F11817198   7.713   5.284   2.538 -0.1588 -0.0441 -0.0605
  141MOL   H11917199   7.578   5.112   2.696  0.4657 -0.5204 -2.5090
  141MOL   H12017200   7.514   5.273   2.657 -0.4960 -0.8797  0.8087
  141MOL   H12117201   7.805   5.201   2.685 -1.2499 -0.5679 -1.9326
  141MOL   H12217202   7.747   5.371   2.699 -0.2749  0.7556  0.0998
  142MOL     C117203   6.570   2.215   5.243  0.0892 -0.4590  0.3202
  142MOL     C217204   6.417   2.197   5.259  0.1730  0.6015 -0.8706
  142MOL     F317205   6.360   2.142   5.149  0.1401  0.8243  0.0486
  142MOL     H417206   6.612   2.280   5.319  0.1270  0.3837 -0.4143
  142MOL     H517207   6.591   2.264   5.148 -0.2299  0.1262  0.5499
  142MOL     H617208   6.365   2.292   5.266  1.2162  1.0622  1.2012
  142MOL     H717209   6.633   2.126   5.245  1.6192  0.5786 -0.6599
  142MOL     C817210   6.389   2.111   5.384 -0.1566 -0.1660 -0.3142
  142MOL     C917211   6.242   2.070   5.404  0.1412  0.6214  0.2498
  142MOL    F1017212   6.249   2.000   5.523  0.7714  0.1256 -0.1735
  142MOL    H1117213   6.441   2.015   5.378 -0.0107 -0.1587  0.8527
  142MOL    H1217214   6.422   2.155   5.478 -1.6159 -1.3968  0.7968
  142MOL    H1317215   6.207   1.996   5.332 -1.0231  0.0636  1.3801
  142MOL    C1417216   6.133   2.184   5.404 -0.0288  0.1241 -1.1640
  142MOL    C1517217   6.083   2.218   5.269  0.6090 -0.2048 -0.1209
  142MOL    F1617218   6.018   2.117   5.215  0.4716  0.0548 -0.0346
  142MOL    H1717219   6.044   2.158   5.461 -1.2727  0.4169 -2.9320
  142MOL    H1817220   6.166   2.267   5.467  0.0171  1.0566 -2.4174
  142MOL    H1917221   6.159   2.240   5.194  1.0670  0.7743  0.6196
  142MOL    C2017222   5.985   2.333   5.279 -0.4014 -0.3732 -0.2211
  142MOL    C2117223   5.909   2.372   5.148 -0.7517 -0.2772 -0.2108
  142MOL    F2217224   5.807   2.448   5.169 -0.6808 -0.2437  0.1227
  142MOL    H2317225   5.912   2.302   5.353  0.2523  1.5654  1.2622
  142MOL    H2417226   6.036   2.426   5.304 -0.9834  0.6440 -2.7049
  142MOL    H2517227   5.874   2.275   5.112  1.6548 -1.3476  0.2874
  142MOL    C2617228   5.999   2.435   5.039 -0.3755  0.1021  0.4421
  142MOL    C2717229   5.930   2.457   4.904 -0.1038 -0.4528  0.5793
  142MOL    F2817230   6.015   2.532   4.833 -0.5722 -0.2078 -0.1008
  142MOL    H2917231   6.030   2.534   5.074 -1.2922  0.6667 -0.3135
  142MOL    H3017232   6.087   2.372   5.020 -0.6014  0.0613 -0.5051
  142MOL    H3117233   5.840   2.517   4.917  1.8057  2.9887 -1.4489
  142MOL    C3217234   5.909   2.333   4.827 -0.4292  0.4119 -0.2540
  142MOL    C3317235   5.815   2.344   4.702  0.2162 -0.3146 -0.2487
  142MOL    F3417236   5.689   2.366   4.734  0.1279  0.4373 -0.2801
  142MOL    H3517237   6.002   2.290   4.789 -0.6052 -0.9317  0.7745
  142MOL    H3617238   5.857   2.260   4.890 -0.7234  1.7826  1.1297
  142MOL    H3717239   5.817   2.245   4.656  2.3676  0.4375 -1.8855
  142MOL    C3817240   5.868   2.438   4.589  0.5145 -0.2582 -0.0193
  142MOL    C3917241   5.792   2.419   4.454 -0.2121  0.0569  0.4820
  142MOL    F4017242   5.856   2.492   4.366 -0.3317  0.4081 -0.2960
  142MOL    H4117243   5.851   2.541   4.620 -1.8973 -1.0658  1.4762
  142MOL    H4217244   5.976   2.426   4.579  1.4205  3.8668  3.1797
  142MOL    H4317245   5.693   2.462   4.472 -1.1136 -1.9066  0.3253
  142MOL    C4417246   5.784   2.276   4.392  0.6273 -0.4480 -0.0714
  142MOL    C4517247   5.926   2.208   4.372  0.1528  0.2362 -0.2893
  142MOL    F4617248   5.979   2.191   4.496  0.3173  0.5417 -0.7002
  142MOL    H4717249   5.720   2.216   4.456  1.2297  1.2729  2.1810
  142MOL    H4817250   5.742   2.288   4.292  0.4025  1.7152  0.2588
  142MOL    H4917251   5.993   2.260   4.303  1.8734  0.3787  1.4575
  142MOL    C5017252   5.930   2.069   4.313 -0.2319 -0.2842 -0.5175
  142MOL    C5117253   5.898   2.060   4.156 -0.0031 -0.0748  0.0460
  142MOL    F5217254   5.816   2.163   4.111  0.4188  0.4449 -0.4213
  142MOL    H5317255   6.031   2.029   4.320 -0.8536 -1.5674  1.3877
  142MOL    H5417256   5.880   1.989   4.367  2.3143 -1.4759  0.1377
  142MOL    H5517257   5.839   1.972   4.133 -2.2931  1.5082 -0.3721
  142MOL    C5617258   6.022   2.042   4.052 -0.3720  0.3877  0.5739
  142MOL    C5717259   6.111   1.915   4.076  0.0100  0.1642 -0.0460
  142MOL    F5817260   6.039   1.805   4.073 -0.2670  0.0341 -0.3686
  142MOL    H5917261   5.981   2.056   3.952  1.2247  0.1805 -0.1365
  142MOL    H6017262   6.083   2.132   4.060  0.6658  0.0038 -2.5056
  142MOL    H6117263   6.150   1.920   4.177 -0.0623  3.3166 -0.1330
  142MOL    C6217264   6.221   1.891   3.976 -0.4321 -0.1062 -0.2226
  142MOL    C6317265   6.322   2.004   3.990 -0.2365 -0.2308 -0.5110
  142MOL    F6417266   6.365   2.018   4.111 -0.9561  0.2251 -0.2111
  142MOL    H6517267   6.267   1.795   4.001 -1.3797 -0.7899 -1.0912
  142MOL    H6617268   6.179   1.893   3.875 -0.5538  0.5955 -0.1603
  142MOL    H6717269   6.285   2.102   3.964 -1.3299 -0.9551 -1.7379
  142MOL    C6817270   6.444   1.988   3.903  0.1545 -0.3694 -0.4696
  142MOL    C6917271   6.541   2.104   3.891  0.9802 -0.2235  0.5387
  142MOL    F7017272   6.656   2.059   3.852 -0.4562  0.2441 -0.4023
  142MOL    H7117273   6.509   1.905   3.930 -0.0591 -0.3442  0.1277
  142MOL    H7217274   6.411   1.962   3.802  0.4545 -2.2125 -0.1073
  142MOL    H7317275   6.565   2.145   3.990 -0.1669  0.6345  0.4712
  142MOL    C7417276   6.501   2.225   3.800  0.5325  0.1162  0.0479
  142MOL    C7517277   6.612   2.332   3.804 -0.1264  0.2706 -0.3861
  142MOL    F7617278   6.578   2.429   3.723 -0.2201 -0.1427 -0.2116
  142MOL    H7717279   6.495   2.181   3.700 -2.8897  0.9701 -0.1812
  142MOL    H7817280   6.401   2.265   3.815  0.1186 -1.3787  1.4408
  142MOL    H7917281   6.710   2.300   3.771  0.1005  2.4134 -1.8430
  142MOL    C8017282   6.632   2.404   3.943  1.1298 -0.0552  0.3595
  142MOL    C8117283   6.705   2.536   3.932  0.7966  0.3851  0.4012
  142MOL    F8217284   6.684   2.593   4.053 -0.2033  0.2056 -0.0801
  142MOL    H8317285   6.532   2.408   3.987 -0.0623  1.3479 -2.3555
  142MOL    H8417286   6.693   2.344   4.011  1.0684 -0.8641 -0.2992
  142MOL    H8517287   6.652   2.595   3.857 -2.6312 -2.0756  0.7656
  142MOL    C8617288   6.858   2.516   3.904 -0.0266 -0.0793 -0.0832
  142MOL    C8717289   6.942   2.644   3.879 -0.4880 -0.3488  0.2573
  142MOL    F8817290   7.068   2.611   3.870  0.0757 -0.3453 -0.4128
  142MOL    H8917291   6.901   2.459   3.987  0.4953  0.5864  0.1043
  142MOL    H9017292   6.861   2.452   3.815  1.2345  2.4507 -1.9170
  142MOL    H9117293   6.928   2.716   3.960 -0.2858  1.1975 -1.0533
  142MOL    C9217294   6.907   2.723   3.756 -0.9427 -0.5718 -0.1437
  142MOL    C9317295   7.002   2.844   3.725 -0.0318 -0.1156 -0.9431
  142MOL    F9417296   6.970   2.891   3.600  0.2321 -0.1808 -0.0445
  142MOL    H9517297   6.914   2.663   3.665 -2.0061  0.5469 -0.9857
  142MOL    H9617298   6.804   2.758   3.765 -1.1210 -0.8992 -0.8040
  142MOL    H9717299   7.101   2.801   3.709 -0.5008 -1.2311 -0.8916
  142MOL    C9817300   7.002   2.953   3.829 -0.0860  0.0162 -0.1719
  142MOL    C9917301   7.074   3.086   3.776  0.3743  0.8264 -0.5400
  142MOL   F10017302   7.047   3.183   3.858 -0.0606  0.9540 -0.0347
  142MOL   H10117303   6.900   2.977   3.858  1.0190  2.9133  1.3830
  142MOL   H10217304   7.052   2.924   3.921 -1.3128 -2.7091 -0.3122
  142MOL   H10317305   7.046   3.112   3.674  2.2680  0.7723 -1.0901
  142MOL   C10417306   7.227   3.073   3.772  0.3184 -1.2016 -0.8719
  142MOL   C10517307   7.294   3.137   3.651 -0.5702  0.1123  0.2468
  142MOL   F10617308   7.259   3.085   3.531 -0.1121 -0.0572  0.7155
  142MOL   H10717309   7.248   3.114   3.871 -2.1239  0.6393 -1.0480
  142MOL   H10817310   7.261   2.972   3.792 -0.9350 -1.8212 -1.8499
  142MOL   H10917311   7.396   3.107   3.676 -0.2227  1.1732  0.1010
  142MOL   C11017312   7.288   3.291   3.640 -0.1490  0.2671  0.2943
  142MOL   C11117313   7.342   3.362   3.765 -0.0621  0.5747 -0.0135
  142MOL   F11217314   7.449   3.288   3.795 -0.2723 -0.2215 -0.6752
  142MOL   H11317315   7.329   3.336   3.549 -0.8063 -1.3154 -0.8059
  142MOL   H11417316   7.183   3.319   3.638 -0.2236  0.0547  1.1211
  142MOL   H11517317   7.270   3.354   3.847  1.0323  2.8559  1.2516
  142MOL   C11617318   7.399   3.503   3.753  0.4213  0.0211  0.2692
  142MOL   C11717319   7.292   3.601   3.715  0.2284  0.3688  0.2588
  142MOL   F11817320   7.340   3.725   3.736  0.3890 -0.9156  0.1311
  142MOL   H11917321   7.428   3.538   3.852 -4.6651  2.2676  1.1552
  142MOL   H12017322   7.474   3.510   3.675 -0.8432  0.6236 -0.9192
  142MOL   H12117323   7.205   3.596   3.781 -1.9426 -1.2011 -2.6114
  142MOL   H12217324   7.251   3.589   3.614 -0.2654  1.0286  0.3739
  143MOL     C117325   7.936   1.164   0.078 -0.2808 -0.1505 -0.3332
  143MOL     C217326   7.891   1.274   7.978 -0.3204 -0.1957  0.0468
  143MOL     F317327   0.001   1.331   7.938 -0.1682 -0.6661  0.8754
  143MOL     H417328   0.004   1.212   0.145 -1.6917  0.5155  0.7034
  143MOL     H517329   7.994   1.080   0.040 -1.6522 -1.2820  0.0694
  143MOL     H617330   7.836   1.351   0.030 -0.5783 -0.7323  0.5439
  143MOL     H717331   7.859   1.122   0.141  1.4229  1.0026  2.6039
  143MOL     C817332   7.835   1.222   7.845  0.7905  0.1388  0.2829
  143MOL     C917333   7.695   1.169   7.872  0.6408 -0.6627  0.0377
  143MOL    F1017334   7.622   1.280   7.912  0.2985 -0.4015  0.2920
  143MOL    H1117335   7.833   1.297   7.766 -1.1726  0.9990  1.1251
  143MOL    H1217336   7.902   1.144   7.809 -0.2116 -0.1259 -1.0839
  143MOL    H1317337   7.688   1.097   7.953 -3.7111  0.1093  0.4911
  143MOL    C1417338   7.617   1.117   7.745  0.4575  0.0157 -0.2432
  143MOL    C1517339   7.677   0.996   7.668 -0.1048 -0.8355  0.0042
  143MOL    F1617340   7.654   0.887   7.739  0.1982 -0.4791 -0.5760
  143MOL    H1717341   7.516   1.086   7.775  0.2150  1.6628  0.7040
  143MOL    H1817342   7.606   1.207   7.684 -0.2969 -0.3010 -0.5908
  143MOL    H1917343   7.785   1.011   7.679  0.5007 -5.3084  1.2050
  143MOL    C2017344   7.611   0.986   7.531  0.0214 -0.0928  0.8747
  143MOL    C2117345   7.705   0.907   7.431  0.5645 -0.1758  0.4741
  143MOL    F2217346   7.713   0.773   7.465  0.0861 -0.3309  0.5474
  143MOL    H2317347   7.511   0.943   7.526 -0.9775  2.2794 -0.7191
  143MOL    H2417348   7.606   1.088   7.492  0.6116  0.5734  2.4930
  143MOL    H2517349   7.803   0.955   7.437  1.2262 -1.6680  2.2081
  143MOL    C2617350   7.651   0.910   7.290  0.0302  0.1655  0.0438
  143MOL    C2717351   7.752   0.871   7.188 -0.2376 -0.2969 -0.0030
  143MOL    F2817352   7.686   0.842   7.076  0.2310 -0.5513  0.0349
  143MOL    H2917353   7.560   0.851   7.279 -1.0427  2.0217 -1.2982
  143MOL    H3017354   7.613   1.010   7.272  1.0694  0.0115 -3.5021
  143MOL    H3117355   7.801   0.781   7.225 -0.7423 -0.2132  0.8939
  143MOL    C3217356   7.839   0.995   7.170  0.6778  0.0948  0.0504
  143MOL    C3317357   7.925   0.995   7.043  0.2362 -0.3160 -0.2815
  143MOL    F3417358   7.990   1.109   7.034 -0.2941  0.1581  0.4440
  143MOL    H3517359   7.782   1.088   7.159  0.8258  0.1055 -0.6318
  143MOL    H3617360   7.909   0.993   7.254  0.8427  1.4573 -0.0281
  143MOL    H3717361   7.851   1.002   6.963 -0.7315 -2.1501  0.4074
  143MOL    C3817362   0.011   0.876   7.012 -0.4805 -0.1803  0.8003
  143MOL    C3917363   0.067   0.875   6.867 -0.6208  0.2138 -0.0931
  143MOL    F4017364   0.125   0.993   6.836 -0.1796 -0.3871  0.0544
  143MOL    H4117365   0.095   0.873   7.081  0.0966  0.3645  0.1391
  143MOL    H4217366   7.954   0.786   7.020 -1.4823  0.3699 -0.2935
  143MOL    H4317367   7.987   0.866   6.797 -2.1771  0.0436  1.7283
  143MOL    C4417368   0.160   0.766   6.835 -0.2132  0.4841  0.5016
  143MOL    C4517369   0.100   0.626   6.814  0.0707 -0.6179  0.6551
  143MOL    F4617370   0.048   0.620   6.690 -0.3356  0.2235 -0.1256
  143MOL    H4717371   0.199   0.800   6.739 -1.1058  2.8542  0.9393
  143MOL    H4817372   0.231   0.757   6.918 -0.6583  1.0370  0.9505
  143MOL    H4917373   0.014   0.606   6.879 -1.8022 -1.2089 -1.8872
  143MOL    C5017374   0.202   0.505   6.834  0.2437 -0.1865  0.1819
  143MOL    C5117375   0.177   0.411   6.942  0.4760 -0.4175 -0.2909
  143MOL    F5217376   0.288   0.335   6.941 -0.4223 -0.2165 -0.2429
  143MOL    H5317377   0.217   0.455   6.738  1.9483  1.4662 -0.4455
  143MOL    H5417378   0.302   0.543   6.855  0.6623 -0.1679 -1.7115
  143MOL    H5517379   0.095   0.347   6.909 -0.6515  2.0209 -2.3890
  143MOL    C5617380   0.146   0.458   7.082 -0.0732 -0.0303  0.3557
  143MOL    C5717381   0.265   0.508   7.162 -0.1054 -0.4975 -0.4896
  143MOL    F5817382   0.302   0.619   7.106 -0.3900 -0.0189  0.0468
  143MOL    H5917383   0.078   0.542   7.072  0.3606  0.1129 -1.5785
  143MOL    H6017384   0.105   0.375   7.139  1.3543  0.7453  2.5656
  143MOL    H6117385   0.345   0.436   7.149  1.6167  0.5772  3.3965
  143MOL    C6217386   0.241   0.525   7.316 -0.0234  0.0533 -0.0801
  143MOL    C6317387   0.160   0.642   7.366 -0.6183 -0.5728 -0.7348
  143MOL    F6417388   0.032   0.612   7.351  0.4912 -0.2613  0.0868
  143MOL    H6517389   0.194   0.434   7.353 -0.5968  1.2289  2.2065
  143MOL    H6617390   0.344   0.534   7.350 -0.1775 -0.3713  0.5064
  143MOL    H6717391   0.183   0.731   7.308 -0.9889 -0.5057 -0.7786
  143MOL    C6817392   0.179   0.678   7.518 -0.3247 -0.1675 -0.4405
  143MOL    C6917393   0.116   0.811   7.558 -0.4832 -0.0432  0.9438
  143MOL    F7017394   7.998   0.791   7.603  0.0037  0.3090 -0.0666
  143MOL    H7117395   0.142   0.601   7.586  1.4107  0.0861  0.8345
  143MOL    H7217396   0.284   0.673   7.547 -0.0794  1.2749 -1.0333
  143MOL    H7317397   0.095   0.867   7.467  0.1868  1.7598  1.8810
  143MOL    C7417398   0.201   0.896   7.660  0.0190 -0.4983  0.2463
  143MOL    C7517399   0.156   1.042   7.667  0.8849  0.4554  0.4544
  143MOL    F7617400   0.125   1.068   7.794 -0.4372 -0.3815  0.6566
  143MOL    H7717401   0.178   0.853   7.758  0.5758  1.3301  1.2013
  143MOL    H7817402   0.306   0.876   7.641 -0.1528 -0.0997 -1.1383
  143MOL    H7917403   0.064   1.054   7.610 -0.0301 -0.1535  1.7829
  143MOL    C8017404   0.254   1.154   7.617  0.1758 -0.1420 -0.5069
  143MOL    C8117405   0.286   1.135   7.472  0.4548  0.4342 -0.3697
  143MOL    F8217406   0.172   1.144   7.402 -0.0761 -0.2536 -0.4445
  143MOL    H8317407   0.212   1.252   7.640  1.8321  0.8637 -1.5808
  143MOL    H8417408   0.342   1.143   7.680  0.0066  1.1888 -0.0273
  143MOL    H8517409   0.330   1.036   7.460  0.2716  0.3202 -0.0981
  143MOL    C8617410   0.380   1.236   7.418  0.3716 -0.5416  0.2292
  143MOL    C8717411   0.528   1.230   7.474 -0.1527  0.5161 -0.1981
  143MOL    F8817412   0.568   1.105   7.475 -0.1937  0.5437 -0.3948
  143MOL    H8917413   0.381   1.239   7.309  0.6979 -0.6359  0.2304
  143MOL    H9017414   0.337   1.331   7.450  1.5719 -0.1970  0.8418
  143MOL    H9117415   0.541   1.262   7.577  3.0763  0.1987 -0.4485
  143MOL    C9217416   0.624   1.322   7.398 -0.8645  0.0909  0.4626
  143MOL    C9317417   0.592   1.474   7.412  0.2168  0.4124  0.1509
  143MOL    F9417418   0.571   1.491   7.545 -0.0669 -0.2261 -0.2964
  143MOL    H9517419   0.726   1.308   7.434 -1.5330  0.1374  2.4088
  143MOL    H9617420   0.626   1.293   7.293 -0.2100 -0.2854  0.5758
  143MOL    H9717421   0.500   1.508   7.364 -0.7956 -0.5427  1.3715
  143MOL    C9817422   0.686   1.576   7.366 -0.3387 -0.4049 -0.8921
  143MOL    C9917423   0.704   1.576   7.210  0.7336  0.2616 -0.0439
  143MOL   F10017424   0.605   1.640   7.159 -0.7209  0.1171  0.4615
  143MOL   H10117425   0.654   1.677   7.392  0.8733 -0.0173 -0.8769
  143MOL   H10217426   0.780   1.555   7.417  0.9791 -0.2247 -3.1815
  143MOL   H10317427   0.709   1.474   7.173  0.1307 -0.2165  1.1586
  143MOL   C10417428   0.832   1.636   7.158 -0.8535 -0.6614  0.0001
  143MOL   C10517429   0.866   1.611   7.013  0.2792  0.1148 -0.1341
  143MOL   F10617430   0.954   1.705   6.985  0.1639  0.6475  0.1420
  143MOL   H10717431   0.834   1.743   7.176 -1.6791 -0.0316 -3.2419
  143MOL   H10817432   0.903   1.586   7.224 -0.0102  1.7870  1.0063
  143MOL   H10917433   0.785   1.638   6.945  0.6476  0.8129 -0.3036
  143MOL   C11017434   0.935   1.477   6.985 -0.5625  0.5054 -0.0468
  143MOL   C11117435   0.992   1.458   6.845  0.2356 -0.9583 -0.1879
  143MOL   F11217436   1.109   1.390   6.842  0.3305 -0.0797  0.3462
  143MOL   H11317437   1.016   1.459   7.056  1.1074 -1.0267 -2.2581
  143MOL   H11417438   0.858   1.402   7.001 -0.1149 -0.2613 -1.4128
  143MOL   H11517439   1.029   1.556   6.815 -0.4960 -1.3438 -2.4706
  143MOL   C11617440   0.877   1.415   6.744 -0.2808  0.1351  0.0904
  143MOL   C11717441   0.928   1.374   6.607  0.2659 -0.1935 -0.9091
  143MOL   F11817442   0.829   1.358   6.520 -0.2439 -0.7373  0.0859
  143MOL   H11917443   0.812   1.338   6.786  0.6580 -0.0878  1.1720
  143MOL   H12017444   0.814   1.503   6.730  1.5629  1.4229 -0.2527
  143MOL   H12117445   0.984   1.282   6.625  1.0315  0.9163  2.8179
  143MOL   H12217446   1.006   1.441   6.571  1.4185 -1.7119 -1.3265
  144MOL     C117447   0.560   7.588   1.979  0.6758 -0.8843  0.3310
  144MOL     C217448   0.538   7.473   1.881  0.4204  0.2097 -0.5910
  144MOL     F317449   0.531   7.359   1.955 -0.6310 -0.0730  0.5365
  144MOL     H417450   0.607   7.675   1.932 -1.9567  0.2837 -0.2441
  144MOL     H517451   0.627   7.552   2.058 -0.9398  1.1198  2.7254
  144MOL     H617452   0.628   7.463   1.821  0.5633  2.2442 -0.7392
  144MOL     H717453   0.465   7.621   2.021  0.8338  1.5731 -1.1411
  144MOL     C817454   0.412   7.477   1.801 -0.0581 -0.3133  0.3913
  144MOL     C917455   0.392   7.353   1.711 -0.7601 -0.5207  0.3013
  144MOL    F1017456   0.492   7.340   1.616 -0.1475 -0.2911 -0.0505
  144MOL    H1117457   0.336   7.482   1.879  1.0812 -0.8158  1.5611
  144MOL    H1217458   0.409   7.569   1.744 -0.9522 -1.4678 -1.4658
  144MOL    H1317459   0.301   7.378   1.657 -0.8947  0.8359  1.1333
  144MOL    C1417460   0.374   7.211   1.771 -0.0885 -0.3111 -0.4890
  144MOL    C1517461   0.292   7.117   1.671  0.2493  0.1331 -0.3318
  144MOL    F1617462   0.355   7.131   1.548 -0.1275  0.1071  0.9384
  144MOL    H1717463   0.472   7.167   1.789 -0.5936 -1.5814 -0.7884
  144MOL    H1817464   0.335   7.203   1.873 -0.1571  0.2075 -0.4757
  144MOL    H1917465   0.188   7.148   1.659 -0.6478 -1.7083  2.4551
  144MOL    C2017466   0.293   6.977   1.722 -0.2208 -0.5925  0.0855
  144MOL    C2117467   0.199   6.897   1.639 -0.4815 -0.0136 -0.6164
  144MOL    F2217468   0.245   6.886   1.512  0.4827  0.1133 -0.0592
  144MOL    H2317469   0.392   6.932   1.711 -1.1507 -2.3247 -1.3891
  144MOL    H2417470   0.272   6.990   1.828  1.4877  0.7951  0.2926
  144MOL    H2517471   0.102   6.947   1.633 -0.8789 -0.3999  2.2093
  144MOL    C2617472   0.181   6.755   1.700  0.3305 -0.5629 -0.0186
  144MOL    C2717473   0.077   6.676   1.624 -0.2668 -0.7725 -0.0077
  144MOL    F2817474   0.070   6.557   1.685 -0.4102  0.4037  0.3554
  144MOL    H2917475   0.275   6.700   1.707 -0.6387 -2.0897  1.1471
  144MOL    H3017476   0.154   6.776   1.803 -3.2248  0.6407 -1.0992
  144MOL    H3117477   0.091   6.661   1.517 -1.8436 -1.1086 -0.1774
  144MOL    C3217478   7.938   6.736   1.648  0.3534  0.4211 -0.7183
  144MOL    C3317479   7.819   6.660   1.592  0.7492  0.0801 -0.0982
  144MOL    F3417480   7.803   6.542   1.645 -0.0843  0.3216 -0.6933
  144MOL    H3517481   7.922   6.761   1.752  0.1446  0.3752 -0.7389
  144MOL    H3617482   7.923   6.826   1.589 -1.7907  1.8411  1.8996
  144MOL    H3717483   7.839   6.642   1.486  0.0727  0.9468 -0.3835
  144MOL    C3817484   7.683   6.730   1.597 -0.0483 -0.2657 -0.2764
  144MOL    C3917485   7.564   6.669   1.528  0.2786 -0.3033 -0.6250
  144MOL    F4017486   7.499   6.590   1.617  0.7416 -0.1347  0.1638
  144MOL    H4117487   7.660   6.744   1.703 -0.7322 -2.3796 -0.1304
  144MOL    H4217488   7.699   6.836   1.578 -0.0754  0.1033  1.6284
  144MOL    H4317489   7.583   6.608   1.440  0.0184  0.4878 -1.2365
  144MOL    C4417490   7.450   6.770   1.485 -0.3884  0.1413  0.1642
  144MOL    C4517491   7.336   6.722   1.404  0.3110  0.0391 -0.7501
  144MOL    F4617492   7.244   6.813   1.404  0.3010 -0.7373  0.1814
  144MOL    H4717493   7.422   6.818   1.579 -2.3692  0.5058 -0.5843
  144MOL    H4817494   7.491   6.850   1.423  2.3804 -0.4766  1.1607
  144MOL    H4917495   7.277   6.642   1.450  1.8208 -1.0657 -0.6902
  144MOL    C5017496   7.367   6.682   1.260  0.0258  0.3554 -0.5063
  144MOL    C5117497   7.413   6.793   1.157  0.1017  0.8870 -0.2289
  144MOL    F5217498   7.536   6.842   1.183 -0.3011  0.1645  0.0014
  144MOL    H5317499   7.428   6.592   1.256 -1.2447 -0.5692  0.6540
  144MOL    H5417500   7.266   6.653   1.230  0.1422 -1.6092  0.9429
  144MOL    H5517501   7.343   6.876   1.171 -0.0187  0.7044  0.2661
  144MOL    C5617502   7.399   6.755   1.005 -0.8053  0.4467  0.3089
  144MOL    C5717503   7.404   6.875   0.911  0.3936  0.2624  0.0531
  144MOL    F5817504   7.515   6.939   0.931  0.1543 -0.0554  0.2639
  144MOL    H5917505   7.476   6.685   0.972  0.1650  1.3150  0.7548
  144MOL    H6017506   7.300   6.713   0.984  0.1669 -1.3746 -0.6949
  144MOL    H6117507   7.327   6.950   0.932 -1.2341 -1.2990 -0.1402
  144MOL    C6217508   7.397   6.846   0.760 -0.8297  0.6634  0.1778
  144MOL    C6317509   7.267   6.770   0.720 -0.4878 -0.3943 -0.7448
  144MOL    F6417510   7.167   6.847   0.759  0.4800  0.2626 -0.4694
  144MOL    H6517511   7.403   6.939   0.703 -0.0068 -0.9053 -2.3775
  144MOL    H6617512   7.477   6.781   0.725 -1.2602  0.6849 -0.8790
  144MOL    H6717513   7.254   6.679   0.778 -1.6189  0.0607 -0.2832
  144MOL    C6817514   7.242   6.753   0.572  0.0070 -0.8077 -0.4429
  144MOL    C6917515   7.346   6.670   0.492  0.6321  0.4667  0.4754
  144MOL    F7017516   7.335   6.548   0.547  0.2679 -0.6868 -0.4550
  144MOL    H7117517   7.147   6.699   0.570 -0.1794 -0.5312  0.5902
  144MOL    H7217518   7.212   6.848   0.528  3.1400  0.3460 -0.2094
  144MOL    H7317519   7.444   6.707   0.524 -0.1185  1.7440  1.3527
  144MOL    C7417520   7.329   6.676   0.344  0.0568 -0.0406  0.0876
  144MOL    C7517521   7.445   6.617   0.259  0.7786  0.4184 -0.0256
  144MOL    F7617522   7.439   6.487   0.264 -0.6531 -0.5472 -0.1203
  144MOL    H7717523   7.227   6.647   0.319  0.7573 -0.9589 -1.7870
  144MOL    H7817524   7.341   6.782   0.321 -0.5660 -0.2219 -1.1426
  144MOL    H7917525   7.534   6.654   0.311  0.9927 -1.6580  1.1290
  144MOL    C8017526   7.447   6.661   0.106  0.0593  0.5216  0.0117
  144MOL    C8117527   7.590   6.626   0.038  0.2120 -0.1130  0.5018
  144MOL    F8217528   7.580   6.657   7.914  0.4328 -0.3518 -0.8488
  144MOL    H8317529   7.359   6.621   0.055 -0.1775  1.2225 -0.1356
  144MOL    H8417530   7.431   6.768   0.094 -0.9476  0.3308 -0.4578
  144MOL    H8517531   7.605   6.518   0.032  0.1781 -0.0529 -0.8896
  144MOL    C8617532   7.712   6.709   0.088 -0.7955  0.2553  0.0046
  144MOL    C8717533   7.709   6.862   0.083 -0.7779 -0.6792 -0.6975
  144MOL    F8817534   7.633   6.906   0.181 -0.4454  0.1624 -0.3493
  144MOL    H8917535   7.721   6.685   0.194  2.6863 -0.5717 -0.3832
  144MOL    H9017536   7.803   6.688   0.031 -0.9601 -1.8421  0.4702
  144MOL    H9117537   7.656   6.902   7.999 -0.4724  0.0044 -0.5779
  144MOL    C9217538   7.856   6.927   0.101 -0.6944 -0.8450  0.2340
  144MOL    C9317539   7.875   7.081   0.082  0.0549  0.2605  0.6459
  144MOL    F9417540   7.873   7.117   7.958  0.0824  0.1317  0.1106
  144MOL    H9517541   7.898   6.898   0.198  0.0107 -0.2990  0.0946
  144MOL    H9617542   7.928   6.886   0.030  1.3194  2.5742  0.1947
  144MOL    H9717543   7.974   7.112   0.114 -0.0182 -0.8946  2.0363
  144MOL    C9817544   7.776   7.178   0.160  0.2917  0.4207  0.1011
  144MOL    C9917545   7.781   7.327   0.123  0.2823  0.0601 -0.3894
  144MOL   F10017546   7.674   7.387   0.172  0.3446 -0.4941 -0.2450
  144MOL   H10117547   7.673   7.159   0.131  0.0459  0.7923  0.7212
  144MOL   H10217548   7.771   7.155   0.267  2.1861 -0.7616 -0.0382
  144MOL   H10317549   7.767   7.340   0.016 -1.5132 -1.1084 -0.3119
  144MOL   C10417550   7.907   7.406   0.168 -0.4435 -0.4436  0.4736
  144MOL   C10517551   7.940   7.536   0.086 -0.2888  0.3025 -0.3542
  144MOL   F10617552   0.020   7.602   0.166 -0.2804 -0.2798  0.6536
  144MOL   H10717553   7.901   7.427   0.274 -0.4515 -0.9041  0.5646
  144MOL   H10817554   7.989   7.335   0.160  0.8717  1.1992 -1.3926
  144MOL   H10917555   7.843   7.585   0.092  0.1127  1.2267 -1.3085
  144MOL   C11017556   7.996   7.513   7.945  0.2564 -0.1238 -0.1537
  144MOL   C11117557   0.031   7.646   7.870  0.4867 -0.3724  0.1129
  144MOL   F11217558   0.076   7.613   7.750  0.4380 -0.0876  0.0289
  144MOL   H11317559   0.085   7.456   7.954  1.0626  1.4041  1.4593
  144MOL   H11417560   7.929   7.456   7.881 -0.7094  1.4345 -0.5565
  144MOL   H11517561   0.119   7.690   7.916  0.5234 -0.5704  0.2322
  144MOL   C11617562   7.927   7.754   7.859  0.8363 -0.7767  0.5353
  144MOL   C11717563   7.973   7.867   7.772  0.4864 -0.1616 -0.5333
  144MOL   F11817564   7.878   7.958   7.751 -0.1192 -0.1089 -0.1252
  144MOL   H11917565   7.834   7.708   7.825  0.9881 -1.4026  0.9489
  144MOL   H12017566   7.910   7.787   7.961  4.3850  1.2741  0.5317
  144MOL   H12117567   0.016   7.834   7.679 -1.8513  0.5903 -1.9932
  144MOL   H12217568   0.047   7.921   7.826 -0.3922 -0.2731  0.8753
  145MOL     C117569   2.951   6.748   1.247 -0.5584 -0.4712  0.3583
  145MOL     C217570   3.103   6.721   1.238 -0.2968 -0.7917  0.3147
  145MOL     F317571   3.122   6.590   1.242 -0.0321  0.1300 -0.4123
  145MOL     H417572   2.889   6.698   1.173 -1.8720 -1.5660  2.1704
  145MOL     H517573   2.924   6.852   1.230  0.0261 -0.1409  1.3827
  145MOL     H617574   3.159   6.753   1.326  1.2009  0.9566 -1.2382
  145MOL     H717575   2.908   6.722   1.344 -1.9248 -0.1961 -0.1637
  145MOL     C817576   3.176   6.778   1.121 -0.2646  0.2434  0.5046
  145MOL     C917577   3.191   6.932   1.137 -0.5260 -0.2135 -0.0446
  145MOL    F1017578   3.269   6.957   1.243 -0.0120 -0.0437 -0.0770
  145MOL    H1117579   3.278   6.739   1.116 -0.7154 -1.0428  1.1987
  145MOL    H1217580   3.130   6.749   1.027  0.3292  2.2549 -0.4310
  145MOL    H1317581   3.098   6.986   1.156 -0.6474 -0.1529 -0.7914
  145MOL    C1417582   3.251   7.005   1.009 -0.0650  0.6152  0.2709
  145MOL    C1517583   3.174   6.982   0.880  0.4102  0.2746 -0.3263
  145MOL    F1617584   3.041   6.981   0.903  0.4172  0.2102 -0.5057
  145MOL    H1717585   3.242   7.113   1.023  0.2135  0.8814 -1.4605
  145MOL    H1817586   3.356   6.984   0.989  0.7111  0.2160  4.2946
  145MOL    H1917587   3.195   6.881   0.844 -1.0072 -0.6292  1.3133
  145MOL    C2017588   3.202   7.082   0.771 -0.8619  0.1127 -0.1858
  145MOL    C2117589   3.345   7.061   0.711  0.3309 -0.4859 -0.3668
  145MOL    F2217590   3.364   6.935   0.673  0.2724 -0.2094 -0.4354
  145MOL    H2317591   3.127   7.078   0.692 -0.5021  2.6948 -0.6848
  145MOL    H2417592   3.195   7.187   0.798  1.7746 -0.2454  2.0766
  145MOL    H2517593   3.420   7.093   0.784  0.8084  0.6270 -1.3122
  145MOL    C2617594   3.359   7.143   0.577 -0.7313  0.2690 -0.0338
  145MOL    C2717595   3.507   7.153   0.518  0.1736  0.8981 -0.3437
  145MOL    F2817596   3.552   7.030   0.481 -0.4757 -0.2920  0.1250
  145MOL    H2917597   3.287   7.092   0.513  0.2822 -3.7782  1.8782
  145MOL    H3017598   3.343   7.250   0.593  2.8172  0.5461  2.3645
  145MOL    H3117599   3.575   7.185   0.597  1.8804 -0.6312 -1.1515
  145MOL    C3217600   3.525   7.252   0.406  0.4658 -0.0308 -0.0404
  145MOL    C3317601   3.663   7.323   0.404  0.1554 -0.2386 -0.2516
  145MOL    F3417602   3.683   7.388   0.516 -0.1842 -0.6398  0.5445
  145MOL    H3517603   3.518   7.192   0.315  0.6740 -0.5381  0.2725
  145MOL    H3617604   3.452   7.332   0.396  2.2126  1.4944 -1.2312
  145MOL    H3717605   3.651   7.399   0.326 -1.0429  1.0839  1.1920
  145MOL    C3817606   3.791   7.236   0.375  0.2905 -0.2583 -0.1870
  145MOL    C3917607   3.915   7.320   0.336  0.6613  0.7088  0.2762
  145MOL    F4017608   3.939   7.414   0.432  0.1888  0.2697  0.9081
  145MOL    H4117609   3.804   7.181   0.468  2.0174  2.8180  1.4657
  145MOL    H4217610   3.765   7.171   0.291 -2.9518  0.0126  0.5197
  145MOL    H4317611   3.890   7.376   0.245 -0.0250 -1.2390 -0.7548
  145MOL    C4417612   4.040   7.239   0.302  0.2654  0.2460  0.3810
  145MOL    C4517613   4.168   7.316   0.280  0.0097 -0.4699 -0.0188
  145MOL    F4617614   4.261   7.226   0.262 -0.4594 -0.3729 -0.1287
  145MOL    H4717615   4.067   7.173   0.384  0.5578  0.5237  0.5052
  145MOL    H4817616   4.014   7.181   0.213  0.5133 -0.7467  0.9578
  145MOL    H4917617   4.197   7.366   0.372 -1.2183  0.0304  0.0989
  145MOL    C5017618   4.164   7.417   0.159 -0.8133  0.3381 -0.1672
  145MOL    C5117619   4.303   7.477   0.124 -0.1124  0.0106 -0.3820
  145MOL    F5217620   4.276   7.556   0.013 -0.3500  0.3678  0.0633
  145MOL    H5317621   4.130   7.365   0.069 -2.2577 -1.6222  1.4527
  145MOL    H5417622   4.084   7.491   0.169  0.4156  1.8384 -1.2106
  145MOL    H5517623   4.367   7.394   0.094 -2.4430 -1.6668 -0.9499
  145MOL    C5617624   4.353   7.567   0.236 -0.2491 -0.0230  0.7348
  145MOL    C5717625   4.480   7.634   0.188 -0.1361 -0.4918  0.2529
  145MOL    F5817626   4.515   7.737   0.270  0.0386  0.4669 -0.1813
  145MOL    H5917627   4.283   7.647   0.257 -0.7990 -0.1403 -0.6060
  145MOL    H6017628   4.374   7.517   0.331  1.9559  0.2286  0.4055
  145MOL    H6117629   4.461   7.688   0.095  2.6805 -1.5805 -1.0134
  145MOL    C6217630   4.608   7.542   0.173 -0.2683  0.0622  0.9844
  145MOL    C6317631   4.684   7.496   0.302  0.2591  0.3787 -0.7642
  145MOL    F6417632   4.604   7.431   0.380  0.0876 -0.2160 -0.4544
  145MOL    H6517633   4.575   7.451   0.124  1.2085 -0.5327  1.0518
  145MOL    H6617634   4.683   7.577   0.102  0.9636 -1.5016  1.4644
  145MOL    H6717635   4.729   7.584   0.348 -0.0871 -0.0794  0.4428
  145MOL    C6817636   4.788   7.390   0.261  0.7576 -0.4139 -0.4732
  145MOL    C6917637   4.915   7.436   0.183 -0.1324  0.9074  0.1974
  145MOL    F7017638   4.966   7.534   0.266  0.5447  0.7981  0.3925
  145MOL    H7117639   4.827   7.343   0.351  2.1069  0.7129 -0.4608
  145MOL    H7217640   4.742   7.308   0.206 -0.2377  1.4940 -2.5329
  145MOL    H7317641   4.902   7.483   0.085 -0.4022 -1.5799 -1.0137
  145MOL    C7417642   5.020   7.319   0.165  0.0383 -0.5771  0.7670
  145MOL    C7517643   5.150   7.373   0.104  0.6177 -0.0686 -0.3136
  145MOL    F7617644   5.218   7.435   0.200 -0.3592 -0.6288 -0.1019
  145MOL    H7717645   5.037   7.263   0.257  0.0507 -0.2927  0.9368
  145MOL    H7817646   4.970   7.253   0.094  2.1536 -0.8065 -0.5624
  145MOL    H7917647   5.145   7.433   0.013 -1.3981  0.3621  0.0695
  145MOL    C8017648   5.244   7.251   0.081 -0.1050  0.1765 -0.0838
  145MOL    C8117649   5.376   7.274   0.004 -0.3619 -1.1708 -0.4319
  145MOL    F8217650   5.352   7.298   7.882 -0.2339 -0.6604  0.2519
  145MOL    H8317651   5.265   7.204   0.177  0.3541  3.2100  1.3419
  145MOL    H8417652   5.194   7.173   0.024  1.2869 -1.1639  0.4898
  145MOL    H8517653   5.431   7.179   0.008  1.4357 -0.0930  1.1400
  145MOL    C8617654   5.481   7.377   0.049  0.5864 -0.2415  1.0330
  145MOL    C8717655   5.537   7.352   0.185  0.2175  0.5901  0.0054
  145MOL    F8817656   5.577   7.230   0.188  0.0155  0.1631  0.3851
  145MOL    H8917657   5.570   7.380   7.989 -0.0515 -0.3977  0.1054
  145MOL    H9017658   5.435   7.475   0.060  1.6174  0.3748 -0.0332
  145MOL    H9117659   5.460   7.362   0.261 -0.0616 -0.0364 -0.1964
  145MOL    C9217660   5.658   7.440   0.215  0.2556  0.1405  0.0641
  145MOL    C9317661   5.745   7.422   0.343  0.2668  0.2077  0.3572
  145MOL    F9417662   5.845   7.510   0.329 -0.2643 -0.6569  0.0493
  145MOL    H9517663   5.726   7.406   0.137  0.4127  2.5169 -0.8820
  145MOL    H9617664   5.632   7.542   0.186 -1.6656 -0.5434 -0.7768
  145MOL    H9717665   5.785   7.320   0.353 -0.4952 -0.0434  0.8139
  145MOL    C9817666   5.673   7.459   0.477  0.5355 -0.2866  0.3283
  145MOL    C9917667   5.616   7.347   0.562  0.2503 -0.9942  0.5367
  145MOL   F10017668   5.719   7.268   0.582  0.3598 -0.1625  0.2304
  145MOL   H10117669   5.746   7.509   0.540  1.4921  0.3814 -1.2719
  145MOL   H10217670   5.579   7.512   0.462  0.2148 -1.1330 -0.7713
  145MOL   H10317671   5.535   7.298   0.507  1.0299 -0.4810 -1.0810
  145MOL   C10417672   5.560   7.401   0.704  0.2325 -0.5386  0.4528
  145MOL   C10517673   5.481   7.303   0.791  0.8129  0.4218 -0.1603
  145MOL   F10617674   5.548   7.192   0.816  0.4241 -0.3716  0.0526
  145MOL   H10717675   5.646   7.439   0.759 -1.8286  0.7976  2.8364
  145MOL   H10817676   5.487   7.480   0.686 -4.0218 -4.5949 -0.9491
  145MOL   H10917677   5.395   7.276   0.729 -0.7259 -0.1383  2.1443
  145MOL   C11017678   5.448   7.371   0.917 -0.4350  0.2509 -0.5943
  145MOL   C11117679   5.354   7.296   1.012 -0.3140 -0.0227  0.5510
  145MOL   F11217680   5.242   7.267   0.944  0.0657 -0.5980 -0.3161
  145MOL   H11317681   5.530   7.391   0.986  0.2516  0.7491 -1.5361
  145MOL   H11417682   5.389   7.461   0.900 -2.2014 -0.9766 -1.1025
  145MOL   H11517683   5.323   7.370   1.085 -0.6800 -0.4683  0.8532
  145MOL   C11617684   5.411   7.171   1.080 -0.8462 -0.2076  0.7919
  145MOL   C11717685   5.328   7.113   1.199 -0.8748 -0.4767  0.4846
  145MOL   F11817686   5.381   7.005   1.248 -0.4158 -0.0988 -0.0314
  145MOL   H11917687   5.418   7.098   1.000  3.9531 -0.8403  1.5973
  145MOL   H12017688   5.510   7.203   1.115 -0.1115  2.5731 -3.3954
  145MOL   H12117689   5.224   7.084   1.183 -0.8758 -1.1002  1.6267
  145MOL   H12217690   5.332   7.183   1.282 -0.9041  2.3611 -1.8328
  146MOL     C117691   6.331   2.428   4.364  0.0444  0.0807  0.0191
  146MOL     C217692   6.371   2.293   4.303  0.0320  0.1129  0.1124
  146MOL     F317693   6.442   2.312   4.197 -0.4482  0.0229  0.7669
  146MOL     H417694   6.409   2.463   4.431 -0.8978  0.7661  0.7648
  146MOL     H517695   6.248   2.412   4.432 -2.1255 -0.9149 -2.7879
  146MOL     H617696   6.282   2.256   4.251  0.1392  0.1668 -0.1075
  146MOL     H717697   6.311   2.502   4.287  1.1929 -0.2809 -0.6464
  146MOL     C817698   6.434   2.194   4.403  0.0816 -0.5053  0.1567
  146MOL     C917699   6.340   2.115   4.491  0.0865 -0.1189  0.3282
  146MOL    F1017700   6.277   2.026   4.408  0.2749  0.4050 -0.0280
  146MOL    H1117701   6.507   2.132   4.351  0.0330  0.1598 -0.7110
  146MOL    H1217702   6.492   2.261   4.468  0.0494 -0.0158 -0.3178
  146MOL    H1317703   6.251   2.166   4.528  0.0825  1.0898 -1.3373
  146MOL    C1417704   6.410   2.045   4.607  0.7463 -0.2112 -0.8674
  146MOL    C1517705   6.326   1.961   4.709 -0.5314  0.1802 -0.2743
  146MOL    F1617706   6.412   1.934   4.807  0.1567  0.1088  0.0037
  146MOL    H1717707   6.497   1.985   4.579 -0.2062 -1.7896 -0.5357
  146MOL    H1817708   6.460   2.128   4.657 -0.8789  1.3056 -1.6996
  146MOL    H1917709   6.287   1.876   4.653  2.3589  0.3382 -2.6193
  146MOL    C2017710   6.217   2.046   4.782  0.0489 -0.2417 -0.4086
  146MOL    C2117711   6.154   1.994   4.909 -0.3156  0.0743  0.2344
  146MOL    F2217712   6.073   2.089   4.952  0.6556 -0.2775 -0.5006
  146MOL    H2317713   6.260   2.144   4.799  2.5029 -1.4366  0.5274
  146MOL    H2417714   6.129   2.070   4.721  1.2862  0.8224 -1.8034
  146MOL    H2517715   6.231   1.971   4.984  0.9080 -0.1173 -1.0515
  146MOL    C2617716   6.060   1.874   4.894  0.0357  0.5985  0.3258
  146MOL    C2717717   6.022   1.798   5.022  0.1533 -0.4031  0.1567
  146MOL    F2817718   5.899   1.758   5.005 -0.0270  0.1013  0.1232
  146MOL    H2917719   5.976   1.909   4.834  0.5102 -0.9503 -1.2857
  146MOL    H3017720   6.108   1.801   4.829  1.4950  1.4113  0.4744
  146MOL    H3117721   6.012   1.872   5.101  0.4416  0.2688 -0.4274
  146MOL    C3217722   6.104   1.681   5.068 -0.5919 -0.1542  1.2861
  146MOL    C3317723   6.255   1.710   5.092 -0.2429  0.4135 -0.2594
  146MOL    F3417724   6.266   1.799   5.190 -0.3181  0.1158 -0.6341
  146MOL    H3517725   6.054   1.641   5.157  3.5840 -1.9331  2.9702
  146MOL    H3617726   6.098   1.603   4.992 -0.2750  1.2250 -0.1622
  146MOL    H3717727   6.308   1.747   5.005  0.9249 -0.2556  0.1554
  146MOL    C3817728   6.323   1.577   5.138  0.3590 -1.0227 -0.3877
  146MOL    C3917729   6.473   1.595   5.139  0.5497  0.1227 -0.1796
  146MOL    F4017730   6.503   1.636   5.016  0.2203 -0.5948 -0.2133
  146MOL    H4117731   6.282   1.559   5.238  3.4254 -2.5159  0.6444
  146MOL    H4217732   6.299   1.491   5.076 -1.5426 -0.3382 -0.6385
  146MOL    H4317733   6.524   1.500   5.155  1.9428  0.7630 -0.7146
  146MOL    C4417734   6.542   1.699   5.228  0.0061 -0.8775 -0.0104
  146MOL    C4517735   6.686   1.680   5.264 -0.2577 -0.4189  0.3921
  146MOL    F4617736   6.740   1.705   5.143 -0.0887 -0.6749 -0.4510
  146MOL    H4717737   6.515   1.798   5.193 -2.8639 -0.6520  2.6046
  146MOL    H4817738   6.489   1.703   5.323 -0.3788 -1.5956 -0.1842
  146MOL    H4917739   6.706   1.579   5.299  0.5471 -0.8413 -1.2272
  146MOL    C5017740   6.740   1.781   5.372 -0.3539  0.1208 -0.2176
  146MOL    C5117741   6.877   1.737   5.426  0.0084 -0.1280 -0.1125
  146MOL    F5217742   6.930   1.833   5.508  0.0242 -0.8258  0.3127
  146MOL    H5317743   6.749   1.878   5.323  0.2432  1.3980  2.3264
  146MOL    H5417744   6.666   1.787   5.451  1.3219 -2.5622  1.6454
  146MOL    H5517745   6.946   1.729   5.342  0.1448  1.3928 -0.1637
  146MOL    C5617746   6.885   1.605   5.509  0.4110 -0.4075 -0.4388
  146MOL    C5717747   7.024   1.562   5.570 -0.3109 -0.3851 -0.8966
  146MOL    F5817748   7.065   1.655   5.656  0.1984 -0.7763  0.0291
  146MOL    H5917749   6.814   1.594   5.591  0.9263 -1.6090 -0.1268
  146MOL    H6017750   6.855   1.524   5.442 -1.7887  0.0042  0.0014
  146MOL    H6117751   7.094   1.547   5.488  1.5386 -0.2186  0.6280
  146MOL    C6217752   7.010   1.426   5.654 -0.0804 -0.3783 -0.2882
  146MOL    C6317753   7.145   1.359   5.695 -0.1095  0.3204 -0.0527
  146MOL    F6417754   7.210   1.448   5.769 -0.0717  0.1751 -0.4628
  146MOL    H6517755   6.945   1.447   5.739 -1.0021 -1.8264 -0.6209
  146MOL    H6617756   6.950   1.354   5.599 -0.9821 -1.2965  1.8700
  146MOL    H6717757   7.213   1.338   5.612  1.1167  1.6654  0.5856
  146MOL    C6817758   7.119   1.231   5.772  0.1055 -0.3134 -0.0026
  146MOL    C6917759   7.040   1.125   5.694 -0.6841 -0.9900 -0.1398
  146MOL    F7017760   7.126   1.095   5.596  0.1285 -0.3741 -0.5909
  146MOL    H7117761   7.212   1.191   5.812  0.4836  0.6961  0.1571
  146MOL    H7217762   7.057   1.254   5.859 -0.5516  0.1990 -0.5969
  146MOL    H7317763   6.941   1.143   5.651 -0.1066  1.6869 -0.3978
  146MOL    C7417764   7.035   0.986   5.775 -0.1142  0.1482  0.2262
  146MOL    C7517765   6.926   0.890   5.716 -0.0426 -0.0638 -0.7154
  146MOL    F7617766   6.807   0.956   5.733 -0.4345  0.1896 -0.5726
  146MOL    H7717767   7.135   0.941   5.778  1.1029  2.7333 -0.1249
  146MOL    H7817768   7.014   1.015   5.878 -1.6005  1.4433 -0.4232
  146MOL    H7917769   6.917   0.804   5.783  0.2930  0.7083  0.3432
  146MOL    C8017770   6.943   0.823   5.582  0.3504 -0.1210 -0.7343
  146MOL    C8117771   6.820   0.738   5.541 -0.2388 -0.3592 -0.2000
  146MOL    F8217772   6.717   0.817   5.503  0.1265 -0.1407  0.2619
  146MOL    H8317773   6.983   0.889   5.505  0.5845 -0.4399 -0.8870
  146MOL    H8417774   7.028   0.755   5.587 -1.1128 -1.9609 -0.1882
  146MOL    H8517775   6.786   0.674   5.622 -0.9669  1.9601  1.3770
  146MOL    C8617776   6.856   0.654   5.414 -0.4002 -0.1609 -0.0555
  146MOL    C8717777   6.769   0.529   5.375 -0.2614  0.0572  0.6620
  146MOL    F8817778   6.796   0.436   5.473  0.3526  0.0291  0.6072
  146MOL    H8917779   6.882   0.717   5.329  0.0560  0.6504  0.6732
  146MOL    H9017780   6.948   0.602   5.440  0.8458  1.4224 -1.1824
  146MOL    H9117781   6.801   0.489   5.279 -2.3374  2.6880 -1.2114
  146MOL    C9217782   6.616   0.559   5.364  0.2600  0.2346  0.2477
  146MOL    C9317783   6.571   0.656   5.255  0.1517 -0.1440  0.1035
  146MOL    F9417784   6.598   0.607   5.132  0.2418  0.8458 -0.8407
  146MOL    H9517785   6.561   0.465   5.354  2.2173 -0.8606 -0.4263
  146MOL    H9617786   6.577   0.595   5.460 -0.2994 -0.2980  0.2254
  146MOL    H9717787   6.633   0.746   5.253 -0.1279  0.0241 -1.1931
  146MOL    C9817788   6.420   0.694   5.252  0.6002  0.0704  0.7235
  146MOL    C9917789   6.368   0.790   5.363  0.4531 -0.6161 -0.1742
  146MOL   F10017790   6.463   0.884   5.364  0.0725  0.2948 -0.2107
  146MOL   H10117791   6.390   0.720   5.150 -0.4008 -1.8822  0.4897
  146MOL   H10217792   6.367   0.599   5.258 -0.4020  0.6500  1.0596
  146MOL   H10317793   6.367   0.740   5.460 -2.0178  2.1407  1.2711
  146MOL   C10417794   6.234   0.879   5.324 -0.5718  0.1362  0.4469
  146MOL   C10517795   6.096   0.813   5.357  0.0237 -0.0748  0.7279
  146MOL   F10617796   6.040   0.856   5.465  0.1974 -0.1332  0.1020
  146MOL   H10717797   6.240   0.974   5.378  0.6429 -0.6248  1.6711
  146MOL   H10817798   6.246   0.902   5.218 -1.4248  1.1075  0.5492
  146MOL   H10917799   6.111   0.706   5.370 -1.2325 -0.7705 -2.8661
  146MOL   C11017800   5.992   0.843   5.247 -0.1776  0.2155 -0.5342
  146MOL   C11117801   5.854   0.789   5.266 -0.0513  0.3155  0.5357
  146MOL   F11217802   5.780   0.796   5.152 -0.4370 -0.4321 -0.1516
  146MOL   H11317803   5.986   0.951   5.232  4.9230  0.6960  0.0789
  146MOL   H11417804   6.040   0.804   5.157  1.4157  0.1857  0.3132
  146MOL   H11517805   5.800   0.856   5.333  1.0505  1.7785  0.0017
  146MOL   C11617806   5.849   0.641   5.315  1.0592 -0.0374  0.0429
  146MOL   C11717807   5.705   0.610   5.365  0.4783 -0.3380 -0.2506
  146MOL   F11817808   5.673   0.685   5.468 -0.1485  0.2236 -0.7415
  146MOL   H11917809   5.873   0.578   5.229  1.5499  0.2371 -0.0205
  146MOL   H12017810   5.922   0.629   5.394  0.2034 -0.4356  0.7841
  146MOL   H12117811   5.707   0.508   5.402  0.5920  0.0542  0.8643
  146MOL   H12217812   5.630   0.641   5.293  2.3615  1.9675 -1.2978
  147MOL     C117813   1.176   0.572   4.582 -0.0594 -0.1260  0.0194
  147MOL     C217814   1.246   0.603   4.443  0.3958 -0.4669  0.0434
  147MOL     F317815   1.137   0.600   4.357 -0.1515 -0.0581  0.3561
  147MOL     H417816   1.115   0.659   4.608  0.6833  0.6141 -0.6736
  147MOL     H517817   1.243   0.546   4.664  0.2739 -1.1579 -0.5728
  147MOL     H617818   1.318   0.528   4.409 -0.6445 -0.6122 -1.8548
  147MOL     H717819   1.126   0.476   4.572  0.4315 -0.3922  0.1396
  147MOL     C817820   1.324   0.738   4.448  0.6194  0.3971  0.0640
  147MOL     C917821   1.389   0.783   4.317  0.5031 -0.1364  0.0953
  147MOL    F1017822   1.471   0.688   4.277 -0.1370  0.7334 -0.0187
  147MOL    H1117823   1.259   0.815   4.488  2.8552  2.3348  0.0956
  147MOL    H1217824   1.404   0.742   4.522 -0.7049  0.8173  1.4985
  147MOL    H1317825   1.446   0.876   4.322  0.5177 -0.1802  0.8093
  147MOL    C1417826   1.289   0.810   4.202  0.2754  0.5889  0.0323
  147MOL    C1517827   1.175   0.918   4.220 -0.0854  0.5334  0.5018
  147MOL    F1617828   1.237   1.040   4.221  0.4473 -0.6490 -0.2480
  147MOL    H1717829   1.348   0.851   4.120 -1.3727  0.7385 -1.0815
  147MOL    H1817830   1.249   0.714   4.170 -0.4739  1.4614 -1.7026
  147MOL    H1917831   1.130   0.904   4.318  1.7793  1.3188  1.4982
  147MOL    C2017832   1.061   0.912   4.121  0.2164  0.0031 -0.2224
  147MOL    C2117833   0.971   0.791   4.142  0.1880  0.1667 -0.1263
  147MOL    F2217834   0.911   0.786   4.265 -0.2062 -0.7967 -0.2813
  147MOL    H2317835   1.007   1.006   4.110  1.6213  0.7981 -0.4687
  147MOL    H2417836   1.106   0.903   4.022  0.0075 -1.0518 -0.2198
  147MOL    H2517837   1.020   0.698   4.115  1.0299  0.5346  0.1079
  147MOL    C2617838   0.849   0.826   4.048  1.1232  0.4816 -0.0731
  147MOL    C2717839   0.745   0.716   4.040  0.0304 -0.3316 -0.0387
  147MOL    F2817840   0.642   0.773   3.983 -0.1511 -0.4993  0.4269
  147MOL    H2917841   0.807   0.911   4.101  2.4184  0.7558  0.5262
  147MOL    H3017842   0.878   0.857   3.947 -2.6620 -0.1156 -1.4141
  147MOL    H3117843   0.708   0.696   4.141 -1.1065 -2.1981 -0.8025
  147MOL    C3217844   0.786   0.575   3.989  0.0866 -0.1165 -0.1158
  147MOL    C3317845   0.666   0.493   3.926  0.0932 -0.9856 -0.5166
  147MOL    F3417846   0.619   0.545   3.813  0.5043 -0.1729 -0.1617
  147MOL    H3517847   0.862   0.586   3.911 -0.9512  0.4952 -1.0630
  147MOL    H3617848   0.829   0.513   4.067 -1.1477  0.2700  0.8806
  147MOL    H3717849   0.582   0.497   3.994  1.0765  1.7734  0.6015
  147MOL    C3817850   0.707   0.352   3.887  0.7797 -0.4865 -0.1911
  147MOL    C3917851   0.589   0.274   3.826  0.5825 -0.7467 -0.8944
  147MOL    F4017852   0.636   0.158   3.776  0.0443 -0.0231 -0.0756
  147MOL    H4117853   0.780   0.355   3.806 -0.6305  0.8445 -1.4432
  147MOL    H4217854   0.752   0.300   3.972  1.0454  0.1160  0.0389
  147MOL    H4317855   0.557   0.330   3.739  1.1780  1.4809  0.2860
  147MOL    C4417856   0.473   0.234   3.928  0.6146  0.9350 -0.3228
  147MOL    C4517857   0.336   0.203   3.865  0.7466 -0.1251 -0.2015
  147MOL    F4617858   0.276   0.121   3.955 -0.3329  0.2283  0.4290
  147MOL    H4717859   0.513   0.148   3.981 -2.6295  1.5108  3.2573
  147MOL    H4817860   0.447   0.306   4.005  0.9217  0.6516  0.0484
  147MOL    H4917861   0.349   0.156   3.768 -0.8487  0.1322 -0.5443
  147MOL    C5017862   0.248   0.324   3.843 -0.7595 -0.2739 -0.0367
  147MOL    C5117863   0.128   0.299   3.757 -0.1511 -0.5465  0.1736
  147MOL    F5217864   0.038   0.402   3.763 -0.4081  0.0603  0.2666
  147MOL    H5317865   0.206   0.354   3.938 -0.0235 -1.2704  0.6162
  147MOL    H5417866   0.304   0.400   3.788 -0.9095  1.7645  2.5832
  147MOL    H5517867   0.078   0.210   3.794 -1.6441  0.8474  1.5774
  147MOL    C5617868   0.143   0.294   3.603 -0.4199 -0.0069  0.1069
  147MOL    C5717869   0.176   0.428   3.530  0.0288 -0.7337 -0.2207
  147MOL    F5817870   0.288   0.476   3.587 -0.2161 -0.2312 -0.4262
  147MOL    H5917871   0.221   0.221   3.582  0.4555  0.8516  0.3470
  147MOL    H6017872   0.045   0.265   3.565 -0.1034 -0.0725 -0.6800
  147MOL    H6117873   0.100   0.502   3.550  1.7329  1.0661 -0.2417
  147MOL    C6217874   0.194   0.432   3.377  0.3697 -0.3892  0.0901
  147MOL    C6317875   0.239   0.565   3.313  0.0808 -0.2915 -0.5822
  147MOL    F6417876   0.343   0.622   3.370 -0.1719  0.1267  0.3788
  147MOL    H6517877   0.275   0.363   3.354  0.6173 -0.2444  0.5326
  147MOL    H6617878   0.107   0.396   3.322 -0.8087  1.2438  0.8585
  147MOL    H6717879   0.161   0.639   3.329 -0.7358 -1.3035  0.1584
  147MOL    C6817880   0.272   0.547   3.164 -0.4383  0.6109  0.2519
  147MOL    C6917881   0.329   0.670   3.097 -0.3516 -1.4296  0.2038
  147MOL    F7017882   0.451   0.703   3.151 -1.0753  0.8751  0.1277
  147MOL    H7117883   0.349   0.471   3.162  0.0029  1.0882 -2.1769
  147MOL    H7217884   0.176   0.516   3.122  0.3463 -0.2815 -0.9183
  147MOL    H7317885   0.270   0.758   3.123 -0.1296 -0.7867 -1.4404
  147MOL    C7417886   0.344   0.650   2.939  0.5756 -0.0537  0.9501
  147MOL    C7517887   0.405   0.763   2.859  0.5024 -0.0375 -0.2888
  147MOL    F7617888   0.429   0.728   2.735 -0.3851 -0.2502 -1.1186
  147MOL    H7717889   0.405   0.560   2.931 -0.7876 -0.8109 -1.4827
  147MOL    H7817890   0.248   0.624   2.893 -0.5354 -0.4357  3.3847
  147MOL    H7917891   0.496   0.798   2.906  0.0661 -1.0959  1.3591
  147MOL    C8017892   0.322   0.901   2.867 -0.3266  0.5969  0.5494
  147MOL    C8117893   0.179   0.897   2.823 -0.5046 -0.0628  0.2702
  147MOL    F8217894   0.111   0.827   2.919  0.1013  0.1708 -0.5608
  147MOL    H8317895   0.320   0.929   2.972  0.6347  2.0656  0.2025
  147MOL    H8417896   0.365   0.983   2.809  1.5221 -0.4955  0.3224
  147MOL    H8517897   0.165   0.848   2.726  3.0552 -2.4940  0.8666
  147MOL    C8617898   0.137   1.039   2.806  0.1827 -0.5149  0.3652
  147MOL    C8717899   7.992   1.065   2.755  0.8012 -0.0503 -0.3504
  147MOL    F8817900   7.903   1.054   2.853  0.1297 -0.2767 -0.0955
  147MOL    H8917901   0.149   1.099   2.896  0.9458  0.4198 -0.3521
  147MOL    H9017902   0.195   1.089   2.729  0.3441  1.1576  1.5367
  147MOL    H9117903   7.968   0.985   2.685  0.9344 -1.5401  1.2924
  147MOL    C9217904   7.983   1.199   2.689  0.3526  0.0737 -0.8336
  147MOL    C9317905   7.836   1.233   2.640 -0.1144  0.1933  1.0618
  147MOL    F9417906   7.833   1.365   2.611  0.2673  0.3735  0.6101
  147MOL    H9517907   0.008   1.274   2.763  0.8716  0.5575 -1.5235
  147MOL    H9617908   0.060   1.207   2.616  0.2560  1.5918 -0.7872
  147MOL    H9717909   7.770   1.225   2.727 -0.0000 -0.0236  1.1270
  147MOL    C9817910   7.792   1.163   2.504 -0.1729  0.7049  0.4966
  147MOL    C9917911   7.646   1.205   2.460 -0.1504 -0.1449  0.8556
  147MOL   F10017912   7.640   1.157   2.333 -0.3715 -0.1042  0.3554
  147MOL   H10117913   7.863   1.202   2.431 -0.4587  0.8654  0.3011
  147MOL   H10217914   7.791   1.054   2.503 -3.0831  0.6939 -0.0836
  147MOL   H10317915   7.636   1.313   2.460 -0.3569 -0.1601 -1.0308
  147MOL   C10417916   7.537   1.147   2.549  0.1222  0.3886  0.1732
  147MOL   C10517917   7.525   0.994   2.569 -0.1268 -0.2501  0.5343
  147MOL   F10617918   7.610   0.947   2.659 -0.0790 -0.0627  0.1061
  147MOL   H10717919   7.533   1.193   2.648 -2.5137 -3.0592  1.7954
  147MOL   H10817920   7.441   1.180   2.510  0.1863  0.8503  0.4041
  147MOL   H10917921   7.541   0.945   2.473 -0.9523 -2.0925  1.3155
  147MOL   C11017922   7.381   0.947   2.606  0.1437 -0.0776  0.1170
  147MOL   C11117923   7.364   0.791   2.606  0.2711  0.4916  0.1547
  147MOL   F11217924   7.407   0.735   2.715  0.5968  0.1877 -0.2627
  147MOL   H11317925   7.342   0.983   2.702 -0.3155 -0.9908  0.2752
  147MOL   H11417926   7.306   0.990   2.539  3.1551  1.8893 -2.1375
  147MOL   H11517927   7.431   0.744   2.534  0.1482 -2.1052  1.6913
  147MOL   C11617928   7.220   0.738   2.586 -0.5460 -1.2658  0.8948
  147MOL   C11717929   7.193   0.589   2.614 -0.3766 -0.2093  0.1644
  147MOL   F11817930   7.279   0.510   2.551 -0.3619  0.1270  0.7899
  147MOL   H11917931   7.156   0.795   2.653 -1.0889 -0.2131 -0.5002
  147MOL   H12017932   7.191   0.763   2.484  3.0516  0.5195  0.2293
  147MOL   H12117933   7.091   0.561   2.587 -0.1767 -0.0261 -0.8097
  147MOL   H12217934   7.207   0.568   2.720  1.6775 -0.0360 -0.0487
  148MOL     C117935   4.336   3.874   6.600 -0.1582 -0.0942  0.1392
  148MOL     C217936   4.354   3.813   6.737 -0.2441  0.0279 -0.3196
  148MOL     F317937   4.374   3.906   6.834 -0.2615 -0.6902  0.0991
  148MOL     H417938   4.397   3.963   6.579 -0.0345 -0.7098 -2.3196
  148MOL     H517939   4.235   3.914   6.604 -0.2923 -0.3020 -1.0882
  148MOL     H617940   4.443   3.751   6.734  0.0185  0.3073  1.4978
  148MOL     H717941   4.356   3.800   6.522  1.0845 -0.8903  1.1892
  148MOL     C817942   4.231   3.728   6.770 -0.2294 -0.0048  0.1979
  148MOL     C917943   4.265   3.634   6.888  0.4133  0.0581 -0.4678
  148MOL    F1017944   4.151   3.591   6.932 -0.0060 -0.4432 -0.4344
  148MOL    H1117945   4.147   3.789   6.803 -0.8871 -1.0387  0.4406
  148MOL    H1217946   4.200   3.666   6.686  1.1711 -2.1370  1.2038
  148MOL    H1317947   4.305   3.686   6.974  1.8169 -0.0702 -1.0254
  148MOL    C1417948   4.335   3.507   6.846 -0.6123 -0.8046  0.3876
  148MOL    C1517949   4.361   3.410   6.968 -0.5856  0.2065  0.0292
  148MOL    F1617950   4.400   3.291   6.918  0.4459  0.3956  0.1485
  148MOL    H1717951   4.271   3.453   6.775 -1.4570 -0.3089  0.7624
  148MOL    H1817952   4.435   3.531   6.810 -0.4684  2.1959  2.6352
  148MOL    H1917953   4.264   3.393   7.016 -1.1190  1.5810 -0.5338
  148MOL    C2017954   4.464   3.465   7.062 -0.0459 -0.0627  0.0665
  148MOL    C2117955   4.525   3.376   7.174 -0.1410 -0.1228 -0.4726
  148MOL    F2217956   4.604   3.452   7.240 -0.5072  0.5876 -0.2235
  148MOL    H2317957   4.550   3.502   7.007  0.0175 -0.2235  0.0587
  148MOL    H2417958   4.410   3.536   7.125 -2.9105 -2.1876  0.1408
  148MOL    H2517959   4.584   3.299   7.125 -0.0832  0.1058 -0.7607
  148MOL    C2617960   4.421   3.304   7.267 -0.2685  0.1050  0.0669
  148MOL    C2717961   4.468   3.201   7.376  0.7955 -0.3949  0.7832
  148MOL    F2817962   4.369   3.188   7.462  0.0235  0.1901  0.1336
  148MOL    H2917963   4.366   3.380   7.322  3.2537  1.1326  2.3118
  148MOL    H3017964   4.347   3.259   7.201  1.0322  1.1354 -2.1984
  148MOL    H3117965   4.535   3.263   7.435  0.8887  0.2654 -0.0054
  148MOL    C3217966   4.530   3.077   7.318 -0.0123 -0.0757  0.3740
  148MOL    C3317967   4.609   2.995   7.423  0.4418 -0.3011  0.2166
  148MOL    F3417968   4.706   3.082   7.458  0.0589  0.1852  0.7179
  148MOL    H3517969   4.454   3.011   7.277  0.1471 -0.8880  1.3550
  148MOL    H3617970   4.599   3.098   7.237 -1.1668  0.7825 -0.3870
  148MOL    H3717971   4.651   2.904   7.381  1.7477  1.5762 -2.6208
  148MOL    C3817972   4.535   2.952   7.550  0.1597  1.0434 -0.4918
  148MOL    C3917973   4.428   2.840   7.525 -0.5894  0.2721 -0.2211
  148MOL    F4017974   4.505   2.740   7.477 -0.0917  0.3214 -0.3623
  148MOL    H4117975   4.621   2.918   7.608 -1.2556  0.8784  1.5949
  148MOL    H4217976   4.486   3.041   7.590  0.6546  0.0754  2.3766
  148MOL    H4317977   4.362   2.872   7.444  0.3924  1.9013 -0.4070
  148MOL    C4417978   4.359   2.783   7.647 -0.2731  0.0431 -0.1609
  148MOL    C4517979   4.242   2.867   7.687  0.6465 -0.2772 -0.3421
  148MOL    F4617980   4.144   2.837   7.596 -0.1134 -0.1013  0.2138
  148MOL    H4717981   4.331   2.679   7.628  0.4856  0.0011 -1.0547
  148MOL    H4817982   4.426   2.764   7.731  0.3267  0.6527 -0.5074
  148MOL    H4917983   4.257   2.975   7.687 -0.6696 -0.0587  1.6536
  148MOL    C5017984   4.168   2.831   7.824 -1.3411 -0.6852  0.0013
  148MOL    C5117985   4.229   2.896   7.949 -0.1195  0.3075 -0.2165
  148MOL    F5217986   4.210   3.027   7.945 -0.2031  0.0700  0.1629
  148MOL    H5317987   4.066   2.870   7.819 -0.7739  0.7485 -1.0732
  148MOL    H5417988   4.170   2.722   7.826  3.9274 -0.6749  0.6557
  148MOL    H5517989   4.337   2.882   7.943 -0.4882 -4.2112  1.6374
  148MOL    C5617990   4.182   2.829   0.072  0.7254  0.0984  0.3093
  148MOL    C5717991   4.248   2.879   0.210 -0.0079 -0.2465 -0.0485
  148MOL    F5817992   4.217   3.009   0.220 -0.2474  0.4922 -0.2946
  148MOL    H5917993   4.073   2.836   0.067  0.6936  0.1637  1.0497
  148MOL    H6017994   4.201   2.722   0.077  0.0421 -0.0553 -0.2537
  148MOL    H6117995   4.357   2.876   0.213 -0.0114 -0.5450 -0.1938
  148MOL    C6217996   4.178   2.803   0.328  0.3753  0.3854  0.4467
  148MOL    C6317997   4.254   2.809   0.467 -0.2039  0.2891  0.4011
  148MOL    F6417998   4.172   2.783   0.566  0.0476  0.6778  0.1241
  148MOL    H6517999   4.077   2.844   0.331 -0.9472 -2.7599  0.0670
  148MOL    H6618000   4.158   2.698   0.306 -0.2121  0.4002  0.9055
  148MOL    H6718001   4.273   2.914   0.492 -3.2345  0.8246  0.7618
  148MOL    C6818002   4.374   2.716   0.482  0.2131  0.2778 -0.3714
  148MOL    C6918003   4.456   2.727   0.613  0.5885 -0.1558  0.5583
  148MOL    F7018004   4.530   2.620   0.629 -0.0780  0.1833  0.7179
  148MOL    H7118005   4.341   2.612   0.479  0.7815  0.0797  0.0326
  148MOL    H7218006   4.436   2.720   0.393  1.9696 -1.2325  0.7444
  148MOL    H7318007   4.392   2.721   0.701 -1.2538 -0.5705 -0.7707
  148MOL    C7418008   4.535   2.857   0.613 -0.0211  0.6421  0.4847
  148MOL    C7518009   4.618   2.888   0.492  0.1364 -0.1483  0.4263
  148MOL    F7618010   4.543   2.933   0.391 -0.0627 -0.2332  0.4949
  148MOL    H7718011   4.460   2.937   0.611 -2.0807 -1.2766 -0.3927
  148MOL    H7818012   4.600   2.866   0.700 -0.2770  0.1776  0.7273
  148MOL    H7918013   4.654   2.790   0.463 -0.1758  0.0405 -0.6200
  148MOL    C8018014   4.748   2.966   0.526 -0.4343  0.8230  0.2198
  148MOL    C8118015   4.821   3.030   0.402 -0.9942  0.0013  0.6081
  148MOL    F8218016   4.892   3.127   0.446  0.1613 -0.1444  0.0237
  148MOL    H8318017   4.721   3.052   0.588  0.2293  0.8558  0.4764
  148MOL    H8418018   4.820   2.906   0.582  1.1009  1.5963 -0.8968
  148MOL    H8518019   4.758   3.069   0.322  3.1336  3.4137 -1.1704
  148MOL    C8618020   4.909   2.917   0.330  0.3283 -0.0913 -0.1284
  148MOL    C8718021   4.998   2.955   0.219  0.1822  0.3729 -0.1723
  148MOL    F8818022   5.099   3.020   0.266 -0.0059  0.1142 -0.0398
  148MOL    H8918023   4.968   2.861   0.403 -1.0677  0.9091  1.8093
  148MOL    H9018024   4.838   2.842   0.297  1.2998 -1.2418  0.3708
  148MOL    H9118025   4.956   3.023   0.146 -1.3378 -1.6906 -1.2692
  148MOL    C9218026   5.050   2.832   0.129 -0.2195 -0.0894  0.0637
  148MOL    C9318027   4.947   2.740   0.062  0.2044  0.6619 -0.2045
  148MOL    F9418028   4.887   2.656   0.150  0.2710 -0.4316  0.3638
  148MOL    H9518029   5.092   2.880   0.040 -0.6426 -1.2746 -0.7829
  148MOL    H9618030   5.124   2.773   0.183  0.5849  2.0505  1.3539
  148MOL    H9718031   5.004   2.673   8.001 -1.1839  0.8758 -1.6840
  148MOL    C9818032   4.842   2.826   7.992 -0.2144  0.0961 -0.3647
  148MOL    C9918033   4.781   2.753   7.869 -0.1178 -0.0913 -0.2713
  148MOL   F10018034   4.880   2.735   7.788 -0.5335  0.4074 -0.2012
  148MOL   H10118035   4.767   2.851   0.063  1.6946  1.8915  1.0137
  148MOL   H10218036   4.883   2.921   7.958  0.8151 -0.5920 -1.0635
  148MOL   H10318037   4.726   2.824   7.807  1.1631  1.4148  0.3011
  148MOL   C10418038   4.709   2.620   7.889 -0.1797  0.4975  0.1089
  148MOL   C10518039   4.610   2.628   0.004  0.2741  0.4166 -0.1174
  148MOL   F10618040   4.501   2.688   7.972 -0.2216  0.1383 -0.4108
  148MOL   H10718041   4.648   2.601   7.801 -0.3293  2.6229 -0.2781
  148MOL   H10818042   4.782   2.543   7.912 -0.7824 -0.3928 -0.9176
  148MOL   H10918043   4.645   2.691   0.086  0.4804  1.4343 -0.9841
  148MOL   C11018044   4.585   2.481   0.051 -0.0260 -0.0170 -0.1128
  148MOL   C11118045   4.499   2.479   0.179  0.4962  0.2362 -0.0106
  148MOL   F11218046   4.376   2.532   0.164  0.9305  0.1121 -0.0614
  148MOL   H11318047   4.550   2.423   7.969  0.1559 -1.0451  0.5062
  148MOL   H11418048   4.686   2.449   0.079 -1.0360 -0.7341  2.9604
  148MOL   H11518049   4.550   2.530   0.260  0.8547 -0.0286 -0.0685
  148MOL   C11618050   4.480   2.332   0.239  0.0865  0.2937  0.4500
  148MOL   C11718051   4.407   2.321   0.364  0.1976  0.8551  0.0807
  148MOL   F11818052   4.474   2.370   0.469 -0.0530  0.0831 -0.2056
  148MOL   H11918053   4.432   2.279   0.156  2.8301 -2.9631  0.8188
  148MOL   H12018054   4.574   2.279   0.254 -0.6118 -0.8419  0.9340
  148MOL   H12118055   4.379   2.219   0.389 -0.1311  0.4713 -1.8100
  148MOL   H12218056   4.311   2.373   0.368  0.7127  1.7980  0.1857
  149MOL     C118057   0.931   0.294   2.342 -0.3647 -0.0663  0.0978
  149MOL     C218058   0.977   0.376   2.462 -0.3866 -0.7756 -0.1778
  149MOL     F318059   1.107   0.405   2.446 -0.3248  0.3486  0.3772
  149MOL     H418060   0.834   0.245   2.351 -0.8759  1.0962  0.9672
  149MOL     H518061   1.011   0.222   2.327  0.2739  0.9894 -1.7357
  149MOL     H618062   0.977   0.334   2.562 -1.4787  1.3912  0.7634
  149MOL     H718063   0.920   0.363   2.258  0.2398 -0.0675  0.0190
  149MOL     C818064   0.907   0.512   2.469  0.2461 -0.6625 -0.9960
  149MOL     C918065   0.754   0.513   2.493  0.7456  0.1475 -0.1687
  149MOL    F1018066   0.725   0.433   2.600 -0.2689 -0.6687  0.2877
  149MOL    H1118067   0.957   0.576   2.542  1.3994 -2.4387 -0.1797
  149MOL    H1218068   0.924   0.564   2.375  0.0006 -0.4648 -0.9306
  149MOL    H1318069   0.708   0.467   2.406 -1.2508  0.0971  0.8919
  149MOL    C1418070   0.696   0.656   2.517 -0.3072  0.0182  0.6750
  149MOL    C1518071   0.719   0.747   2.398 -0.7267 -0.1648 -0.3669
  149MOL    F1618072   0.654   0.684   2.296  0.3532 -0.4719 -0.1330
  149MOL    H1718073   0.589   0.652   2.532 -0.0722  0.0059  2.3977
  149MOL    H1818074   0.747   0.690   2.607 -0.6797 -0.6962  1.1607
  149MOL    H1918075   0.824   0.749   2.366 -0.3653  1.2973  0.8463
  149MOL    C2018076   0.659   0.890   2.411  0.2035  0.1120  0.4460
  149MOL    C2118077   0.725   0.968   2.528  0.4207 -0.5730 -0.3134
  149MOL    F2218078   0.849   0.950   2.512 -0.4376 -0.3822 -0.0800
  149MOL    H2318079   0.650   0.943   2.316  1.1593 -1.3396 -0.4650
  149MOL    H2418080   0.557   0.864   2.440 -0.4860  1.0644 -1.0828
  149MOL    H2518081   0.702   0.915   2.620  0.7651 -3.3675 -1.7650
  149MOL    C2618082   0.688   1.116   2.529  0.0161  0.1912  0.3936
  149MOL    C2718083   0.537   1.145   2.541  0.1881 -0.3453  0.3760
  149MOL    F2818084   0.481   1.112   2.654 -0.3575  0.1195 -0.0911
  149MOL    H2918085   0.742   1.176   2.602 -1.8238  0.8719  1.2241
  149MOL    H3018086   0.729   1.157   2.436  0.3156 -1.8055 -0.3760
  149MOL    H3118087   0.477   1.101   2.462  1.1651  2.0680 -1.8050
  149MOL    C3218088   0.505   1.295   2.515 -0.5498  0.6968 -0.3804
  149MOL    C3318089   0.506   1.388   2.636  0.4195  0.5158 -0.6327
  149MOL    F3418090   0.506   1.513   2.592  0.6463  0.0498  0.6011
  149MOL    H3518091   0.582   1.335   2.449  0.7685  0.3623  0.9285
  149MOL    H3618092   0.414   1.309   2.456 -1.9298  0.6047  1.6672
  149MOL    H3718093   0.598   1.371   2.692  1.1887  2.9666 -1.1309
  149MOL    C3818094   0.381   1.375   2.733 -0.3473  0.3694  0.2819
  149MOL    C3918095   0.373   1.482   2.837 -0.7148  0.1131 -0.8487
  149MOL    F4018096   0.264   1.477   2.908  0.1176 -0.0501 -0.1991
  149MOL    H4118097   0.294   1.389   2.668  0.0528 -3.3322 -1.1521
  149MOL    H4218098   0.381   1.278   2.781  1.7211  0.1959 -0.0063
  149MOL    H4318099   0.371   1.583   2.796  1.7581  0.4463 -0.2043
  149MOL    C4418100   0.488   1.486   2.943  0.3872 -0.3763  0.4559
  149MOL    C4518101   0.473   1.590   3.051  0.2822 -0.0136  0.3241
  149MOL    F4618102   0.352   1.589   3.104  0.0435 -0.3650  0.5532
  149MOL    H4718103   0.513   1.387   2.984 -2.0390 -0.9809  0.5734
  149MOL    H4818104   0.578   1.512   2.886 -1.2852 -1.5695 -2.8496
  149MOL    H4918105   0.481   1.689   3.007 -0.2336 -1.0527 -2.2110
  149MOL    C5018106   0.581   1.563   3.159 -0.0592 -0.4451  0.9860
  149MOL    C5118107   0.570   1.657   3.280 -0.4693  0.8813 -0.2849
  149MOL    F5218108   0.675   1.624   3.365  0.8236 -0.0492 -0.1836
  149MOL    H5318109   0.584   1.461   3.198 -0.3511 -0.9108 -0.1782
  149MOL    H5418110   0.680   1.573   3.114 -0.0105 -0.0152  1.1902
  149MOL    H5518111   0.477   1.631   3.330  0.8605 -0.5423  1.5101
  149MOL    C5618112   0.576   1.802   3.243 -0.2808 -0.7434 -0.2363
  149MOL    C5718113   0.617   1.905   3.358  0.2723  0.5050 -0.3179
  149MOL    F5818114   0.599   2.031   3.318  0.4137 -0.0571 -0.0818
  149MOL    H5918115   0.638   1.815   3.154 -0.1565 -1.6119 -0.2817
  149MOL    H6018116   0.479   1.830   3.205 -0.4964 -2.0071 -0.6464
  149MOL    H6118117   0.726   1.902   3.358  0.2802 -0.3012 -2.1833
  149MOL    C6218118   0.553   1.890   3.499  0.2744  0.9320  0.5027
  149MOL    C6318119   0.647   1.929   3.615  0.5354  0.7358  1.4065
  149MOL    F6418120   0.679   2.059   3.607  0.1651  0.5624  0.0137
  149MOL    H6518121   0.459   1.946   3.494  0.7909  1.9464  1.8803
  149MOL    H6618122   0.522   1.786   3.502 -1.4150  1.2920 -2.1402
  149MOL    H6718123   0.743   1.878   3.613  0.2687  0.1761  2.4011
  149MOL    C6818124   0.591   1.892   3.751 -1.0256  0.3506 -0.4480
  149MOL    C6918125   0.616   1.747   3.793  0.0168  0.9180 -0.1888
  149MOL    F7018126   0.739   1.733   3.846 -0.0359  0.3714 -0.2184
  149MOL    H7118127   0.649   1.952   3.821 -0.3799 -0.2399 -0.4616
  149MOL    H7218128   0.488   1.920   3.768 -0.6675  1.4871 -0.1117
  149MOL    H7318129   0.615   1.689   3.701 -2.0638 -1.9708  1.5671
  149MOL    C7418130   0.507   1.693   3.892 -0.3177 -0.7052 -0.3875
  149MOL    C7518131   0.525   1.548   3.937  0.5397  1.0118 -0.2048
  149MOL    F7618132   0.545   1.550   4.066 -0.2548  0.4757  0.0045
  149MOL    H7718133   0.498   1.756   3.980 -0.1481 -1.2426  0.0192
  149MOL    H7818134   0.412   1.712   3.843  0.7604  2.1932 -1.4667
  149MOL    H7918135   0.616   1.499   3.901 -0.7256 -1.2008 -0.4689
  149MOL    C8018136   0.391   1.470   3.900 -0.1122 -0.8517 -0.2762
  149MOL    C8118137   0.357   1.461   3.743  0.3254  0.1141 -0.7378
  149MOL    F8218138   0.323   1.582   3.697  0.3743 -0.2451  0.4378
  149MOL    H8318139   0.390   1.366   3.933 -1.5430 -1.6128 -2.5847
  149MOL    H8418140   0.307   1.521   3.947 -0.4135 -1.0548 -0.5865
  149MOL    H8518141   0.272   1.396   3.727  0.5950 -0.4123 -0.0536
  149MOL    C8618142   0.467   1.406   3.657  0.2833 -0.4988  0.7745
  149MOL    C8718143   0.411   1.316   3.546  0.2896  0.0092 -0.1559
  149MOL    F8818144   0.308   1.381   3.488  0.4842  0.1586  0.3128
  149MOL    H8918145   0.519   1.492   3.613 -1.5679 -0.3485 -1.1824
  149MOL    H9018146   0.538   1.350   3.718  0.6075 -0.8319  0.1068
  149MOL    H9118147   0.374   1.226   3.596 -0.8275  0.9354  0.7361
  149MOL    C9218148   0.514   1.277   3.440 -0.9993  0.1144 -0.8945
  149MOL    C9318149   0.471   1.174   3.339 -1.0129 -0.1787 -0.1193
  149MOL    F9418150   0.392   1.215   3.237  0.3997  0.8148  0.4794
  149MOL    H9518151   0.564   1.365   3.402 -0.3739  0.1646  0.0309
  149MOL    H9618152   0.600   1.240   3.496  1.6834  2.6684 -3.2468
  149MOL    H9718153   0.407   1.106   3.394  0.3476 -0.1960  1.4699
  149MOL    C9818154   0.589   1.089   3.271  0.4192 -0.1951 -1.3112
  149MOL    C9918155   0.680   1.158   3.178  0.5032  0.0961  0.1906
  149MOL   F10018156   0.739   1.264   3.226  0.2964 -0.1702  0.1974
  149MOL   H10118157   0.641   1.040   3.353  2.0211  2.5053 -0.6195
  149MOL   H10218158   0.531   1.017   3.215 -2.1037  0.2258  0.6905
  149MOL   H10318159   0.627   1.205   3.095 -0.4740  0.3907  0.9834
  149MOL   C10418160   0.801   1.071   3.134 -0.0675  0.2341  0.2909
  149MOL   C10518161   0.768   0.934   3.078  0.3764  0.6884 -0.7264
  149MOL   F10618162   0.683   0.954   2.977 -0.1076 -0.5201  0.1033
  149MOL   H10718163   0.859   1.124   3.059 -0.3485  0.4396  0.2201
  149MOL   H10818164   0.870   1.066   3.218  0.1028 -0.1058  0.1351
  149MOL   H10918165   0.700   0.888   3.150 -0.4055  0.6513 -1.4758
  149MOL   C11018166   0.889   0.839   3.045 -0.3056 -1.0310  0.3802
  149MOL   C11118167   0.854   0.726   2.956  0.0427  0.2244  0.8496
  149MOL   F11218168   0.969   0.671   2.929 -0.4042  0.2047  0.3386
  149MOL   H11318169   0.969   0.907   3.015 -1.5976  0.4339  0.1787
  149MOL   H11418170   0.919   0.812   3.146  1.1140  0.7092  0.4504
  149MOL   H11518171   0.816   0.751   2.857 -1.3264 -1.5267  0.9051
  149MOL   C11618172   0.764   0.621   3.021  0.3180  0.0647  0.2187
  149MOL   C11718173   0.757   0.505   2.924  0.1432  0.6548 -0.1366
  149MOL   F11818174   0.630   0.463   2.916 -0.0976 -0.4107 -0.2199
  149MOL   H11918175   0.813   0.590   3.113  0.8522 -0.5477 -0.2659
  149MOL   H12018176   0.665   0.657   3.050  0.3326  1.2704 -1.1936
  149MOL   H12118177   0.828   0.432   2.964 -1.7587 -1.9325 -1.4159
  149MOL   H12218178   0.786   0.531   2.823 -1.0467  1.5212 -0.2579
  150MOL     C118179   4.671   7.748   1.857 -0.0662  0.0229  0.3507
  150MOL     C218180   4.743   7.619   1.819  0.0348  1.0607 -0.8460
  150MOL     F318181   4.855   7.637   1.751 -0.3365  0.2989  0.6022
  150MOL     H418182   4.588   7.731   1.926  0.4792  1.0732  1.2798
  150MOL     H518183   4.638   7.807   1.772 -0.3210 -1.3074 -0.4941
  150MOL     H618184   4.681   7.565   1.747  0.3814  0.1314 -0.4573
  150MOL     H718185   4.729   7.813   1.922  1.4639 -0.3904 -0.5768
  150MOL     C818186   4.773   7.520   1.938  0.1559 -0.5961  0.1085
  150MOL     C918187   4.882   7.566   2.024  0.6448 -0.3072 -0.6263
  150MOL    F1018188   4.851   7.686   2.074  0.4395 -0.4108  0.4241
  150MOL    H1118189   4.683   7.517   1.999 -0.6697  1.7567 -0.9448
  150MOL    H1218190   4.790   7.418   1.902 -1.4374 -0.1463 -2.0090
  150MOL    H1318191   4.976   7.578   1.969  0.2651 -0.0628 -1.2177
  150MOL    C1418192   4.905   7.475   2.147 -0.2494 -0.0025  0.8802
  150MOL    C1518193   4.952   7.328   2.116 -0.0841 -0.1469  0.0698
  150MOL    F1618194   5.061   7.334   2.043  0.6703  0.2016  0.0242
  150MOL    H1718195   4.986   7.525   2.199 -0.3076  1.4483 -0.3977
  150MOL    H1818196   4.810   7.472   2.201 -0.4332  0.8926  0.6171
  150MOL    H1918197   4.872   7.281   2.059  0.9666 -0.7162 -0.9666
  150MOL    C2018198   4.992   7.250   2.242 -0.3914 -0.8220  0.2173
  150MOL    C2118199   5.021   7.099   2.224 -0.0319  0.0585  0.6551
  150MOL    F2218200   5.094   7.078   2.119 -0.5938  0.0232  0.1686
  150MOL    H2318201   5.068   7.311   2.290 -1.2939 -0.0825  0.7319
  150MOL    H2418202   4.919   7.257   2.322  0.7225 -0.0657  1.1776
  150MOL    H2518203   4.928   7.048   2.197 -1.7331  1.4519  3.5616
  150MOL    C2618204   5.094   7.031   2.339  0.2174  0.1671 -0.2578
  150MOL    C2718205   5.111   6.876   2.307 -0.1656 -0.4752  0.0031
  150MOL    F2818206   5.214   6.835   2.386  0.3257 -0.1718  0.3730
  150MOL    H2918207   5.191   7.078   2.359  0.6108 -0.9380  0.4885
  150MOL    H3018208   5.029   7.049   2.424 -1.2972 -0.6161 -1.2239
  150MOL    H3118209   5.146   6.862   2.205 -0.0264 -1.0388  0.1264
  150MOL    C3218210   4.985   6.807   2.346 -0.6385  0.6352 -0.2931
  150MOL    C3318211   4.985   6.655   2.316 -0.1112 -0.1275  0.3139
  150MOL    F3418212   5.077   6.592   2.382  0.1370 -0.2960 -0.1550
  150MOL    H3518213   4.967   6.833   2.451  3.2809  2.6024 -0.0130
  150MOL    H3618214   4.904   6.855   2.290 -1.1140 -1.7473 -1.6905
  150MOL    H3718215   5.014   6.647   2.212  1.0996  2.7571  0.3779
  150MOL    C3818216   4.852   6.600   2.348 -0.4162 -0.4082  1.0104
  150MOL    C3918217   4.836   6.452   2.299 -0.6927  0.2359  0.5289
  150MOL    F4018218   4.949   6.380   2.326 -0.0802 -0.3054  0.2330
  150MOL    H4118219   4.841   6.602   2.457  1.0145  1.9858  1.1596
  150MOL    H4218220   4.765   6.650   2.304 -1.6555 -1.3156  2.3669
  150MOL    H4318221   4.844   6.444   2.191 -0.6422  2.6297  0.3377
  150MOL    C4418222   4.718   6.374   2.346  0.2456 -0.3013 -0.6131
  150MOL    C4518223   4.580   6.442   2.304 -1.0084 -0.5229  0.0701
  150MOL    F4618224   4.574   6.473   2.174  0.2013  0.4224  0.4850
  150MOL    H4718225   4.726   6.272   2.307  0.0663  0.1665 -1.9053
  150MOL    H4818226   4.724   6.364   2.454  0.0955  1.8840 -0.3777
  150MOL    H4918227   4.570   6.534   2.362 -0.8076 -1.1395  1.0896
  150MOL    C5018228   4.448   6.368   2.328 -0.9497  0.1008  0.1654
  150MOL    C5118229   4.424   6.310   2.469 -0.0510  0.8826  0.5661
  150MOL    F5218230   4.439   6.407   2.554  0.4081 -0.4189 -0.4596
  150MOL    H5318231   4.367   6.435   2.299 -2.2215 -0.8218  1.4885
  150MOL    H5418232   4.440   6.295   2.248  1.9021 -1.0133  0.8510
  150MOL    H5518233   4.496   6.229   2.481 -0.9282  0.0640  0.4633
  150MOL    C5618234   4.291   6.244   2.473 -0.4046 -0.3989 -0.0410
  150MOL    C5718235   4.251   6.170   2.604  0.3721  0.0717 -0.1607
  150MOL    F5818236   4.351   6.090   2.637 -0.6093 -0.0707 -0.0930
  150MOL    H5918237   4.226   6.329   2.450 -0.4970 -0.3623  0.3418
  150MOL    H6018238   4.290   6.171   2.393  0.7930 -0.2443 -0.1977
  150MOL    H6118239   4.162   6.110   2.583  0.1285  0.9535 -1.7371
  150MOL    C6218240   4.226   6.267   2.721 -0.3743 -0.1481  0.5354
  150MOL    C6318241   4.138   6.203   2.834 -0.1563  0.0294 -0.2684
  150MOL    F6418242   4.196   6.103   2.891 -0.4594 -0.1316  0.0155
  150MOL    H6518243   4.320   6.300   2.764 -0.0422 -1.0874  0.5383
  150MOL    H6618244   4.174   6.353   2.677 -1.7819 -1.5272 -0.6042
  150MOL    H6718245   4.044   6.154   2.807 -1.0886  1.2742  0.6239
  150MOL    C6818246   4.111   6.288   2.960  0.9548 -0.2538  0.0676
  150MOL    C6918247   4.047   6.425   2.934 -0.5829 -0.1457 -0.6159
  150MOL    F7018248   3.928   6.397   2.892  0.3571  0.4482 -0.0204
  150MOL    H7118249   4.040   6.240   3.027 -0.0008  0.5644 -0.3453
  150MOL    H7218250   4.195   6.313   3.025 -0.7765 -2.4844  3.2873
  150MOL    H7318251   4.099   6.490   2.864  0.0119  1.1499  0.9755
  150MOL    C7418252   4.014   6.515   3.060 -0.1823 -0.0971  0.4629
  150MOL    C7518253   4.130   6.574   3.137 -0.4717 -0.1890  0.3773
  150MOL    F7618254   4.176   6.680   3.078  0.2847 -0.6616  0.4339
  150MOL    H7718255   3.942   6.594   3.041 -1.1375 -1.3043 -1.0726
  150MOL    H7818256   3.969   6.446   3.132  0.1403 -0.8746 -0.0755
  150MOL    H7918257   4.213   6.504   3.131  0.5800  1.1567 -0.9627
  150MOL    C8018258   4.105   6.620   3.276 -0.2268 -0.0470 -0.7424
  150MOL    C8118259   4.226   6.634   3.367 -0.0377 -0.4864  0.1254
  150MOL    F8218260   4.287   6.516   3.371  0.2666  0.2452  0.0605
  150MOL    H8318261   4.048   6.712   3.278  1.2257  0.8509  2.6261
  150MOL    H8418262   4.036   6.548   3.319  1.3859 -1.1185  0.1261
  150MOL    H8518263   4.199   6.644   3.472 -0.7899 -0.5349 -0.0601
  150MOL    C8618264   4.337   6.744   3.333  0.3378 -0.3199 -0.1590
  150MOL    C8718265   4.457   6.746   3.434 -0.1131 -0.5557 -0.7105
  150MOL    F8818266   4.524   6.853   3.399 -0.4719  0.1673  0.0853
  150MOL    H8918267   4.361   6.745   3.226  0.7164  1.0532 -0.0822
  150MOL    H9018268   4.288   6.841   3.329 -0.1003 -0.5485 -0.3611
  150MOL    H9118269   4.517   6.655   3.429 -0.1228 -0.7178  1.6902
  150MOL    C9218270   4.418   6.767   3.580 -0.3168 -0.2180  1.1774
  150MOL    C9318271   4.526   6.817   3.673  0.1335  0.5211  0.4682
  150MOL    F9418272   4.470   6.871   3.781 -0.2175  0.2603 -0.5032
  150MOL    H9518273   4.346   6.848   3.567 -0.6661 -0.3864  2.0387
  150MOL    H9618274   4.368   6.683   3.627  0.1989 -0.8480  0.6061
  150MOL    H9718275   4.585   6.890   3.620 -3.1564  0.3373 -3.6918
  150MOL    C9818276   4.612   6.711   3.736  0.3923  0.0629 -0.1195
  150MOL    C9918277   4.555   6.585   3.806 -0.5677  0.6987  0.5638
  150MOL   F10018278   4.484   6.516   3.717  0.6423 -0.0828 -0.1190
  150MOL   H10118279   4.682   6.678   3.659  0.4723 -0.3367  0.1219
  150MOL   H10218280   4.663   6.770   3.812 -3.3117  3.6697 -0.2717
  150MOL   H10318281   4.485   6.619   3.884  0.6115 -1.1623  2.4778
  150MOL   C10418282   4.666   6.485   3.858 -0.3531 -0.2091  0.3232
  150MOL   C10518283   4.616   6.371   3.951  0.4556  0.3020  0.2364
  150MOL   F10618284   4.485   6.352   3.938 -0.1154  0.1677 -0.0374
  150MOL   H10718285   4.713   6.439   3.772 -0.1934 -0.6465  0.6471
  150MOL   H10818286   4.742   6.536   3.918 -2.1136  0.3451  2.1618
  150MOL   H10918287   4.627   6.398   4.056 -1.2222 -3.6977  1.5372
  150MOL   C11018288   4.690   6.247   3.935  0.7409  0.1851  0.4124
  150MOL   C11118289   4.843   6.256   3.961 -0.0464  0.3691  0.3309
  150MOL   F11218290   4.863   6.318   4.079  0.2288  0.0140 -0.3783
  150MOL   H11318291   4.652   6.170   4.002 -0.5610  2.1781  2.0276
  150MOL   H11418292   4.671   6.206   3.835 -1.0192  0.8595  0.4655
  150MOL   H11518293   4.904   6.323   3.901  0.4458 -0.5376 -0.2093
  150MOL   C11618294   4.907   6.113   3.962  1.1659  0.0842  0.3116
  150MOL   C11718295   5.053   6.089   4.016  0.4007  0.2229 -0.0490
  150MOL   F11818296   5.094   5.961   4.020  0.0539  0.6717  0.5921
  150MOL   H11918297   4.842   6.039   4.008  1.4902 -2.0953 -2.6164
  150MOL   H12018298   4.905   6.073   3.861  3.9881 -2.2037  1.0903
  150MOL   H12118299   5.052   6.120   4.120  0.3511 -0.2035  0.0763
  150MOL   H12218300   5.123   6.151   3.959 -1.1420  0.2654 -1.9750
  151MOL     C118301   0.189   1.897   6.809  0.7222 -0.1886 -0.7996
  151MOL     C218302   0.099   1.769   6.785  0.8605  0.3969  0.4091
  151MOL     F318303   0.009   1.749   6.887  0.2695 -0.2623 -0.1208
  151MOL     H418304   0.267   1.897   6.732  1.0073 -0.3873 -0.5170
  151MOL     H518305   0.254   1.888   6.896  0.1838 -1.6231 -0.5308
  151MOL     H618306   0.154   1.676   6.798 -1.1114 -1.1094 -1.5962
  151MOL     H718307   0.130   1.988   6.820  1.2168  0.1080 -0.5275
  151MOL     C818308   0.026   1.772   6.648  0.2892  0.3144 -0.0388
  151MOL     C918309   7.922   1.664   6.637 -0.6710  0.0839 -0.0237
  151MOL    F1018310   7.863   1.685   6.514  0.0272 -0.0056  0.0986
  151MOL    H1118311   7.982   1.868   6.624  0.8622  0.3502 -1.0569
  151MOL    H1218312   0.102   1.756   6.572  1.6176  0.7715  1.1644
  151MOL    H1318313   7.851   1.688   6.717  0.9423  2.0597  0.8553
  151MOL    C1418314   7.978   1.520   6.647  0.2499 -0.1317 -0.1031
  151MOL    C1518315   7.871   1.414   6.619  0.1375  0.7467 -0.9526
  151MOL    F1618316   7.848   1.431   6.489  0.0485 -0.0423  0.3109
  151MOL    H1718317   0.057   1.497   6.580  1.7330 -3.1642  2.6302
  151MOL    H1818318   0.016   1.502   6.746  0.6472 -2.2961 -0.6486
  151MOL    H1918319   7.775   1.441   6.664  0.3249  1.6857 -1.1103
  151MOL    C2018320   7.924   1.271   6.644  0.4911 -0.1294  0.0369
  151MOL    C2118321   7.810   1.169   6.632 -0.5805  0.6381  0.4571
  151MOL    F2218322   7.878   1.053   6.632 -0.3687 -0.0806 -0.1058
  151MOL    H2318323   0.007   1.249   6.580 -0.7789 -0.2206 -1.6894
  151MOL    H2418324   7.979   1.252   6.736 -0.4971 -0.5390  0.5552
  151MOL    H2518325   7.759   1.172   6.536  1.8675 -0.1053 -0.8864
  151MOL    C2618326   7.711   1.171   6.747  0.4097 -0.4437  0.1352
  151MOL    C2718327   7.617   1.051   6.772 -0.2376  0.6062 -1.1254
  151MOL    F2818328   7.548   1.077   6.879  0.2340  0.2046 -0.0168
  151MOL    H2918329   7.768   1.176   6.839  0.1868  0.6949  0.2147
  151MOL    H3018330   7.646   1.259   6.741  0.1060 -0.8477 -3.9772
  151MOL    H3118331   7.680   0.966   6.800 -0.6360  0.5365 -0.4348
  151MOL    C3218332   7.518   1.009   6.660 -1.0560 -0.9654  0.3569
  151MOL    C3318333   7.449   0.879   6.690  0.2281  0.1543  0.1839
  151MOL    F3418334   7.346   0.881   6.612  0.0866 -0.3023 -0.1333
  151MOL    H3518335   7.446   1.091   6.655  0.0092 -0.0190  0.3981
  151MOL    H3618336   7.570   1.008   6.564  0.4413  1.8774  1.0763
  151MOL    H3718337   7.413   0.878   6.793  2.3498 -0.8354  0.9348
  151MOL    C3818338   7.529   0.757   6.647 -0.1133 -0.2483  0.5961
  151MOL    C3918339   7.456   0.619   6.678 -0.6344 -0.0501 -0.1589
  151MOL    F4018340   7.536   0.529   6.622  0.3370 -0.1738  0.2516
  151MOL    H4118341   7.555   0.761   6.541 -1.9758 -0.1178  0.1287
  151MOL    H4218342   7.627   0.768   6.693 -0.3190 -0.0917  1.0019
  151MOL    H4318343   7.370   0.602   6.612  0.4241 -0.9711 -1.3189
  151MOL    C4418344   7.429   0.569   6.820  0.4539 -0.8509  0.5177
  151MOL    C4518345   7.536   0.559   6.927  0.0601 -0.4443 -0.3927
  151MOL    F4618346   7.470   0.551   7.044  0.3896 -0.2463 -0.3683
  151MOL    H4718347   7.341   0.623   6.852 -0.5117 -1.5782 -0.8297
  151MOL    H4818348   7.394   0.466   6.810  0.9789 -0.9675 -0.2497
  151MOL    H4918349   7.610   0.640   6.934 -0.3962 -0.0219 -0.4583
  151MOL    C5018350   7.624   0.428   6.919 -1.2559  0.4920 -0.1685
  151MOL    C5118351   7.748   0.415   7.007 -0.0168  0.3100  0.4095
  151MOL    F5218352   7.832   0.498   6.952 -0.4558  0.1388  0.4746
  151MOL    H5318353   7.550   0.354   6.949 -0.9092  0.6488  1.0928
  151MOL    H5418354   7.641   0.407   6.813 -1.1931 -3.0718  0.4792
  151MOL    H5518355   7.789   0.315   6.997 -0.2532  0.1796  0.7517
  151MOL    C5618356   7.737   0.465   7.149 -1.1288 -0.5887 -0.4880
  151MOL    C5718357   7.655   0.371   7.237  0.3872 -0.2804 -0.4580
  151MOL    F5818358   7.665   0.242   7.208 -0.2477 -0.2794 -0.5448
  151MOL    H5918359   7.837   0.468   7.192 -1.5732  0.9031  0.5009
  151MOL    H6018360   7.716   0.571   7.166  1.2108 -0.0454 -0.8111
  151MOL    H6118361   7.554   0.405   7.215  0.9509  0.1750 -2.4623
  151MOL    C6218362   7.678   0.385   7.393  0.4711  0.0886 -0.2602
  151MOL    C6318363   7.582   0.294   7.482  0.0966  0.2363 -0.3346
  151MOL    F6418364   7.456   0.318   7.456  0.3325 -0.0314  0.3147
  151MOL    H6518365   7.783   0.356   7.401  1.1628  2.5062 -0.0339
  151MOL    H6618366   7.658   0.490   7.414 -1.5664 -0.2185 -0.5845
  151MOL    H6718367   7.587   0.330   7.585  0.2852  0.2251 -0.3413
  151MOL    C6818368   7.623   0.152   7.494  0.3317 -0.0061 -0.0024
  151MOL    C6918369   7.568   0.076   7.617  0.3918 -0.9283  0.5594
  151MOL    F7018370   7.602   0.127   7.740  0.1248 -0.3638  0.5182
  151MOL    H7118371   7.598   0.098   7.403 -0.0191  0.3033 -0.0937
  151MOL    H7218372   7.730   0.148   7.510  0.2640 -1.0591  0.2336
  151MOL    H7318373   7.627   7.988   7.609  0.8939 -0.7194  1.8818
  151MOL    C7418374   7.412   0.037   7.620  0.0656 -0.2737  0.3731
  151MOL    C7518375   7.371   7.953   7.497  0.3010 -0.3413 -0.0404
  151MOL    F7618376   7.423   7.835   7.490 -0.3648 -0.1896 -0.2975
  151MOL    H7718377   7.392   7.983   7.711  1.4453  0.9904  1.4817
  151MOL    H7818378   7.351   0.126   7.605 -3.5260 -2.9525 -2.1235
  151MOL    H7918379   7.399   0.011   7.411 -1.4698  1.4400  0.6377
  151MOL    C8018380   7.220   7.924   7.483 -0.4421 -0.1958 -0.5135
  151MOL    C8118381   7.123   0.038   7.486  0.0558  1.0785  0.3308
  151MOL    F8218382   7.153   0.132   7.401  0.0898  0.2288 -0.4212
  151MOL    H8318383   7.212   7.878   7.385 -3.8144 -1.7481  0.4190
  151MOL    H8418384   7.191   7.843   7.550  2.3020 -2.2071 -1.6697
  151MOL    H8518385   7.112   0.095   7.578 -1.6846  2.6027 -0.7782
  151MOL    C8618386   6.980   7.997   7.458  0.2726  0.1061 -0.2527
  151MOL    C8718387   6.873   0.102   7.471  0.6238  0.3617  0.4073
  151MOL    F8818388   6.876   0.195   7.378  0.1542  0.0221  0.5130
  151MOL    H8918389   6.975   7.957   7.356 -4.2280 -0.1111 -0.0364
  151MOL    H9018390   6.955   7.917   7.528  0.7177  0.7241  0.6162
  151MOL    H9118391   6.886   0.149   7.569  0.6623  1.0408  0.0796
  151MOL    C9218392   6.734   0.045   7.443  0.0505 -0.0318 -0.1048
  151MOL    C9318393   6.607   0.118   7.469 -0.4303 -0.0892 -0.3579
  151MOL    F9418394   6.584   0.124   7.602  0.2619 -0.0676  0.7719
  151MOL    H9518395   6.734   0.004   7.342  2.1032 -2.2088  0.7256
  151MOL    H9618396   6.722   7.963   7.511  0.7052 -0.4960 -0.5653
  151MOL    H9718397   6.520   0.064   7.433 -1.4344  0.1022  1.6812
  151MOL    C9818398   6.589   0.259   7.407 -0.4203  0.5754  0.0070
  151MOL    C9918399   6.573   0.251   7.258 -0.2747 -0.3931  0.0848
  151MOL   F10018400   6.458   0.202   7.213  0.2532  0.5957 -0.0445
  151MOL   H10118401   6.497   0.307   7.439 -2.5211 -1.5347 -2.6006
  151MOL   H10218402   6.674   0.317   7.442  1.2272 -2.1515  0.6968
  151MOL   H10318403   6.659   0.193   7.223 -0.8278 -0.9198 -0.4088
  151MOL   C10418404   6.603   0.388   7.202 -0.7336 -0.0210 -0.3005
  151MOL   C10518405   6.582   0.407   7.052 -0.4921 -0.3819  0.7690
  151MOL   F10618406   6.587   0.533   7.026 -0.3489  0.5214  0.0514
  151MOL   H10718407   6.547   0.458   7.265  0.1667  0.4834 -0.0467
  151MOL   H10818408   6.707   0.420   7.212 -0.7473 -0.1489  0.2781
  151MOL   H10918409   6.476   0.392   7.031 -0.6418  0.5793  0.8208
  151MOL   C11018410   6.664   0.331   6.954  0.0044 -0.1233  0.0306
  151MOL   C11118411   6.650   0.373   6.802  0.3448  0.1916  0.0968
  151MOL   F11218412   6.743   0.295   6.738  0.1692  0.4876  0.2548
  151MOL   H11318413   6.759   0.317   7.006  0.6853  0.2949 -1.0896
  151MOL   H11418414   6.624   0.229   6.958 -0.9687  0.3045  1.4213
  151MOL   H11518415   6.692   0.473   6.789  0.6751  0.0301 -0.1038
  151MOL   C11618416   6.521   0.347   6.729  0.1354  0.0640  0.3702
  151MOL   C11718417   6.530   0.380   6.580 -0.0821 -0.3144  0.4339
  151MOL   F11818418   6.546   0.505   6.557 -0.2356 -0.0850 -0.1294
  151MOL   H11918419   6.482   0.245   6.728 -0.0265  0.1205  0.8876
  151MOL   H12018420   6.444   0.406   6.778 -0.7458 -1.5720  0.9701
  151MOL   H12118421   6.442   0.344   6.527 -0.1091 -1.1006  1.0058
  151MOL   H12218422   6.612   0.337   6.523 -0.9576  0.9920 -1.8697
  152MOL     C118423   4.110   6.885   1.407  0.2172  0.3692  0.0172
  152MOL     C218424   4.125   6.771   1.501 -0.1160  0.3649 -0.6897
  152MOL     F318425   4.242   6.782   1.573 -0.2837 -0.0195  0.1661
  152MOL     H418426   4.180   6.886   1.323  0.4177  1.7004  0.1942
  152MOL     H518427   4.131   6.971   1.470  0.0924  0.7052 -0.3995
  152MOL     H618428   4.137   6.681   1.442 -0.7152  0.3971 -0.8649
  152MOL     H718429   4.010   6.888   1.365  0.5882 -1.6138 -1.0620
  152MOL     C818430   4.000   6.753   1.589 -0.3537  0.2381 -0.8176
  152MOL     C918431   3.893   6.652   1.539 -0.4937 -0.0278 -0.4893
  152MOL    F1018432   3.956   6.538   1.504 -0.3238  0.1841  0.4182
  152MOL    H1118433   4.042   6.718   1.683 -0.9565 -0.1391 -0.6856
  152MOL    H1218434   3.968   6.852   1.621 -0.3027 -0.5437  1.8015
  152MOL    H1318435   3.856   6.685   1.442  1.4597  1.1037 -0.8797
  152MOL    C1418436   3.784   6.630   1.645  0.5552 -0.5799 -0.0213
  152MOL    C1518437   3.658   6.538   1.616 -0.2536  0.2583  0.2195
  152MOL    F1618438   3.712   6.417   1.584  0.0351  0.2434 -0.3076
  152MOL    H1718439   3.836   6.593   1.734  0.3647  0.3138  0.4642
  152MOL    H1818440   3.745   6.727   1.676  2.1571  0.0037  0.2503
  152MOL    H1918441   3.613   6.573   1.524 -0.5055 -1.1981 -0.2192
  152MOL    C2018442   3.554   6.513   1.723 -0.1844  0.6267  0.4102
  152MOL    C2118443   3.609   6.476   1.860  0.2172 -0.3490 -0.2366
  152MOL    F2218444   3.628   6.581   1.938  0.2155  0.3719 -0.3421
  152MOL    H2318445   3.509   6.612   1.736  0.4666  0.7708  1.6040
  152MOL    H2418446   3.477   6.450   1.677 -2.4611  3.6442 -0.0937
  152MOL    H2518447   3.703   6.426   1.836  1.0362 -0.2096  2.4319
  152MOL    C2618448   3.522   6.376   1.929 -1.1794 -0.3246 -0.3687
  152MOL    C2718449   3.582   6.301   2.048  0.3221  0.2158  0.1928
  152MOL    F2818450   3.615   6.394   2.137 -0.5257  0.0786  0.2726
  152MOL    H2918451   3.421   6.405   1.960  0.0952  3.4124  0.5208
  152MOL    H3018452   3.519   6.299   1.852  0.2748 -0.8543  0.0935
  152MOL    H3118453   3.671   6.250   2.012 -1.3953 -2.3399 -0.5926
  152MOL    C3218454   3.478   6.208   2.121 -0.4267  0.2265  0.2021
  152MOL    C3318455   3.404   6.099   2.038 -0.5137 -0.2346  0.1914
  152MOL    F3418456   3.497   6.008   2.011 -0.4515  0.7486 -0.1559
  152MOL    H3518457   3.537   6.182   2.209  0.4067  1.7813  0.1260
  152MOL    H3618458   3.406   6.282   2.155  1.2843  2.4606 -0.8884
  152MOL    H3718459   3.359   6.138   1.947 -1.1513 -0.5353  0.3756
  152MOL    C3818460   3.305   6.021   2.124  0.2690  0.5899  0.2584
  152MOL    C3918461   3.198   6.107   2.187  0.9858  0.3318 -0.0291
  152MOL    F4018462   3.130   6.165   2.091  0.4614  0.2969 -0.3611
  152MOL    H4118463   3.264   5.950   2.052  1.6080  0.3913 -0.3086
  152MOL    H4218464   3.354   5.957   2.197 -1.0736 -2.1213 -1.1314
  152MOL    H4318465   3.243   6.180   2.255  0.9428  1.0300 -0.7520
  152MOL    C4418466   3.089   6.039   2.273  0.2272 -0.2148 -0.2108
  152MOL    C4518467   3.142   5.963   2.396 -0.2881  0.0982 -0.4755
  152MOL    F4618468   3.168   6.059   2.485 -0.0236 -0.2578  0.4390
  152MOL    H4718469   3.012   6.112   2.299  1.2670  0.2438  1.6836
  152MOL    H4818470   3.031   5.965   2.218  2.6121 -1.2758 -1.3891
  152MOL    H4918471   3.235   5.914   2.368  1.1693  1.7041  1.3910
  152MOL    C5018472   3.038   5.862   2.452  0.0890  0.9193  0.5628
  152MOL    C5118473   3.108   5.772   2.557 -0.1908  0.2153  0.3019
  152MOL    F5218474   3.012   5.710   2.633 -0.2339 -0.2292 -0.1007
  152MOL    H5318475   2.961   5.925   2.495 -0.2271 -0.6125  2.2825
  152MOL    H5418476   2.994   5.798   2.375  1.5271  1.2398 -0.5637
  152MOL    H5518477   3.146   5.840   2.634 -0.0046  0.0080  0.3902
  152MOL    C5618478   3.215   5.675   2.505 -0.0385  0.1531 -0.3419
  152MOL    C5718479   3.293   5.590   2.607 -0.2046 -0.6842  0.1540
  152MOL    F5818480   3.208   5.489   2.633 -0.3253 -0.4401  0.6939
  152MOL    H5918481   3.163   5.601   2.445 -0.0976  0.0343 -0.1450
  152MOL    H6018482   3.274   5.732   2.433 -2.0843  0.0321 -2.1577
  152MOL    H6118483   3.291   5.652   2.697  1.9808 -1.2040  0.5975
  152MOL    C6218484   3.428   5.523   2.560  0.3402 -0.3321  0.5198
  152MOL    C6318485   3.499   5.457   2.681 -1.1526 -0.1901  0.3685
  152MOL    F6418486   3.591   5.376   2.631 -0.5088 -0.1193  0.1963
  152MOL    H6518487   3.409   5.447   2.484  0.1595  1.6258 -1.4197
  152MOL    H6618488   3.491   5.592   2.504 -0.7055 -0.5717 -1.0055
  152MOL    H6718489   3.441   5.375   2.725  0.8585 -2.7516 -1.5893
  152MOL    C6818490   3.556   5.548   2.793  0.4376  0.1112  0.7349
  152MOL    C6918491   3.635   5.473   2.896 -0.3565 -0.3125  0.3527
  152MOL    F7018492   3.704   5.564   2.967 -0.0200  0.8019  0.3120
  152MOL    H7118493   3.629   5.615   2.749  0.6349 -1.0771 -0.7864
  152MOL    H7218494   3.475   5.598   2.845 -1.6121  0.4045 -2.6429
  152MOL    H7318495   3.712   5.412   2.848 -3.5467 -3.8524 -0.4667
  152MOL    C7418496   3.554   5.374   2.995  0.6154 -0.2552 -0.3791
  152MOL    C7518497   3.646   5.307   3.102  0.1053  0.2980 -0.4313
  152MOL    F7618498   3.575   5.261   3.203 -0.0739 -0.4371  0.4079
  152MOL    H7718499   3.477   5.428   3.050 -0.1512 -2.5592  0.8833
  152MOL    H7818500   3.508   5.297   2.934 -1.1232 -1.1192  1.9461
  152MOL    H7918501   3.702   5.384   3.154 -0.9426  1.2227 -0.6614
  152MOL    C8018502   3.720   5.179   3.049 -0.0230 -0.6145  0.1837
  152MOL    C8118503   3.822   5.118   3.148 -0.1739 -0.1661 -0.0524
  152MOL    F8218504   3.889   5.020   3.083 -0.0436  0.0821  0.2798
  152MOL    H8318505   3.649   5.105   3.012  1.7064 -1.7538 -0.8923
  152MOL    H8418506   3.778   5.215   2.964 -2.2977  0.4692 -0.9586
  152MOL    H8518507   3.758   5.069   3.221  0.2069 -0.2047  0.2556
  152MOL    C8618508   3.930   5.203   3.221  0.3423 -0.2688 -0.0470
  152MOL    C8718509   4.036   5.255   3.123 -0.2901  0.1606  0.1070
  152MOL    F8818510   3.981   5.333   3.034  0.7751  0.5070 -0.7361
  152MOL    H8918511   3.884   5.288   3.271  1.0917  1.2245 -1.8787
  152MOL    H9018512   3.981   5.153   3.304 -0.4261 -0.9870  0.0033
  152MOL    H9118513   4.083   5.174   3.067  0.9588  0.3033  0.9237
  152MOL    C9218514   4.145   5.347   3.184  0.5285  0.1337  0.7239
  152MOL    C9318515   4.251   5.273   3.268 -0.3943 -0.4635 -0.0577
  152MOL    F9418516   4.317   5.186   3.188  0.1968  0.5266  0.4646
  152MOL    H9518517   4.198   5.398   3.103 -0.1719 -0.7797 -0.3215
  152MOL    H9618518   4.101   5.429   3.242  0.1983 -0.3204  1.1148
  152MOL    H9718519   4.205   5.216   3.350 -0.4795  0.3969  0.5068
  152MOL    C9818520   4.359   5.374   3.312 -0.7176 -0.0637 -0.8637
  152MOL    C9918521   4.489   5.308   3.377 -0.2653 -0.8686 -0.4931
  152MOL   F10018522   4.581   5.398   3.412  0.3707 -0.4016 -0.0567
  152MOL   H10118523   4.391   5.440   3.231  1.2431  0.2937  0.1609
  152MOL   H10218524   4.320   5.431   3.397  0.5073 -1.7278  0.8593
  152MOL   H10318525   4.527   5.247   3.295  0.9638 -0.5721 -0.1609
  152MOL   C10418526   4.455   5.234   3.507 -1.1809  0.3353  0.2857
  152MOL   C10518527   4.578   5.186   3.590 -0.1780 -0.1531  0.4070
  152MOL   F10618528   4.523   5.162   3.711  0.2505  0.0289  0.1890
  152MOL   H10718529   4.376   5.276   3.571 -2.7309  0.7351 -1.8351
  152MOL   H10818530   4.400   5.142   3.488 -0.4866  0.3447 -1.8011
  152MOL   H10918531   4.658   5.260   3.595 -0.0118 -0.2558 -0.7418
  152MOL   C11018532   4.634   5.054   3.531 -0.5240  0.5853  0.6928
  152MOL   C11118533   4.776   5.007   3.581 -0.3571 -0.4924 -0.4320
  152MOL   F11218534   4.805   4.885   3.533 -0.7227 -0.6585 -0.0838
  152MOL   H11318535   4.559   4.976   3.540 -1.2369  0.9817 -1.5164
  152MOL   H11418536   4.643   5.054   3.422  1.4788 -1.7755  0.8047
  152MOL   H11518537   4.782   4.998   3.690  2.5541 -0.0425 -0.4926
  152MOL   C11618538   4.886   5.114   3.544  0.3147  0.7628  0.3214
  152MOL   C11718539   5.027   5.056   3.557 -0.2920  0.1955 -0.2981
  152MOL   F11818540   5.062   5.031   3.683  0.2302 -0.5838 -0.3812
  152MOL   H11918541   4.863   5.137   3.440 -1.6335 -5.4492 -0.8331
  152MOL   H12018542   4.888   5.201   3.609  2.6127  0.3400  0.8687
  152MOL   H12118543   5.102   5.125   3.520  3.4189 -2.3529  2.0352
  152MOL   H12218544   5.048   4.966   3.498  1.2734 -0.1835  0.7937
  153MOL     C118545   1.950   2.926   6.266  0.0204 -0.0033 -0.8586
  153MOL     C218546   1.999   3.068   6.294  0.2680  0.1731  0.1717
  153MOL     F318547   2.123   3.076   6.259  0.1730 -0.5414 -0.6147
  153MOL     H418548   1.960   2.894   6.163  3.9750 -1.3558 -0.1642
  153MOL     H518549   1.844   2.928   6.289  0.7380  1.5056  2.7143
  153MOL     H618550   2.005   3.077   6.403 -0.7276  1.8651  0.0965
  153MOL     H718551   1.997   2.852   6.331 -1.1352  0.5743  0.6760
  153MOL     C818552   1.914   3.173   6.226 -0.1786 -0.2752 -0.8353
  153MOL     C918553   1.984   3.307   6.208 -0.3559 -0.7688  0.3712
  153MOL    F1018554   1.905   3.384   6.133  0.4129 -0.4173 -0.1298
  153MOL    H1118555   1.890   3.140   6.125 -0.2581 -0.9216 -0.6076
  153MOL    H1218556   1.818   3.168   6.276 -1.9196 -3.2987 -4.1943
  153MOL    H1318557   2.085   3.294   6.171 -0.3449 -0.2521  0.2204
  153MOL    C1418558   1.997   3.387   6.340  0.0127 -0.0881 -0.4569
  153MOL    C1518559   2.074   3.522   6.326 -0.1371 -1.1609 -0.6825
  153MOL    F1618560   2.064   3.579   6.449 -0.1435 -0.3717 -0.4215
  153MOL    H1718561   1.904   3.418   6.387 -0.4851 -0.3814 -1.2434
  153MOL    H1818562   2.054   3.326   6.411  1.4941  1.1509 -0.5617
  153MOL    H1918563   2.019   3.583   6.254 -1.8260 -0.4623  1.1362
  153MOL    C2018564   2.224   3.520   6.288 -0.7112  0.0072 -0.0079
  153MOL    C2118565   2.283   3.660   6.267  1.3261  0.1501  0.3670
  153MOL    F2218566   2.409   3.634   6.286 -0.8306  0.3190  0.5735
  153MOL    H2318567   2.282   3.462   6.360 -0.2180 -0.8939 -1.1049
  153MOL    H2418568   2.233   3.478   6.187  0.6736  2.2539 -0.8510
  153MOL    H2518569   2.249   3.717   6.354  0.4912 -0.4011  0.4034
  153MOL    C2618570   2.261   3.730   6.134 -0.7348  0.4524  0.4003
  153MOL    C2718571   2.219   3.877   6.150 -0.4063 -0.3694  0.3975
  153MOL    F2818572   2.309   3.934   6.233 -0.1357  0.1208 -0.2890
  153MOL    H2918573   2.350   3.734   6.071 -0.0493 -1.8481  1.1814
  153MOL    H3018574   2.183   3.678   6.078 -0.6717 -1.5865  2.1504
  153MOL    H3118575   2.127   3.888   6.207  0.4251  0.3390  1.6346
  153MOL    C3218576   2.217   3.952   6.023 -0.2818 -0.5531 -0.3524
  153MOL    C3318577   2.126   4.074   6.012 -0.0815  0.1604  0.5031
  153MOL    F3418578   2.160   4.154   6.107  0.0340 -0.0110  0.2213
  153MOL    H3518579   2.317   3.983   5.993 -0.4658  0.7453  0.3422
  153MOL    H3618580   2.169   3.887   5.950 -1.4275  1.6746 -1.6530
  153MOL    H3718581   2.022   4.044   6.020 -0.9069  2.9296  0.9126
  153MOL    C3818582   2.130   4.144   5.873 -0.1142  0.0784  0.0269
  153MOL    C3918583   2.077   4.058   5.759 -0.2250 -0.1562 -0.1904
  153MOL    F4018584   1.949   4.028   5.792 -0.1108  0.0510  0.7786
  153MOL    H4118585   2.060   4.228   5.882  0.1926  0.3125  0.2164
  153MOL    H4218586   2.229   4.187   5.862  1.2512 -2.8630  0.3615
  153MOL    H4318587   2.126   3.960   5.757  1.6968  0.7993 -2.9329
  153MOL    C4418588   2.078   4.138   5.623 -0.5492  0.1987  0.2574
  153MOL    C4518589   2.047   4.031   5.515  0.0696  0.0951 -0.1297
  153MOL    F4618590   2.003   4.102   5.413 -0.0857 -0.1200 -0.1670
  153MOL    H4718591   1.996   4.210   5.631 -0.8506 -0.1455  0.3237
  153MOL    H4818592   2.168   4.196   5.607  0.0993 -1.4871 -2.5514
  153MOL    H4918593   1.963   3.967   5.543  0.9273  0.5716  3.8518
  153MOL    C5018594   2.167   3.961   5.451  0.1988  0.2799  0.5595
  153MOL    C5118595   2.127   3.863   5.338 -0.2767  0.3203 -0.1882
  153MOL    F5218596   2.239   3.808   5.284  0.0827  0.1102 -0.5931
  153MOL    H5318597   2.234   4.041   5.419 -1.5703  1.1066 -1.1787
  153MOL    H5418598   2.218   3.903   5.528  0.2614 -0.0510  0.2728
  153MOL    H5518599   2.081   3.921   5.258 -0.8354  2.0181  1.3174
  153MOL    C5618600   2.028   3.747   5.382 -0.4127  0.3124  0.4722
  153MOL    C5718601   2.084   3.641   5.482  0.5030  0.3441 -0.0714
  153MOL    F5818602   2.092   3.703   5.603  0.0555 -0.0957 -0.6075
  153MOL    H5918603   1.939   3.778   5.435  0.1234 -0.1664  1.6641
  153MOL    H6018604   2.004   3.700   5.286  0.4702  0.6276  0.0858
  153MOL    H6118605   2.181   3.601   5.452 -0.6201 -0.3075 -3.0292
  153MOL    C6218606   1.991   3.520   5.503 -0.0473 -0.0459 -0.2802
  153MOL    C6318607   2.019   3.443   5.636  0.5440 -0.2171  0.2363
  153MOL    F6418608   1.909   3.373   5.652 -0.4611  0.4576  0.2131
  153MOL    H6518609   1.889   3.558   5.495 -0.0962 -0.4199 -1.4664
  153MOL    H6618610   1.998   3.455   5.416 -1.0578 -1.4257  0.6470
  153MOL    H6718611   2.016   3.516   5.717 -2.0303  1.8545 -1.6299
  153MOL    C6818612   2.158   3.372   5.654 -0.5204 -0.7094  1.0574
  153MOL    C6918613   2.202   3.310   5.793 -0.1496  0.6528  0.0581
  153MOL    F7018614   2.238   3.392   5.885  0.1568 -0.1614  0.0231
  153MOL    H7118615   2.161   3.293   5.579 -0.3379  1.8652 -1.6992
  153MOL    H7218616   2.237   3.443   5.631 -0.3984 -0.9857  0.6211
  153MOL    H7318617   2.295   3.255   5.776 -1.3737 -0.8207 -2.2367
  153MOL    C7418618   2.104   3.205   5.849 -0.4060 -0.1106  0.3532
  153MOL    C7518619   2.079   3.084   5.763  0.0507  0.4143 -0.4852
  153MOL    F7618620   2.191   3.040   5.703 -0.7760  0.2472  0.2380
  153MOL    H7718621   2.147   3.167   5.941 -0.5916  1.0698  0.9361
  153MOL    H7818622   2.014   3.259   5.877 -0.1641  0.9145 -0.7874
  153MOL    H7918623   2.019   3.121   5.679  1.2282  2.1415 -0.5868
  153MOL    C8018624   2.005   2.976   5.841  0.1045  0.0640  0.7877
  153MOL    C8118625   1.961   2.841   5.776  0.1008  0.1031  0.3281
  153MOL    F8218626   1.894   2.877   5.664 -0.2479  0.3064  0.1082
  153MOL    H8318627   2.063   2.953   5.931 -0.6068 -0.0473  1.2242
  153MOL    H8418628   1.911   3.019   5.875 -1.4862 -1.7785 -1.1261
  153MOL    H8518629   1.893   2.796   5.848  0.7015 -0.3691  0.6045
  153MOL    C8618630   2.072   2.743   5.748 -0.2094 -0.3331  0.0736
  153MOL    C8718631   2.030   2.597   5.716  0.2429  0.4994 -0.3220
  153MOL    F8818632   1.960   2.609   5.609 -0.1935 -0.3262 -0.2875
  153MOL    H8918633   2.140   2.789   5.676  0.7704  1.0519  1.8325
  153MOL    H9018634   2.138   2.737   5.834 -0.2853 -1.0717  0.0880
  153MOL    H9118635   1.962   2.569   5.796  1.5296  0.0428  0.6385
  153MOL    C9218636   2.147   2.507   5.687 -0.7513  0.3684 -0.0010
  153MOL    C9318637   2.235   2.459   5.808 -0.4289  0.0527 -0.0699
  153MOL    F9418638   2.158   2.388   5.890  0.1202 -0.0427 -0.2676
  153MOL    H9518639   2.121   2.428   5.617  0.7286  1.0964 -1.4037
  153MOL    H9618640   2.210   2.564   5.619 -0.5410 -0.8081 -0.8059
  153MOL    H9718641   2.271   2.548   5.860 -1.9738  0.6064  0.0775
  153MOL    C9818642   2.356   2.367   5.765 -0.0922 -0.1966  0.4914
  153MOL    C9918643   2.458   2.425   5.674  0.0503  0.1935 -0.0177
  153MOL   F10018644   2.496   2.538   5.718 -0.1548 -0.9023 -0.5300
  153MOL   H10118645   2.410   2.339   5.856  1.7396 -1.4176 -0.9353
  153MOL   H10218646   2.310   2.276   5.728  0.5412 -0.0954 -0.5519
  153MOL   H10318647   2.416   2.462   5.581  2.3516 -0.4472 -1.3311
  153MOL   C10418648   2.582   2.336   5.655  0.1395 -0.4035  0.1136
  153MOL   C10518649   2.673   2.351   5.534 -0.7657  0.0385 -0.0007
  153MOL   F10618650   2.620   2.302   5.421 -0.4326 -0.5729  0.4481
  153MOL   H10718651   2.634   2.340   5.750 -1.2539 -0.7476  0.8995
  153MOL   H10818652   2.541   2.235   5.650 -0.1339 -0.5127  3.5265
  153MOL   H10918653   2.764   2.301   5.566 -1.5474  0.4800  3.0086
  153MOL   C11018654   2.701   2.499   5.499  0.6361  0.5843  0.0020
  153MOL   C11118655   2.822   2.523   5.400  0.2999  0.0342 -0.4015
  153MOL   F11218656   2.781   2.527   5.272 -0.1851  0.5428  0.3273
  153MOL   H11318657   2.616   2.546   5.450  0.2849  1.5079  1.4655
  153MOL   H11418658   2.723   2.557   5.589  0.3073 -0.2540  0.6231
  153MOL   H11518659   2.893   2.442   5.414 -2.4987 -2.3806  0.5262
  153MOL   C11618660   2.897   2.651   5.439 -0.3388  0.3607 -0.2429
  153MOL   C11718661   3.044   2.659   5.384  0.4827  0.5019 -0.2672
  153MOL   F11818662   3.111   2.768   5.426 -0.7355  0.6581  0.3391
  153MOL   H11918663   2.846   2.737   5.397 -2.5106 -1.6071 -1.8158
  153MOL   H12018664   2.901   2.660   5.548 -0.0579 -0.0975 -0.2131
  153MOL   H12118665   3.045   2.659   5.275  0.6225  0.7986 -0.2668
  153MOL   H12218666   3.099   2.571   5.418 -0.4869  0.0956  0.2499
  154MOL     C118667   4.411   5.703   5.445  0.0167 -0.4668  0.4403
  154MOL     C218668   4.443   5.799   5.332 -0.0330  0.2305 -0.3842
  154MOL     F318669   4.398   5.917   5.376 -0.2569  0.2429 -0.2437
  154MOL     H418670   4.490   5.723   5.518 -0.1737  0.5748  0.3618
  154MOL     H518671   4.425   5.596   5.431  0.3099 -0.7746  2.7596
  154MOL     H618672   4.378   5.776   5.247  0.9889 -1.6441 -0.7022
  154MOL     H718673   4.313   5.720   5.490 -0.4132  1.6974 -1.2268
  154MOL     C818674   4.591   5.823   5.293  0.2686  0.3890 -0.5509
  154MOL     C918675   4.624   5.939   5.202 -0.1502 -0.0247  0.6928
  154MOL    F1018676   4.755   5.959   5.199 -0.1359  0.3493 -0.1980
  154MOL    H1118677   4.634   5.857   5.387 -1.3890  5.1603 -1.4087
  154MOL    H1218678   4.647   5.734   5.263 -1.2756 -0.4258 -1.0991
  154MOL    H1318679   4.586   6.031   5.247  3.5893  1.9938 -0.1163
  154MOL    C1418680   4.556   5.926   5.061  0.1759  0.5717 -0.0549
  154MOL    C1518681   4.608   6.030   4.960  0.6930  0.0276 -0.6240
  154MOL    F1618682   4.735   5.999   4.913  0.1785 -0.0375  0.2568
  154MOL    H1718683   4.574   5.822   5.035 -0.9554  0.3047  0.2381
  154MOL    H1818684   4.450   5.931   5.085 -0.3567 -4.4898 -0.8600
  154MOL    H1918685   4.625   6.123   5.014 -2.5066 -1.3951  3.0782
  154MOL    C2018686   4.519   6.038   4.840 -0.2688  0.0571  0.3572
  154MOL    C2118687   4.405   6.142   4.864 -0.4212 -0.2710  0.1990
  154MOL    F2218688   4.461   6.257   4.867  0.2450 -0.1547  0.1741
  154MOL    H2318689   4.572   6.062   4.748 -0.0960 -3.0588 -0.4103
  154MOL    H2418690   4.473   5.940   4.825 -1.4694  0.7938 -0.8559
  154MOL    H2518691   4.365   6.137   4.966 -0.6222 -3.7591  0.0219
  154MOL    C2618692   4.283   6.139   4.770  0.9299  0.1059  0.4230
  154MOL    C2718693   4.210   5.999   4.774 -0.4877 -0.5939  0.8236
  154MOL    F2818694   4.201   5.966   4.904  0.3188 -0.0746 -0.0004
  154MOL    H2918695   4.224   6.226   4.797  1.4115  0.0243  1.7368
  154MOL    H3018696   4.314   6.176   4.672  0.1296  1.1076  0.5432
  154MOL    H3118697   4.269   5.925   4.719  0.2650  0.5930  0.0020
  154MOL    C3218698   4.069   5.991   4.733 -0.5782 -0.1796  0.4409
  154MOL    C3318699   4.043   6.039   4.592  0.1605  0.8372  1.1486
  154MOL    F3418700   4.065   6.168   4.581 -0.4123 -0.0966  0.2438
  154MOL    H3518701   4.031   5.890   4.754 -3.2922  0.6041 -0.5261
  154MOL    H3618702   4.006   6.051   4.798 -3.2340  0.1609 -2.3602
  154MOL    H3718703   3.937   6.030   4.566  1.0729 -1.0095 -2.1638
  154MOL    C3818704   4.122   5.975   4.478 -0.1756  0.6766  0.3376
  154MOL    C3918705   4.111   5.826   4.457  0.2064  0.3510  0.1993
  154MOL    F4018706   3.988   5.789   4.453  0.0641  0.4336  0.0651
  154MOL    H4118707   4.101   6.023   4.382 -3.0722 -1.9891 -0.4269
  154MOL    H4218708   4.228   6.000   4.490 -0.2020  1.4782 -1.0258
  154MOL    H4318709   4.132   5.766   4.546  1.9569 -0.2870 -0.6023
  154MOL    C4418710   4.171   5.766   4.335 -0.7920 -0.8125  0.6559
  154MOL    C4518711   4.323   5.793   4.325 -0.0390 -0.8281 -0.7151
  154MOL    F4618712   4.371   5.693   4.405  0.0919  0.4646 -0.2726
  154MOL    H4718713   4.158   5.658   4.341 -1.3383 -0.7966 -0.1842
  154MOL    H4818714   4.127   5.802   4.242  1.0218 -1.2173 -0.3685
  154MOL    H4918715   4.358   5.884   4.373  1.3774 -0.6146 -2.1193
  154MOL    C5018716   4.393   5.769   4.199  0.2401  0.1429 -0.0886
  154MOL    C5118717   4.370   5.867   4.084  0.5070 -0.5747  0.4103
  154MOL    F5218718   4.383   5.990   4.127  0.1058 -0.3944  0.8001
  154MOL    H5318719   4.500   5.765   4.219 -0.2445 -1.3367  2.3246
  154MOL    H5418720   4.364   5.673   4.155  3.2645 -1.1974  0.7561
  154MOL    H5518721   4.270   5.854   4.041 -0.0015  1.0466  1.0890
  154MOL    C5618722   4.473   5.853   3.977  0.2067 -0.3653  0.1744
  154MOL    C5718723   4.444   5.912   3.841 -0.4142  0.2439 -0.7292
  154MOL    F5818724   4.397   6.038   3.851  0.0637 -0.0428 -0.5377
  154MOL    H5918725   4.571   5.885   4.015 -0.0655  1.8573 -0.9168
  154MOL    H6018726   4.488   5.746   3.960 -0.2900 -0.4376  0.2024
  154MOL    H6118727   4.369   5.857   3.785 -1.9157  0.7056  0.8081
  154MOL    C6218728   4.569   5.905   3.748  0.0179 -0.6120 -0.1305
  154MOL    C6318729   4.622   5.773   3.704  0.6215  1.0342  0.0451
  154MOL    F6418730   4.520   5.701   3.656  0.0513 -0.0633  0.4217
  154MOL    H6518731   4.554   5.965   3.659  2.8459 -1.0017 -0.9071
  154MOL    H6618732   4.647   5.959   3.802 -0.0532 -1.6547  1.0461
  154MOL    H6718733   4.662   5.715   3.788  2.3944 -2.3931 -3.0287
  154MOL    C6818734   4.737   5.782   3.599  1.0938 -0.8304  0.6810
  154MOL    C6918735   4.797   5.645   3.548 -0.0258 -0.3671 -0.5473
  154MOL    F7018736   4.885   5.671   3.456  0.0069 -0.4859 -0.0079
  154MOL    H7118737   4.711   5.838   3.509 -0.9619 -1.2503  0.9939
  154MOL    H7218738   4.805   5.849   3.651  0.4732  0.2143  0.1671
  154MOL    H7318739   4.710   5.596   3.504  1.2968 -3.4558  0.1195
  154MOL    C7418740   4.860   5.542   3.639 -0.5822 -0.4008  0.0534
  154MOL    C7518741   4.984   5.600   3.721  0.0581 -0.4706 -1.6734
  154MOL    F7618742   4.934   5.666   3.820  0.6154 -0.0979 -0.5238
  154MOL    H7718743   4.782   5.504   3.705 -0.2935  1.0920  1.2940
  154MOL    H7818744   4.900   5.467   3.571 -3.4015 -0.2427 -1.8784
  154MOL    H7918745   5.040   5.670   3.659  2.0872 -1.2403 -0.7735
  154MOL    C8018746   5.081   5.500   3.784 -0.1199 -0.2235  0.3725
  154MOL    C8118747   5.175   5.414   3.694  0.4584 -0.4061  1.0760
  154MOL    F8218748   5.249   5.492   3.624 -0.1934 -0.1700  0.0596
  154MOL    H8318749   5.131   5.556   3.863 -0.4622  0.5440  0.0492
  154MOL    H8418750   5.014   5.438   3.845 -0.2076  0.2403  0.7579
  154MOL    H8518751   5.115   5.370   3.614  0.0138  0.2445  1.0505
  154MOL    C8618752   5.269   5.305   3.756 -0.0392  0.5576 -0.0559
  154MOL    C8718753   5.380   5.231   3.677 -0.1618 -0.3285 -0.3424
  154MOL    F8818754   5.467   5.323   3.630  0.0382  0.0781 -0.5385
  154MOL    H8918755   5.318   5.342   3.846 -1.1743  1.6505  0.1291
  154MOL    H9018756   5.208   5.230   3.807 -1.5275  0.5127 -1.8664
  154MOL    H9118757   5.332   5.177   3.596  0.3456  0.9385 -1.5008
  154MOL    C9218758   5.457   5.139   3.772  0.5334  0.6573  0.4292
  154MOL    C9318759   5.567   5.071   3.687  0.0014 -0.0337 -0.2545
  154MOL    F9418760   5.647   5.005   3.773  0.3097 -0.3004  0.1960
  154MOL    H9518761   5.502   5.203   3.848  0.2296  1.0450  0.2810
  154MOL    H9618762   5.398   5.066   3.826  1.4788  0.6486  1.4756
  154MOL    H9718763   5.635   5.141   3.639  1.8074 -1.9444 -0.5491
  154MOL    C9818764   5.518   4.977   3.576 -0.9765  0.3633 -0.5769
  154MOL    C9918765   5.439   4.856   3.627  0.8258  0.0845  0.3529
  154MOL   F10018766   5.310   4.884   3.665  0.6571 -0.0039  0.3781
  154MOL   H10118767   5.461   5.032   3.502  0.4964  1.2276 -1.0919
  154MOL   H10218768   5.604   4.936   3.523 -1.1625  0.1061 -0.6810
  154MOL   H10318769   5.476   4.815   3.720  0.3589 -1.4130 -0.1165
  154MOL   C10418770   5.435   4.731   3.532  0.5717  0.7106  0.5750
  154MOL   C10518771   5.555   4.639   3.544 -0.3962 -0.0439 -0.4991
  154MOL   F10618772   5.562   4.573   3.654  0.1752 -0.0600 -0.2768
  154MOL   H10718773   5.351   4.667   3.559  0.2292  1.6586  1.8019
  154MOL   H10818774   5.424   4.778   3.435 -1.2222  0.7968  0.8185
  154MOL   H10918775   5.651   4.690   3.534 -0.4360  0.7041  2.5060
  154MOL   C11018776   5.566   4.535   3.434  0.1585 -0.5973  0.4258
  154MOL   C11118777   5.553   4.581   3.289  0.0686 -0.1099 -0.3371
  154MOL   F11218778   5.663   4.649   3.275  0.4638 -0.4221 -0.5833
  154MOL   H11318779   5.665   4.489   3.437  0.6347  0.3246 -0.8247
  154MOL   H11418780   5.490   4.459   3.457  1.5567 -1.2319  3.1974
  154MOL   H11518781   5.460   4.634   3.269  0.1947  1.6057  3.2936
  154MOL   C11618782   5.558   4.467   3.184  0.0150 -0.4137 -0.3962
  154MOL   C11718783   5.587   4.510   3.043 -0.0721 -0.5561  1.0693
  154MOL   F11818784   5.720   4.534   3.024  0.2206  0.1762 -0.4346
  154MOL   H11918785   5.644   4.401   3.198  1.1254  1.1502  0.1908
  154MOL   H12018786   5.461   4.416   3.190 -0.5385  0.6673 -0.1132
  154MOL   H12118787   5.523   4.594   3.014  0.9618  0.4443  1.6326
  154MOL   H12218788   5.567   4.427   2.975 -0.1545 -0.3861  0.8845
  155MOL     C118789   5.522   4.134   7.243  0.2081 -0.2285 -0.8290
  155MOL     C218790   5.622   4.041   7.315 -0.6890  0.3910 -0.4851
  155MOL     F318791   5.708   3.998   7.221 -0.2773  0.3980 -0.4445
  155MOL     H418792   5.568   4.221   7.197  0.5514 -0.0416 -0.1337
  155MOL     H518793   5.437   4.163   7.306  1.3136 -1.4820  1.2995
  155MOL     H618794   5.573   3.951   7.353 -2.0950  1.6219  0.6591
  155MOL     H718795   5.463   4.085   7.165  1.0583 -1.4138 -0.7465
  155MOL     C818796   5.710   4.106   7.424  0.8614 -0.7788 -0.2754
  155MOL     C918797   5.667   4.113   7.577  0.0272 -0.0059 -0.5333
  155MOL    F1018798   5.675   3.987   7.612  0.7191 -0.1261 -0.2077
  155MOL    H1118799   5.799   4.044   7.429  0.1937 -1.6144  1.4628
  155MOL    H1218800   5.728   4.209   7.393 -1.6981 -0.0306  0.6354
  155MOL    H1318801   5.564   4.138   7.601  0.3660  1.2368 -0.3340
  155MOL    C1418802   5.755   4.191   7.663 -0.0769 -0.2024  0.3406
  155MOL    C1518803   5.742   4.345   7.654 -0.2160  0.3763 -0.6290
  155MOL    F1618804   5.613   4.374   7.659  0.4300 -0.2607 -0.1894
  155MOL    H1718805   5.720   4.163   7.763 -0.9772  0.7472  0.3106
  155MOL    H1818806   5.855   4.157   7.640 -0.6110 -0.3474 -1.7913
  155MOL    H1918807   5.782   4.384   7.560  1.6374  0.7392  0.2908
  155MOL    C2018808   5.810   4.421   7.765 -0.3861  0.0720 -0.5022
  155MOL    C2118809   5.780   4.571   7.758  0.1807  0.0764  0.0740
  155MOL    F2218810   5.661   4.593   7.813 -0.2599  0.3081  0.1830
  155MOL    H2318811   5.780   4.382   7.862 -0.0210 -1.5821 -1.0363
  155MOL    H2418812   5.917   4.398   7.765 -0.8146 -2.3138 -4.1197
  155MOL    H2518813   5.775   4.615   7.658  0.0285  1.6536  0.7684
  155MOL    C2618814   5.878   4.653   7.843 -0.5134  0.0098 -0.0869
  155MOL    C2718815   5.868   4.628   7.990 -0.5100  0.5202 -0.3701
  155MOL    F2818816   5.931   4.513   0.004  0.6053 -0.5205  0.1648
  155MOL    H2918817   5.980   4.630   7.810 -0.3761  0.5990 -0.0926
  155MOL    H3018818   5.857   4.759   7.830  0.5059  0.3767  1.0699
  155MOL    H3118819   5.769   4.609   0.030  0.4486 -1.6336  0.9811
  155MOL    C3218820   5.948   4.725   0.077  0.5549 -0.3532 -0.0741
  155MOL    C3318821   5.953   4.687   0.231 -1.0333  0.0383  1.2722
  155MOL    F3418822   6.036   4.578   0.246 -0.5416  0.4250  0.0072
  155MOL    H3518823   6.047   4.747   0.036  0.6202  0.4407  0.4998
  155MOL    H3618824   5.911   4.827   0.087  1.2604 -0.2226  1.3127
  155MOL    H3718825   5.863   4.650   0.281 -0.8764  0.1057  1.6035
  155MOL    C3818826   6.024   4.794   0.317 -0.1608  0.0440  0.5142
  155MOL    C3918827   5.935   4.915   0.343  0.5967  0.3589 -0.4075
  155MOL    F4018828   5.813   4.868   0.364  0.3605 -0.3322  0.3966
  155MOL    H4118829   6.060   4.748   0.409 -1.3618  1.4890  1.7297
  155MOL    H4218830   6.114   4.827   0.266 -0.4477  0.7169  0.4309
  155MOL    H4318831   5.927   4.974   0.252 -0.3284 -0.8520 -1.1276
  155MOL    C4418832   5.968   4.999   0.468 -0.0054  0.4840 -0.1939
  155MOL    C4518833   6.110   5.067   0.453 -0.1634 -0.4165 -0.1254
  155MOL    F4618834   6.111   5.126   0.339  0.4553 -0.2480  0.6703
  155MOL    H4718835   5.889   5.072   0.484  1.2462  2.1148 -1.1693
  155MOL    H4818836   5.955   4.930   0.550 -1.0173  0.0380 -0.7200
  155MOL    H4918837   6.187   4.990   0.450  0.2282 -0.0037 -0.6048
  155MOL    C5018838   6.143   5.178   0.560 -0.7051 -0.1345  0.7043
  155MOL    C5118839   6.180   5.115   0.700  0.3708  0.2002 -0.4032
  155MOL    F5218840   6.287   5.044   0.691 -0.3422 -0.4735 -0.4352
  155MOL    H5318841   6.227   5.239   0.528 -0.1300 -0.0536  2.3176
  155MOL    H5418842   6.053   5.240   0.567 -0.4605  0.1580  1.3243
  155MOL    H5518843   6.107   5.043   0.737 -1.1180  2.3689  1.0177
  155MOL    C5618844   6.212   5.223   0.806  0.6509 -0.1746  0.4487
  155MOL    C5718845   6.095   5.317   0.840  0.5337  0.6169  0.2473
  155MOL    F5818846   5.986   5.242   0.861 -0.0008  0.1770 -0.0522
  155MOL    H5918847   6.244   5.170   0.896 -0.9920 -1.3799  0.3503
  155MOL    H6018848   6.296   5.281   0.768  1.0535 -1.5267 -0.8197
  155MOL    H6118849   6.078   5.391   0.762 -2.5707 -0.6105 -0.2924
  155MOL    C6218850   6.127   5.403   0.961 -0.0142 -1.0482 -0.2548
  155MOL    C6318851   6.016   5.502   1.006 -0.2612 -0.2748  0.7708
  155MOL    F6418852   6.051   5.550   1.127 -0.0382  0.0076  0.1464
  155MOL    H6518853   6.141   5.336   1.046  0.0371  0.0615  0.6271
  155MOL    H6618854   6.222   5.453   0.945 -0.8869  0.6930 -0.0558
  155MOL    H6718855   5.919   5.456   1.028  0.6257 -2.1488  0.8321
  155MOL    C6818856   6.024   5.638   0.915  0.3327 -1.2110  0.6336
  155MOL    C6918857   5.974   5.779   0.965 -0.5670 -0.1407 -0.0240
  155MOL    F7018858   6.029   5.821   1.077 -0.5354 -0.2693 -0.0709
  155MOL    H7118859   6.129   5.651   0.887 -0.2894 -1.5556 -2.0369
  155MOL    H7218860   5.965   5.612   0.828  0.9761  5.2288 -1.9614
  155MOL    H7318861   5.874   5.760   1.004 -0.1785 -0.6442  0.7314
  155MOL    C7418862   5.963   5.891   0.858 -1.4339 -0.1792  0.4806
  155MOL    C7518863   6.097   5.961   0.816 -0.6412  0.1210 -0.0579
  155MOL    F7618864   6.200   5.871   0.805 -0.0139 -0.0995 -0.3393
  155MOL    H7718865   5.916   5.852   0.768 -0.6694 -0.1143  0.0512
  155MOL    H7818866   5.898   5.966   0.905 -0.9101 -0.6324  1.9751
  155MOL    H7918867   6.124   6.025   0.899  0.5229 -0.5462  0.0840
  155MOL    C8018868   6.080   6.050   0.694 -0.2574  0.6520 -0.6989
  155MOL    C8118869   6.217   6.100   0.643  0.0413  0.0190 -0.2701
  155MOL    F8218870   6.177   6.151   0.528 -0.6219  0.0105  0.6829
  155MOL    H8318871   6.045   5.986   0.612 -0.7159 -0.0115  0.0126
  155MOL    H8418872   6.001   6.123   0.708 -0.3571 -0.2286  3.8830
  155MOL    H8518873   6.295   6.025   0.627  2.6390  2.8533 -1.5256
  155MOL    C8618874   6.299   6.199   0.730 -0.1125 -0.4199 -0.1168
  155MOL    C8718875   6.443   6.214   0.688 -0.1304 -0.4959 -0.0812
  155MOL    F8818876   6.436   6.254   0.564 -0.3975  0.0850 -0.2106
  155MOL    H8918877   6.239   6.289   0.712 -2.1980 -1.2148  2.5743
  155MOL    H9018878   6.298   6.176   0.836 -0.3641 -0.5340 -0.1442
  155MOL    H9118879   6.488   6.114   0.688  1.6877  0.2770  1.7889
  155MOL    C9218880   6.532   6.313   0.760  0.2569  0.1129 -0.1828
  155MOL    C9318881   6.666   6.351   0.688  0.7068  0.6516  0.0935
  155MOL    F9418882   6.715   6.462   0.746  0.4775  0.6149 -0.2766
  155MOL    H9518883   6.473   6.404   0.761 -0.9684 -0.6080 -2.2052
  155MOL    H9618884   6.539   6.282   0.864  0.9038  2.1879  0.4024
  155MOL    H9718885   6.649   6.383   0.585  0.2080  1.8503  0.5424
  155MOL    C9818886   6.767   6.237   0.681  0.2470 -0.2949 -0.0627
  155MOL    C9918887   6.901   6.267   0.612 -0.0737  0.3448 -0.5882
  155MOL   F10018888   6.968   6.158   0.602  0.5159 -0.0477  0.3643
  155MOL   H10118889   6.777   6.188   0.778  0.5195 -1.2447 -0.5608
  155MOL   H10218890   6.715   6.166   0.616 -1.4456 -0.5985  1.5961
  155MOL   H10318891   6.958   6.336   0.674  0.9565 -2.0799  1.2060
  155MOL   C10418892   6.891   6.325   0.468  0.4298  0.3156 -0.6879
  155MOL   C10518893   7.022   6.325   0.382  0.6337 -0.1259 -0.0638
  155MOL   F10618894   7.046   6.197   0.349  0.0647  0.3169 -0.3784
  155MOL   H10718895   6.817   6.272   0.408  1.2759  1.4877 -2.8568
  155MOL   H10818896   6.851   6.425   0.483  1.8014  1.2153 -2.7706
  155MOL   H10918897   7.104   6.363   0.443  1.2316 -0.4203 -0.6837
  155MOL   C11018898   7.006   6.397   0.246  0.2543  1.2691 -0.3680
  155MOL   C11118899   6.950   6.539   0.242 -0.0433  0.4530  0.0102
  155MOL   F11218900   7.011   6.613   0.336 -0.1844  0.4999 -0.2155
  155MOL   H11318901   7.103   6.408   0.197 -1.4035  2.9216 -3.4540
  155MOL   H11418902   6.953   6.324   0.185  1.9476 -0.9784  0.7944
  155MOL   H11518903   6.843   6.531   0.259  0.2986 -1.6050  1.3885
  155MOL   C11618904   6.972   6.613   0.103  0.5634 -0.2672  0.0351
  155MOL   C11718905   6.872   6.556   0.003 -0.3705  0.4416 -0.3838
  155MOL   F11818906   6.865   6.626   7.891 -0.5955 -0.4834  0.2651
  155MOL   H11918907   6.950   6.718   0.122 -1.9589 -0.6198 -0.8496
  155MOL   H12018908   7.078   6.601   0.078  0.6231 -2.5585  1.2083
  155MOL   H12118909   6.769   6.563   0.038  0.4127  0.9095  1.8996
  155MOL   H12218910   6.903   6.453   7.992  1.1908  0.5152  2.2861
  156MOL     C118911   2.173   7.161   2.964 -0.6084 -0.4905 -0.3261
  156MOL     C218912   2.089   7.127   3.094 -0.2548 -0.3870  0.4682
  156MOL     F318913   2.095   7.232   3.182  0.0607  0.1232 -0.5404
  156MOL     H418914   2.143   7.251   2.911 -0.5599 -1.0943 -1.3972
  156MOL     H518915   2.163   7.082   2.890 -1.9270 -0.3097 -0.3426
  156MOL     H618916   2.142   7.048   3.148  0.6029 -0.8866 -1.0865
  156MOL     H718917   2.278   7.161   2.993 -1.5937  0.8924  3.5307
  156MOL     C818918   1.947   7.090   3.053 -0.3967  0.4413 -0.6346
  156MOL     C918919   1.845   7.059   3.168  0.3720 -1.2260  0.0511
  156MOL    F1018920   1.718   7.063   3.124 -0.2400  0.2027 -0.1653
  156MOL    H1118921   1.912   7.172   2.990  0.1053  0.7199 -0.5549
  156MOL    H1218922   1.959   7.004   2.986  0.6558 -0.2532  0.4240
  156MOL    H1318923   1.864   7.132   3.246  1.2119  1.5698 -2.6726
  156MOL    C1418924   1.866   6.914   3.215  0.2811  0.1745 -0.6492
  156MOL    C1518925   1.794   6.862   3.338  0.7208  0.1908  0.0319
  156MOL    F1618926   1.664   6.855   3.316  0.1894 -0.3618 -0.4033
  156MOL    H1718927   1.846   6.852   3.128 -2.6506 -0.8188  0.6805
  156MOL    H1818928   1.971   6.896   3.240 -0.9293 -2.6543  2.8628
  156MOL    H1918929   1.799   6.932   3.420  2.1553 -0.7599  0.7724
  156MOL    C2018930   1.838   6.723   3.366  0.2782  0.3737 -0.3245
  156MOL    C2118931   1.803   6.652   3.502  0.4687  0.0710  0.1404
  156MOL    F2218932   1.849   6.729   3.606  0.2147  0.4932 -0.2283
  156MOL    H2318933   1.817   6.662   3.279  0.4607  1.2469 -0.9854
  156MOL    H2418934   1.947   6.724   3.368  0.2598  0.2393  1.9731
  156MOL    H2518935   1.861   6.561   3.514  1.7015  0.9325  0.8871
  156MOL    C2618936   1.661   6.612   3.519  0.1483 -0.4446  0.4661
  156MOL    C2718937   1.622   6.471   3.465 -0.2886 -0.0923 -0.1858
  156MOL    F2818938   1.673   6.384   3.552 -0.4505 -0.3561 -0.3839
  156MOL    H2918939   1.630   6.622   3.623  0.5472  2.0292  0.3890
  156MOL    H3018940   1.601   6.689   3.472 -1.5292 -1.5695  0.7400
  156MOL    H3118941   1.680   6.447   3.376  0.7865  2.4521 -0.2117
  156MOL    C3218942   1.472   6.455   3.455  0.1968 -0.2508 -0.5070
  156MOL    C3318943   1.430   6.533   3.338  0.9236  0.0762 -0.6987
  156MOL    F3418944   1.487   6.483   3.230  0.4580  0.2491 -0.2367
  156MOL    H3518945   1.450   6.348   3.445  0.5498 -0.4707  0.9291
  156MOL    H3618946   1.429   6.494   3.547  1.8461 -0.9124  0.5769
  156MOL    H3718947   1.474   6.633   3.341  0.0296  0.4406  1.3330
  156MOL    C3818948   1.277   6.522   3.324 -0.3929  0.2519 -0.0998
  156MOL    C3918949   1.218   6.620   3.225 -0.4131  0.0797  0.3973
  156MOL    F4018950   1.093   6.595   3.209  0.0252  0.1779  0.3581
  156MOL    H4118951   1.237   6.424   3.297 -1.2813  0.4648  0.4217
  156MOL    H4218952   1.226   6.547   3.417 -0.5987  0.4026 -0.2524
  156MOL    H4318953   1.256   6.589   3.128 -2.7344 -0.1259 -0.4739
  156MOL    C4418954   1.221   6.768   3.254  0.0867  0.8858  0.3085
  156MOL    C4518955   1.206   6.850   3.126  1.1084 -1.0759  0.5814
  156MOL    F4618956   1.136   6.961   3.149  0.1578  0.0997 -0.5913
  156MOL    H4718957   1.140   6.788   3.323  1.3155  0.7069  1.8326
  156MOL    H4818958   1.315   6.791   3.304  0.7365 -0.9297 -0.0304
  156MOL    H4918959   1.145   6.798   3.051 -1.7979  1.3823  1.1316
  156MOL    C5018960   1.335   6.897   3.054  0.3890  0.5914 -1.0565
  156MOL    C5118961   1.390   6.807   2.948  0.6889 -0.3089  0.8165
  156MOL    F5218962   1.297   6.785   2.850 -0.1944  0.1465 -0.6010
  156MOL    H5318963   1.314   6.993   3.007  4.2708  2.2081  0.2521
  156MOL    H5418964   1.414   6.923   3.125 -0.9688  1.5456  0.1261
  156MOL    H5518965   1.402   6.706   2.986 -0.2522 -0.4192  0.8170
  156MOL    C5618966   1.524   6.857   2.886  0.5947 -0.1636  0.0061
  156MOL    C5718967   1.598   6.760   2.793  0.2836  0.4473 -0.5726
  156MOL    F5818968   1.687   6.848   2.737  0.4864 -0.2790 -0.1975
  156MOL    H5918969   1.520   6.952   2.834 -1.7370 -0.3960 -0.3108
  156MOL    H6018970   1.584   6.879   2.974 -1.4137  1.0707  1.0967
  156MOL    H6118971   1.527   6.723   2.718 -1.2636  0.4400  0.8810
  156MOL    C6218972   1.669   6.651   2.876  0.8627 -0.1646  0.0147
  156MOL    C6318973   1.740   6.548   2.787  0.2888 -0.5943 -0.2855
  156MOL    F6418974   1.799   6.611   2.685  0.2475  0.0861 -0.6022
  156MOL    H6518975   1.747   6.682   2.946  0.0181 -1.8167  1.7338
  156MOL    H6618976   1.596   6.598   2.937  2.2529  0.0220  1.8819
  156MOL    H6718977   1.659   6.497   2.735 -1.1514  1.7115 -0.3659
  156MOL    C6818978   1.839   6.453   2.845 -1.0420 -0.7672 -0.4275
  156MOL    C6918979   1.782   6.348   2.945  0.4685 -0.3953  0.1232
  156MOL    F7018980   1.664   6.299   2.901 -0.4466  0.4633  0.0157
  156MOL    H7118981   1.893   6.407   2.762 -0.7142 -3.4538  1.2148
  156MOL    H7218982   1.920   6.506   2.896  0.1897 -2.1081 -0.9255
  156MOL    H7318983   1.757   6.395   3.040 -2.0504 -0.1906 -0.6049
  156MOL    C7418984   1.878   6.237   2.966 -0.0544  0.1827  0.4812
  156MOL    C7518985   1.838   6.128   3.068 -0.2108 -0.9792  0.1776
  156MOL    F7618986   1.932   6.038   3.077 -0.1303  0.0443  0.9174
  156MOL    H7718987   1.882   6.175   2.876 -1.4479 -1.7163  1.6704
  156MOL    H7818988   1.978   6.275   2.984 -0.6851  2.6331 -1.0256
  156MOL    H7918989   1.752   6.071   3.036 -0.8042  0.8994 -1.7024
  156MOL    C8018990   1.832   6.182   3.214  0.1670 -0.0765  1.0377
  156MOL    C8118991   1.857   6.071   3.319 -0.2195 -0.0102  0.1724
  156MOL    F8218992   1.862   6.145   3.427  0.2018 -0.7806  0.2081
  156MOL    H8318993   1.908   6.259   3.213 -0.6457  0.7364  0.1351
  156MOL    H8418994   1.736   6.233   3.226  0.0467  0.1832 -0.9039
  156MOL    H8518995   1.957   6.030   3.310 -0.4485 -0.7174  0.8011
  156MOL    C8618996   1.755   5.958   3.333  0.1535  0.6830  0.1939
  156MOL    C8718997   1.612   6.005   3.362  0.3789  0.7415 -0.0463
  156MOL    F8818998   1.554   6.062   3.252 -0.0360 -0.1289 -0.1073
  156MOL    H8918999   1.747   5.903   3.239  0.5095 -1.2204  1.2511
  156MOL    H9019000   1.793   5.887   3.407  0.8477 -0.0829 -0.8803
  156MOL    H9119001   1.603   6.075   3.445  1.8364  0.0522  0.7030
  156MOL    C9219002   1.531   5.877   3.405  0.2715  0.2257  0.3142
  156MOL    C9319003   1.387   5.917   3.433  0.6964  1.0977  0.0460
  156MOL    F9419004   1.314   5.800   3.429  0.0462 -0.1933 -0.4820
  156MOL    H9519005   1.534   5.801   3.327  1.1284  0.0536  0.5164
  156MOL    H9619006   1.583   5.825   3.485  2.9081 -0.5728 -1.8382
  156MOL    H9719007   1.352   5.982   3.352  1.3190 -0.4506 -1.4909
  156MOL    C9819008   1.346   5.978   3.568  0.2490  0.0117  0.5452
  156MOL    C9919009   1.211   6.052   3.574  0.0740 -0.1500  0.9083
  156MOL   F10019010   1.212   6.142   3.466  0.1377 -0.3907 -0.0074
  156MOL   H10119011   1.352   5.892   3.635 -2.5319 -0.9515 -0.3804
  156MOL   H10219012   1.420   6.050   3.605  0.0930  1.7412 -2.4206
  156MOL   H10319013   1.210   6.120   3.659  0.1997 -0.5458  1.2250
  156MOL   C10419014   1.078   5.966   3.567  0.1206  0.3859 -0.7633
  156MOL   C10519015   1.062   5.866   3.686 -0.2067  0.2267  0.2479
  156MOL   F10619016   1.036   5.953   3.790  0.2715 -0.2043 -0.6614
  156MOL   H10719017   0.995   6.037   3.572  0.5087  0.8325 -0.5774
  156MOL   H10819018   1.068   5.917   3.470 -2.4610 -0.4764 -0.1056
  156MOL   H10919019   1.154   5.816   3.716 -0.5982 -1.6473 -1.5305
  156MOL   C11019020   0.945   5.767   3.684 -0.0460  1.2759  0.2777
  156MOL   C11119021   0.974   5.646   3.599  0.2968 -0.3121  0.7086
  156MOL   F11219022   1.043   5.559   3.665  0.3613 -0.1611 -0.1035
  156MOL   H11319023   0.910   5.731   3.781  1.1747  1.5688  0.8356
  156MOL   H11419024   0.854   5.819   3.651 -2.2109 -1.9634  0.9091
  156MOL   H11519025   1.019   5.680   3.505 -0.0145 -1.7131  0.0462
  156MOL   C11619026   0.842   5.571   3.556 -0.2429 -0.2442 -0.0844
  156MOL   C11719027   0.874   5.457   3.467 -0.0620  0.5347  0.2582
  156MOL   F11819028   0.768   5.435   3.389 -0.3502 -0.4397 -0.0048
  156MOL   H11919029   0.778   5.541   3.638 -0.3064 -3.0530 -1.0862
  156MOL   H12019030   0.786   5.637   3.489  0.0552  1.7894  1.6502
  156MOL   H12119031   0.888   5.365   3.523 -2.1650 -0.2653 -0.4672
  156MOL   H12219032   0.957   5.485   3.402 -0.8238  2.8944  0.2233
  157MOL     C119033   6.512   5.632   4.120  1.2902 -0.6188  0.1753
  157MOL     C219034   6.588   5.770   4.086 -0.3397  0.3782  0.8402
  157MOL     F319035   6.703   5.743   4.014 -0.3746  0.2820 -0.3386
  157MOL     H419036   6.581   5.550   4.138  0.5150 -1.1577  0.7527
  157MOL     H519037   6.446   5.610   4.036 -1.1379  1.9633  1.3487
  157MOL     H619038   6.629   5.801   4.182 -0.9817 -0.6543  1.4564
  157MOL     H719039   6.442   5.642   4.203 -1.7453 -0.8064 -2.2586
  157MOL     C819040   6.508   5.876   4.025 -0.0434  0.5520  0.3641
  157MOL     C919041   6.572   6.017   4.023 -0.4460 -0.3693  0.5308
  157MOL    F1019042   6.595   6.050   4.150  0.1518  0.0371  0.1261
  157MOL    H1119043   6.478   5.852   3.923 -0.7124  1.5228  0.3228
  157MOL    H1219044   6.412   5.884   4.076  0.3762  1.3957  1.0314
  157MOL    H1319045   6.491   6.073   3.978  0.2326 -0.2548 -0.5642
  157MOL    C1419046   6.703   6.020   3.937 -0.3660 -0.7734 -0.0628
  157MOL    C1519047   6.683   6.020   3.777  0.4225 -0.2828  1.1408
  157MOL    F1619048   6.574   6.077   3.747  1.0369 -0.1357  0.1639
  157MOL    H1719049   6.745   6.116   3.967  1.0890 -1.6204  0.6901
  157MOL    H1819050   6.775   5.948   3.976  1.1190 -0.8556 -2.7694
  157MOL    H1919051   6.659   5.918   3.745  1.6667 -0.2371  0.0144
  157MOL    C2019052   6.802   6.066   3.684 -0.3135  0.1670 -0.5613
  157MOL    C2119053   6.931   5.993   3.716 -0.2049  0.2432  0.1398
  157MOL    F2219054   6.919   5.874   3.766  0.2420 -0.1169 -0.0173
  157MOL    H2319055   6.769   6.051   3.581  1.7885 -1.6853 -1.0012
  157MOL    H2419056   6.810   6.174   3.690  0.5056  0.0241  1.3554
  157MOL    H2519057   6.966   6.048   3.804  1.3010 -0.0976 -0.2202
  157MOL    C2619058   7.030   5.994   3.593  0.2750 -0.2654  0.6248
  157MOL    C2719059   7.173   5.952   3.631  0.2735  0.8218  0.5393
  157MOL    F2819060   7.240   5.913   3.515  0.7384 -0.2830 -0.0740
  157MOL    H2919061   7.003   5.924   3.514  2.4728  0.7921 -1.1239
  157MOL    H3019062   7.036   6.095   3.553 -0.1898 -0.3911  0.2327
  157MOL    H3119063   7.168   5.855   3.681 -1.3765  0.8592  0.4624
  157MOL    C3219064   7.251   6.064   3.707 -0.4432 -0.1862  0.8150
  157MOL    C3319065   7.386   6.016   3.783 -0.3372  0.4591  0.0539
  157MOL    F3419066   7.460   6.114   3.841  0.0800 -0.6977  0.2100
  157MOL    H3519067   7.276   6.144   3.638  1.4442 -2.7802 -1.5844
  157MOL    H3619068   7.184   6.108   3.782 -2.6244  0.1470 -1.2825
  157MOL    H3719069   7.451   5.969   3.709 -0.5764 -1.6580  1.1230
  157MOL    C3819070   7.354   5.913   3.891 -0.2910  0.2645  0.2041
  157MOL    C3919071   7.472   5.850   3.957 -0.2114  0.2441 -0.0623
  157MOL    F4019072   7.423   5.771   4.052 -0.0298 -0.2368  0.2256
  157MOL    H4119073   7.282   5.968   3.951  0.8746  0.6540  1.2534
  157MOL    H4219074   7.290   5.828   3.864  0.5281  0.0248 -1.0123
  157MOL    H4319075   7.528   5.928   4.009  0.5056  0.0376 -0.5181
  157MOL    C4419076   7.553   5.757   3.872 -0.5400 -0.1274 -0.3469
  157MOL    C4519077   7.645   5.669   3.948 -0.0266 -0.3042 -0.4489
  157MOL    F4619078   7.696   5.577   3.865  0.3187 -0.1051 -0.3333
  157MOL    H4719079   7.492   5.687   3.814 -1.4307 -1.0851  1.7120
  157MOL    H4819080   7.609   5.813   3.797 -0.3124  2.2260  1.5434
  157MOL    H4919081   7.596   5.603   4.020 -1.1141  0.4964 -0.4361
  157MOL    C5019082   7.763   5.730   4.029 -0.2741 -0.4411 -0.4537
  157MOL    C5119083   7.859   5.821   3.943  0.1852 -0.3802 -0.4542
  157MOL    F5219084   7.807   5.938   3.911 -0.1425 -0.2050  0.1452
  157MOL    H5319085   7.726   5.779   4.119  0.1114  0.4531 -0.7654
  157MOL    H5419086   7.817   5.640   4.057 -0.3456 -0.4322 -0.2901
  157MOL    H5519087   7.877   5.782   3.842  0.3421  0.9061 -0.9288
  157MOL    C5619088   7.989   5.848   4.016 -0.1474  0.0761 -0.3639
  157MOL    C5719089   0.072   5.717   4.046  0.4229 -0.0772  0.6201
  157MOL    F5819090   0.094   5.664   3.928  0.0302 -0.1667  0.2840
  157MOL    H5919091   0.041   5.926   3.963 -0.3803  1.1707  0.9591
  157MOL    H6019092   7.960   5.891   4.112  1.7484  0.7686 -0.0880
  157MOL    H6119093   0.021   5.649   4.113 -2.3235  0.6353 -0.6826
  157MOL    C6219094   0.217   5.742   4.101  0.3978 -0.1237 -0.0051
  157MOL    C6319095   0.212   5.831   4.224 -0.7193  0.6422 -0.2546
  157MOL    F6419096   0.114   5.803   4.311  0.1403 -0.1586  0.0665
  157MOL    H6519097   0.257   5.645   4.130 -0.6184  0.0740  2.1076
  157MOL    H6619098   0.290   5.780   4.030 -1.2264  0.4789 -1.3976
  157MOL    H6719099   0.196   5.934   4.193 -0.4657  0.9159  0.5026
  157MOL    C6819100   0.342   5.841   4.309 -0.4031  0.0517  0.4939
  157MOL    C6919101   0.369   5.724   4.403  0.0146 -0.0550 -0.0698
  157MOL    F7019102   0.350   5.605   4.340  0.1300 -0.2082  0.6792
  157MOL    H7119103   0.423   5.854   4.237  0.0809 -2.9663  0.4199
  157MOL    H7219104   0.347   5.934   4.366 -1.1109  0.7123 -0.5198
  157MOL    H7319105   0.299   5.738   4.485  0.4529 -0.7924  0.4403
  157MOL    C7419106   0.510   5.728   4.461  0.4296 -0.2519 -0.0226
  157MOL    C7519107   0.531   5.649   4.591 -0.2071  0.0841 -0.8578
  157MOL    F7619108   0.661   5.662   4.630 -0.5075  0.2854 -0.0344
  157MOL    H7719109   0.584   5.696   4.387 -0.0451  0.6427 -0.8940
  157MOL    H7819110   0.541   5.831   4.480 -0.7440  0.0847  0.1009
  157MOL    H7919111   0.512   5.546   4.561  1.5922 -0.5570  0.1128
  157MOL    C8019112   0.461   5.693   4.717 -0.0607  0.6273 -0.4690
  157MOL    C8119113   0.488   5.840   4.758 -0.1968  0.4467  0.6194
  157MOL    F8219114   0.407   5.912   4.687 -0.2547 -0.5931 -0.0553
  157MOL    H8319115   0.353   5.691   4.706 -0.0502  1.8528 -0.8381
  157MOL    H8419116   0.493   5.625   4.796 -0.6509  2.5938  1.4992
  157MOL    H8519117   0.588   5.874   4.730 -0.4856  0.6235 -0.2004
  157MOL    C8619118   0.479   5.875   4.899 -0.8578  0.0214 -0.1016
  157MOL    C8719119   0.604   5.818   4.984  0.5363 -0.9327 -0.1987
  157MOL    F8819120   0.719   5.878   4.945 -0.0017  0.2801  0.2537
  157MOL    H8919121   0.486   5.984   4.899  0.8025 -0.0685  0.3573
  157MOL    H9019122   0.390   5.823   4.935  0.5978 -2.5932 -0.1623
  157MOL    H9119123   0.630   5.713   4.968  1.3042 -0.9265  0.9366
  157MOL    C9219124   0.587   5.848   5.126  0.1802  0.6646  0.2580
  157MOL    C9319125   0.528   5.735   5.217  0.0385 -0.3998  0.4124
  157MOL    F9419126   0.429   5.671   5.160  0.0370  0.1019  0.4325
  157MOL    H9519127   0.685   5.873   5.166 -1.5998  2.1979  3.9097
  157MOL    H9619128   0.527   5.938   5.141  0.1198  0.3265  2.2368
  157MOL    H9719129   0.484   5.777   5.307  1.2791 -0.9214  1.2667
  157MOL    C9819130   0.631   5.628   5.254 -0.0350 -1.2436  0.2929
  157MOL    C9919131   0.577   5.537   5.364 -1.0292  0.4835  0.1229
  157MOL   F10019132   0.486   5.451   5.312  0.3967 -0.0253  0.3936
  157MOL   H10119133   0.660   5.574   5.164 -0.5427 -1.7166  0.4092
  157MOL   H10219134   0.727   5.671   5.284  0.7108 -1.1345 -2.1526
  157MOL   H10319135   0.521   5.598   5.435 -0.7180  1.5623 -0.5501
  157MOL   C10419136   0.691   5.447   5.432 -1.1638  0.4049 -0.0700
  157MOL   C10519137   0.632   5.339   5.527 -0.7379  0.4151  0.6312
  157MOL   F10619138   0.724   5.254   5.566  0.3276 -0.1096  0.1510
  157MOL   H10719139   0.735   5.392   5.349  0.2441 -2.3041  2.3943
  157MOL   H10819140   0.759   5.521   5.473  0.8578  0.8159 -3.8739
  157MOL   H10919141   0.566   5.271   5.473  1.3515 -2.2527  1.3041
  157MOL   C11019142   0.577   5.388   5.659  0.4726 -0.3594 -0.5223
  157MOL   C11119143   0.501   5.284   5.737  0.2807 -0.0810 -0.5158
  157MOL   F11219144   0.468   5.336   5.857 -0.4762  0.5674 -0.4549
  157MOL   H11319145   0.650   5.432   5.727  2.3587 -1.8594 -1.5166
  157MOL   H11419146   0.507   5.467   5.633  0.4117 -0.1634  0.2174
  157MOL   H11519147   0.563   5.195   5.747 -0.9245 -0.7833  1.0857
  157MOL   C11619148   0.373   5.227   5.664 -0.2612 -0.5485  0.2420
  157MOL   C11719149   0.258   5.327   5.663 -0.1868  0.8414  0.2540
  157MOL   F11819150   0.173   5.271   5.574 -1.1501 -0.0782  0.0758
  157MOL   H11919151   0.390   5.199   5.561 -1.3646  2.3127 -0.7827
  157MOL   H12019152   0.344   5.134   5.714 -0.6982 -2.1163 -2.8596
  157MOL   H12119153   0.293   5.420   5.618 -0.1691  0.1458 -1.2192
  157MOL   H12219154   0.211   5.341   5.760 -0.9299  0.6221 -0.0711
  158MOL     C119155   5.276   5.127   7.418  0.5766  1.0231  0.8662
  158MOL     C219156   5.352   5.218   7.322 -0.3945 -0.3969  0.0803
  158MOL     F319157   5.456   5.260   7.390 -0.3651 -0.0097  0.3969
  158MOL     H419158   5.261   5.194   7.503 -0.4938 -0.1391  1.6244
  158MOL     H519159   5.340   5.047   7.454  0.1087  0.4684  0.4881
  158MOL     H619160   5.286   5.302   7.297 -1.7574 -1.5718 -0.3284
  158MOL     H719161   5.179   5.097   7.376  1.1149 -0.4340  0.6110
  158MOL     C819162   5.407   5.132   7.205  0.1624  0.4735 -0.0607
  158MOL     C919163   5.309   5.107   7.091  0.4370 -0.5468  0.3236
  158MOL    F1019164   5.259   5.231   7.058  0.1043 -0.3625 -0.4004
  158MOL    H1119165   5.488   5.194   7.167  1.0352 -0.7611 -0.2354
  158MOL    H1219166   5.450   5.036   7.233 -2.0080 -0.3786  0.4155
  158MOL    H1319167   5.219   5.057   7.126 -0.5960 -0.5316 -2.2310
  158MOL    C1419168   5.370   5.045   6.969  0.0017  0.7935  0.1033
  158MOL    C1519169   5.294   5.046   6.844 -0.4049  0.6934 -0.0696
  158MOL    F1619170   5.301   5.166   6.783  0.3165  0.3466  0.2233
  158MOL    H1719171   5.464   5.092   6.939  0.5054 -1.7771 -2.5881
  158MOL    H1819172   5.388   4.943   7.002 -1.5052  1.0481  1.7865
  158MOL    H1919173   5.191   5.043   6.880 -0.4480  1.3808 -0.1229
  158MOL    C2019174   5.334   4.929   6.743 -0.0459  0.1163 -0.0809
  158MOL    C2119175   5.249   4.918   6.616 -0.1424 -0.4746  0.2984
  158MOL    F2219176   5.302   4.842   6.524 -0.1008  0.0936 -0.0433
  158MOL    H2319177   5.439   4.938   6.714 -0.2709  0.5289 -0.7929
  158MOL    H2419178   5.323   4.837   6.800 -0.7220  0.7602  0.8540
  158MOL    H2519179   5.223   5.006   6.556  0.5141  0.6906  1.6743
  158MOL    C2619180   5.117   4.841   6.645 -0.6216  0.5586 -0.3996
  158MOL    C2719181   5.010   4.828   6.533 -1.3387 -0.8244 -0.7808
  158MOL    F2819182   4.991   4.948   6.480 -0.4478  0.2495 -0.2190
  158MOL    H2919183   5.138   4.738   6.674  0.1962  1.1388  1.1136
  158MOL    H3019184   5.079   4.886   6.736  1.6200 -0.7188  1.2247
  158MOL    H3119185   4.917   4.818   6.589 -1.3209 -0.3867 -0.6698
  158MOL    C3219186   5.031   4.711   6.438  0.5930 -0.3625 -0.4766
  158MOL    C3319187   4.925   4.700   6.331 -0.0549  0.2503  0.4661
  158MOL    F3419188   4.969   4.606   6.241  0.0796 -0.0054  0.3555
  158MOL    H3519189   5.128   4.708   6.387  1.4798  0.1145  1.1463
  158MOL    H3619190   5.028   4.624   6.502 -0.3788  0.4039  0.5354
  158MOL    H3719191   4.924   4.795   6.279  1.7395  0.6232  1.0909
  158MOL    C3819192   4.781   4.651   6.373  0.3197 -0.2122  0.2600
  158MOL    C3919193   4.676   4.660   6.254 -0.2706 -0.0164  0.0532
  158MOL    F4019194   4.566   4.607   6.301  0.3668  0.2475  0.0823
  158MOL    H4119195   4.788   4.545   6.400 -0.7149  0.3426  2.8183
  158MOL    H4219196   4.745   4.708   6.458  1.6043 -0.0147  0.6790
  158MOL    H4319197   4.710   4.603   6.168  0.2990  0.5434 -0.0906
  158MOL    C4419198   4.633   4.799   6.204  0.7009 -0.5484 -0.1350
  158MOL    C4519199   4.572   4.798   6.060 -0.4075  0.1171 -0.3885
  158MOL    F4619200   4.496   4.905   6.052  0.2371 -0.1556 -0.6535
  158MOL    H4719201   4.564   4.845   6.274  1.2696 -1.0063  0.7395
  158MOL    H4819202   4.723   4.860   6.203  0.0364  0.4297  0.1591
  158MOL    H4919203   4.508   4.713   6.038  0.5938 -0.5270 -0.8586
  158MOL    C5019204   4.680   4.814   5.947 -0.6780  0.3387  0.1438
  158MOL    C5119205   4.780   4.695   5.938  0.2032 -0.2272  0.0943
  158MOL    F5219206   4.711   4.581   5.927 -0.4647 -0.2095 -0.3709
  158MOL    H5319207   4.640   4.830   5.847  1.8047 -2.2998 -1.3657
  158MOL    H5419208   4.740   4.902   5.968 -0.9534  0.7092 -0.6062
  158MOL    H5519209   4.845   4.695   6.026  0.8167  0.8404 -0.3565
  158MOL    C5619210   4.868   4.703   5.810  0.0821 -0.0864 -0.6102
  158MOL    C5719211   4.975   4.593   5.812 -0.2978 -0.6831  0.4171
  158MOL    F5819212   4.908   4.479   5.818  0.3958  0.0146  0.2525
  158MOL    H5919213   4.815   4.701   5.715 -0.0459  0.0624 -0.5418
  158MOL    H6019214   4.915   4.801   5.804  0.9810 -0.5364 -0.9871
  158MOL    H6119215   5.037   4.609   5.900 -0.7254  0.5731  0.4909
  158MOL    C6219216   5.057   4.603   5.685 -0.3633  0.1388  0.1909
  158MOL    C6319217   5.178   4.507   5.668  0.6951  0.4545 -0.3514
  158MOL    F6419218   5.249   4.517   5.785  0.2617  0.2036  0.7165
  158MOL    H6519219   4.994   4.594   5.597 -1.6232  0.6079  1.0185
  158MOL    H6619220   5.102   4.702   5.674  1.2842 -0.6327 -0.1705
  158MOL    H6719221   5.246   4.547   5.593  1.4316 -0.1830 -0.0294
  158MOL    C6819222   5.145   4.358   5.654  0.5717  0.2429 -0.0633
  158MOL    C6919223   5.084   4.313   5.519  0.6320  0.7156  0.4429
  158MOL    F7019224   5.182   4.310   5.424 -0.4807 -0.1780 -0.3712
  158MOL    H7119225   5.235   4.302   5.680 -1.1459 -1.4020  2.5776
  158MOL    H7219226   5.081   4.339   5.741 -1.0196 -1.1895 -1.5023
  158MOL    H7319227   5.007   4.383   5.486  0.7220  0.3491 -0.5589
  158MOL    C7419228   5.019   4.174   5.517 -0.0373  0.1635 -0.3980
  158MOL    C7519229   4.899   4.153   5.417  0.2937  0.6963 -0.2569
  158MOL    F7619230   4.801   4.242   5.437  0.0708  0.1107 -0.2480
  158MOL    H7719231   5.086   4.089   5.527  0.0962  0.0603 -2.0445
  158MOL    H7819232   4.960   4.171   5.608  0.9966 -2.0598  0.2422
  158MOL    H7919233   4.854   4.053   5.419  2.0435 -0.1503 -1.5671
  158MOL    C8019234   4.950   4.165   5.270 -0.0060  0.2263 -0.0812
  158MOL    C8119235   4.874   4.077   5.166  0.0238 -0.1542 -0.4315
  158MOL    F8219236   4.879   3.947   5.186 -0.1645  0.1500 -0.3934
  158MOL    H8319237   4.961   4.270   5.245 -0.7903  0.5137  0.7469
  158MOL    H8419238   5.053   4.129   5.271 -0.2830 -0.7609 -2.4963
  158MOL    H8519239   4.926   4.101   5.073  1.0939 -1.7237 -0.2602
  158MOL    C8619240   4.725   4.111   5.140  0.3660  0.1656 -0.3559
  158MOL    C8719241   4.710   4.247   5.078 -0.2551  0.1695 -0.5774
  158MOL    F8819242   4.750   4.246   4.947  0.6740  0.3496  0.2704
  158MOL    H8919243   4.692   4.032   5.073 -1.9283  0.9761 -0.2108
  158MOL    H9019244   4.681   4.093   5.238  2.0970 -0.7341  0.2746
  158MOL    H9119245   4.773   4.311   5.140  1.2869 -1.7117 -0.1769
  158MOL    C9219246   4.561   4.302   5.078 -0.4905 -0.6837  0.2495
  158MOL    C9319247   4.539   4.446   5.020  0.2198 -0.1346  0.7654
  158MOL    F9419248   4.609   4.525   5.101 -0.0145  0.4655  0.3639
  158MOL    H9519249   4.499   4.224   5.034 -0.5463  0.2524 -1.3459
  158MOL    H9619250   4.520   4.302   5.179 -2.5643 -3.3418 -0.5301
  158MOL    H9719251   4.437   4.480   5.038 -0.9013 -1.8131 -1.9339
  158MOL    C9819252   4.566   4.466   4.874  0.1773  0.1721 -0.8482
  158MOL    C9919253   4.477   4.392   4.772 -1.4620 -0.3356  0.5822
  158MOL   F10019254   4.349   4.430   4.782  0.1035  0.5630 -0.0528
  158MOL   H10119255   4.545   4.572   4.858  0.8207  0.1710 -1.7006
  158MOL   H10219256   4.673   4.450   4.863  0.0766  0.2178 -1.9040
  158MOL   H10319257   4.486   4.287   4.800  0.0140 -0.6334 -0.9040
  158MOL   C10419258   4.514   4.410   4.620 -0.4503 -0.6163 -0.3101
  158MOL   C10519259   4.466   4.282   4.542 -0.2476 -0.3680  0.6322
  158MOL   F10619260   4.345   4.238   4.572 -0.3986  0.2656  0.1054
  158MOL   H10719261   4.472   4.500   4.576  1.2151  0.5250  0.3593
  158MOL   H10819262   4.622   4.417   4.605 -0.5739  0.6901 -0.6130
  158MOL   H10919263   4.530   4.204   4.584  0.6071  0.6108  1.2051
  158MOL   C11019264   4.474   4.285   4.381 -0.3373 -0.3138  0.0878
  158MOL   C11119265   4.613   4.308   4.324  0.6373 -0.1305 -0.3849
  158MOL   F11219266   4.692   4.220   4.386 -0.0369  0.2956 -0.0277
  158MOL   H11319267   4.433   4.195   4.336 -1.7582  0.5055 -0.2997
  158MOL   H11419268   4.412   4.368   4.347 -0.3668 -1.0288 -1.6396
  158MOL   H11519269   4.648   4.408   4.350 -1.4962  0.0812  1.8139
  158MOL   C11619270   4.628   4.285   4.173  0.7283 -0.3302 -0.4715
  158MOL   C11719271   4.772   4.304   4.127 -0.3810 -0.5393 -0.2060
  158MOL   F11819272   4.765   4.321   3.994 -0.7759 -0.1649 -0.3303
  158MOL   H11919273   4.593   4.186   4.145 -1.2053 -0.0177  0.7684
  158MOL   H12019274   4.560   4.354   4.122 -0.0780 -0.8555 -0.1165
  158MOL   H12119275   4.847   4.229   4.154  1.7241  1.4402 -0.3278
  158MOL   H12219276   4.809   4.399   4.167 -0.7619 -0.1840 -0.6753
  159MOL     C119277   0.866   1.030   7.214  0.6041  0.7290 -0.4991
  159MOL     C219278   0.966   1.103   7.116  0.1264  0.9193  0.2622
  159MOL     F319279   1.005   1.204   7.194 -0.0741 -0.0333  0.0879
  159MOL     H419280   0.770   1.082   7.205 -0.3078 -0.3740  2.3002
  159MOL     H519281   0.898   1.031   7.318 -1.0629  0.1662  0.0441
  159MOL     H619282   0.921   1.152   7.030  2.6720  0.8653 -1.1282
  159MOL     H719283   0.854   0.928   7.179  1.7081 -0.0409  1.3166
  159MOL     C819284   1.086   1.007   7.073 -0.6195  0.3299  0.2948
  159MOL     C919285   1.113   1.005   6.921 -0.0025 -1.2448 -0.0386
  159MOL    F1019286   1.209   0.931   6.890 -0.9638  0.4011 -0.0438
  159MOL    H1119287   1.174   1.050   7.121 -0.0937  0.1281 -0.4714
  159MOL    H1219288   1.059   0.907   7.106 -1.5997  0.3666 -0.3858
  159MOL    H1319289   1.145   1.104   6.890  1.0553 -1.4323  0.4338
  159MOL    C1419290   0.995   0.948   6.830 -0.3726 -0.1537  0.1609
  159MOL    C1519291   0.953   0.806   6.857 -0.3148  0.0692 -0.7403
  159MOL    F1619292   0.855   0.809   6.948  0.2957  0.9661 -0.6033
  159MOL    H1719293   0.905   1.008   6.842 -0.3074 -0.4857  2.6920
  159MOL    H1819294   1.031   0.967   6.729 -1.2665  1.4143  0.1334
  159MOL    H1919295   1.033   0.740   6.892  1.2473  3.0202  1.5909
  159MOL    C2019296   0.878   0.741   6.739 -0.1198 -0.1779  0.7665
  159MOL    C2119297   0.905   0.593   6.715 -0.1860 -0.7744 -0.3824
  159MOL    F2219298   1.029   0.580   6.678 -0.2470  0.0617  0.0617
  159MOL    H2319299   0.771   0.748   6.759 -0.4311 -2.0563 -0.1136
  159MOL    H2419300   0.889   0.796   6.646 -1.1516 -2.6879 -0.9310
  159MOL    H2519301   0.842   0.556   6.634 -0.7124  1.0391 -0.8195
  159MOL    C2619302   0.880   0.488   6.830  0.5901 -0.3903  0.2336
  159MOL    C2719303   0.730   0.456   6.858  0.2901 -0.5922 -0.0150
  159MOL    F2819304   0.658   0.447   6.746 -0.2097 -0.1084 -0.0039
  159MOL    H2919305   0.926   0.395   6.795  0.6860 -0.2987  0.1183
  159MOL    H3019306   0.939   0.526   6.914  2.3178  1.9330 -1.9345
  159MOL    H3119307   0.686   0.548   6.897  3.3335  0.2446  1.5780
  159MOL    C3219308   0.695   0.327   6.939 -0.1628 -0.2086 -0.5821
  159MOL    C3319309   0.685   0.362   7.089 -0.6516  0.0369 -0.0415
  159MOL    F3419310   0.567   0.420   7.109 -0.4834  0.1058  0.6920
  159MOL    H3519311   0.599   0.290   6.905  0.3506 -0.5130 -1.7265
  159MOL    H3619312   0.769   0.249   6.917  1.2492  1.0154 -0.2120
  159MOL    H3719313   0.767   0.428   7.121  1.4483 -1.2556 -2.5484
  159MOL    C3819314   0.682   0.237   7.179  0.2371  0.6007  0.5310
  159MOL    C3919315   0.563   0.137   7.152 -0.2920 -0.2481 -0.5571
  159MOL    F4019316   0.596   0.049   7.058 -0.2023 -0.0012 -0.3796
  159MOL    H4119317   0.773   0.178   7.164  0.1381  0.7789 -0.8732
  159MOL    H4219318   0.676   0.279   7.279  1.4551  2.4775 -0.1445
  159MOL    H4319319   0.478   0.189   7.107  0.2717 -0.0325 -1.3743
  159MOL    C4419320   0.512   0.062   7.280  0.6790  0.0270  0.2725
  159MOL    C4519321   0.411   0.138   7.366  0.1852 -0.1488 -0.1174
  159MOL    F4619322   0.302   0.149   7.296 -0.3741 -0.0964 -0.0791
  159MOL    H4719323   0.460   7.972   7.258  0.1161  0.5587 -0.6495
  159MOL    H4819324   0.599   0.051   7.345 -1.3522 -1.3091  2.8567
  159MOL    H4919325   0.430   0.245   7.379 -0.9429 -0.1068  1.2836
  159MOL    C5019326   0.367   0.083   7.499 -0.3431  0.0701  0.2042
  159MOL    C5119327   0.472   0.080   7.614 -0.0990  0.4406  0.4191
  159MOL    F5219328   0.537   7.970   7.588  0.1658  0.2839 -0.2468
  159MOL    H5319329   0.282   0.136   7.543  2.2680  2.1375  2.9584
  159MOL    H5419330   0.332   7.983   7.489  3.7795 -1.2828 -1.1083
  159MOL    H5519331   0.415   0.073   7.707 -0.9220 -0.3230 -0.1420
  159MOL    C5619332   0.559   0.198   7.621  0.2984 -0.4670  0.1085
  159MOL    C5719333   0.656   0.193   7.735  0.6792  0.0428  1.1068
  159MOL    F5819334   0.727   0.087   7.719 -0.1376 -0.2686  0.0256
  159MOL    H5919335   0.608   0.209   7.524  1.5354  0.9892  0.8689
  159MOL    H6019336   0.484   0.274   7.643  0.1398  0.0169 -2.0410
  159MOL    H6119337   0.600   0.178   7.827 -1.4501  2.4963  0.2931
  159MOL    C6219338   0.742   0.314   7.731 -0.7815  0.1713 -0.1223
  159MOL    C6319339   0.848   0.310   7.845  0.2052  0.3202 -0.1980
  159MOL    F6419340   0.921   0.419   7.837 -0.6507  0.6225  0.2997
  159MOL    H6519341   0.798   0.328   7.638  0.8093 -0.2290  0.7537
  159MOL    H6619342   0.688   0.405   7.757  1.2395  1.1330  0.8876
  159MOL    H6719343   0.918   0.235   7.808 -0.9693  0.1768 -2.2440
  159MOL    C6819344   0.805   0.274   7.983  0.8173  0.0713  0.1278
  159MOL    C6919345   0.920   0.273   0.077 -0.0969  0.6907 -0.0077
  159MOL    F7019346   0.936   0.378   0.150  0.1971  0.1550  0.4558
  159MOL    H7119347   0.723   0.332   0.021  0.3381 -0.0240 -0.6841
  159MOL    H7219348   0.769   0.171   7.973 -0.2408  0.5085 -0.6297
  159MOL    H7319349   1.015   0.265   0.024 -0.3536 -1.2132 -0.2109
  159MOL    C7419350   0.909   0.159   0.188  0.2980 -0.6800  0.2704
  159MOL    C7519351   0.771   0.159   0.264  0.0153 -0.3166 -0.0424
  159MOL    F7619352   0.671   0.130   0.188  0.0475  0.1292 -0.9516
  159MOL    H7719353   0.936   0.059   0.155 -0.1972 -0.6451 -0.2502
  159MOL    H7819354   0.994   0.182   0.252  0.8674  1.4647 -1.2077
  159MOL    H7919355   0.752   0.258   0.306 -1.9744 -1.3728  1.6632
  159MOL    C8019356   0.777   0.059   0.380  0.7177  0.2677  0.4229
  159MOL    C8119357   0.640   0.042   0.445  0.1480  0.3938 -1.4952
  159MOL    F8219358   0.663   7.970   0.554  0.0862  0.1962 -0.2415
  159MOL    H8319359   0.810   7.970   0.333 -1.7859  0.2270 -1.3783
  159MOL    H8419360   0.854   0.088   0.451 -0.1259 -0.4755  1.6751
  159MOL    H8519361   0.577   7.990   0.375 -0.1618 -0.0550 -0.8659
  159MOL    C8619362   0.574   0.175   0.496  0.2532 -0.3992  0.8271
  159MOL    C8719363   0.448   0.159   0.581 -0.3645 -0.0091  0.5811
  159MOL    F8819364   0.489   0.126   0.708 -0.3129 -0.1655  0.2872
  159MOL    H8919365   0.641   0.228   0.564  0.0389  0.0370  0.6992
  159MOL    H9019366   0.544   0.245   0.418 -1.2238  1.1471  2.7224
  159MOL    H9119367   0.393   0.072   0.544  0.9308 -0.8327  0.5387
  159MOL    C9219368   0.362   0.286   0.598  0.0271 -0.6713  0.4538
  159MOL    C9319369   0.288   0.334   0.473 -0.7300  0.0808 -0.3559
  159MOL    F9419370   0.233   0.223   0.417  0.8205 -0.4241  0.1608
  159MOL    H9519371   0.284   0.241   0.660 -1.7714 -1.0240 -1.9649
  159MOL    H9619372   0.415   0.369   0.643 -0.5275  0.1193 -0.3410
  159MOL    H9719373   0.360   0.372   0.400  0.7901 -0.2875  0.9143
  159MOL    C9819374   0.191   0.452   0.493 -0.3699 -0.8398 -0.5160
  159MOL    C9919375   0.115   0.525   0.370 -0.7341  0.4995  0.1570
  159MOL   F10019376   0.217   0.565   0.295  0.7020  0.0351 -0.2247
  159MOL   H10119377   0.119   0.421   0.568  0.1777 -2.3235 -0.5830
  159MOL   H10219378   0.262   0.520   0.539  0.0340 -1.0863 -0.7692
  159MOL   H10319379   0.069   0.617   0.406 -1.7773  0.7866 -1.8421
  159MOL   C10419380   0.011   0.435   0.299  0.4386  0.2878  0.3764
  159MOL   C10519381   7.914   0.359   0.399  0.6880 -0.3907  0.3238
  159MOL   F10619382   7.870   0.446   0.489  0.1553 -0.0788  0.3013
  159MOL   H10719383   7.970   0.510   0.234  0.0995 -0.3593 -0.1570
  159MOL   H10819384   0.063   0.368   0.231 -0.5873  1.9443 -2.0938
  159MOL   H10919385   7.969   0.282   0.453  1.5041 -1.2469 -1.6797
  159MOL   C11019386   7.796   0.295   0.323  1.1595  0.3925 -0.1454
  159MOL   C11119387   7.832   0.196   0.210  0.0678 -0.4625 -0.2636
  159MOL   F11219388   7.895   0.095   0.272 -0.3581  0.3524  0.3812
  159MOL   H11319389   7.729   0.237   0.387  0.1309 -0.5934 -2.0537
  159MOL   H11419390   7.742   0.378   0.277 -0.8552  0.1889  1.7431
  159MOL   H11519391   7.899   0.232   0.133 -1.6439  2.1607 -0.6153
  159MOL   C11619392   7.706   0.152   0.135 -0.0587  0.5433  0.2310
  159MOL   C11719393   7.749   0.084   0.011 -0.4239 -0.0750  0.1768
  159MOL   F11819394   7.802   0.175   7.930  0.0304 -0.3133 -0.1715
  159MOL   H11919395   7.644   0.094   0.204  1.3045 -2.6139 -1.1382
  159MOL   H12019396   7.649   0.230   0.084 -1.2359  0.6096  1.6144
  159MOL   H12119397   7.661   0.045   7.964 -0.2471 -0.0185 -0.1786
  159MOL   H12219398   7.825   0.009   0.034  3.7372  3.6573 -0.5168
  160MOL     C119399   5.125   6.569   0.161 -0.0814 -1.0791  0.9390
  160MOL     C219400   5.026   6.611   0.057  0.0800 -0.0913 -0.0149
  160MOL     F319401   4.907   6.557   0.093 -0.5452 -0.1712  0.2725
  160MOL     H419402   5.097   6.609   0.258 -1.0896  0.2098  0.1389
  160MOL     H519403   5.225   6.595   0.125 -0.7245 -1.1802 -1.0223
  160MOL     H619404   5.051   6.549   7.974 -0.4900 -0.9961  0.4612
  160MOL     H719405   5.119   6.461   0.162  0.8553 -1.1475  0.0408
  160MOL     C819406   5.028   6.760   0.028 -0.2092  0.0758  1.1013
  160MOL     C919407   4.963   6.865   0.125  0.1969 -0.2475 -0.8595
  160MOL    F1019408   4.983   6.983   0.074 -0.3108  0.2305 -0.6792
  160MOL    H1119409   5.130   6.789   0.007 -0.1105 -0.7743  0.3602
  160MOL    H1219410   4.984   6.775   7.933  0.0981 -0.3989  0.8925
  160MOL    H1319411   5.010   6.865   0.223  1.4278 -2.0456 -1.4281
  160MOL    C1419412   4.813   6.854   0.140  0.0273 -0.2189  0.4085
  160MOL    C1519413   4.751   6.932   0.263  0.4230 -0.2696  0.2888
  160MOL    F1619414   4.783   7.061   0.259  0.2926 -0.5766 -0.1521
  160MOL    H1719415   4.762   6.873   0.046 -0.8142 -0.0524  0.8939
  160MOL    H1819416   4.797   6.746   0.148 -0.7320 -0.1994 -0.8110
  160MOL    H1919417   4.802   6.897   0.353 -0.1485 -1.0432  0.3166
  160MOL    C2019418   4.600   6.919   0.277 -0.1751  0.0578  0.2100
  160MOL    C2119419   4.547   6.944   0.418 -0.3173  0.1681 -0.0826
  160MOL    F2219420   4.597   6.854   0.502 -0.3194  0.1059  0.1546
  160MOL    H2319421   4.545   6.970   0.198 -1.8443 -1.7666  0.1353
  160MOL    H2419422   4.576   6.814   0.259 -0.7037  0.1742  0.2258
  160MOL    H2519423   4.441   6.923   0.415 -0.1082 -0.8463 -0.4837
  160MOL    C2619424   4.553   7.091   0.467 -0.5722 -0.7183 -0.0706
  160MOL    C2719425   4.464   7.121   0.587 -0.2661  0.4163 -0.2914
  160MOL    F2819426   4.519   7.048   0.686  0.3110 -0.4534 -0.3509
  160MOL    H2919427   4.656   7.112   0.498 -0.5822  1.1820 -1.2103
  160MOL    H3019428   4.529   7.152   0.380  0.2201  1.4754  1.2005
  160MOL    H3119429   4.363   7.085   0.567  0.0098  1.4919 -3.9411
  160MOL    C3219430   4.461   7.265   0.629  0.3485  0.1879 -0.3120
  160MOL    C3319431   4.370   7.281   0.751 -0.2858  0.4351  1.6766
  160MOL    F3419432   4.390   7.398   0.822  0.1828  0.7383  0.3865
  160MOL    H3519433   4.562   7.301   0.649  0.5016 -1.1535  1.4328
  160MOL    H3619434   4.434   7.315   0.536  1.7268  0.2646 -0.6827
  160MOL    H3719435   4.384   7.198   0.820 -1.1527 -1.5476 -0.4129
  160MOL    C3819436   4.225   7.296   0.700  0.3965 -0.2489 -0.1959
  160MOL    C3919437   4.115   7.255   0.810 -0.8922 -0.2883 -0.2828
  160MOL    F4019438   4.094   7.337   0.912  0.2358  0.1196  0.0191
  160MOL    H4119439   4.204   7.400   0.672  3.0343  0.5015  0.4955
  160MOL    H4219440   4.207   7.226   0.618 -2.0027  0.6039 -0.4381
  160MOL    H4319441   4.156   7.171   0.866 -0.3135 -0.1040 -0.4291
  160MOL    C4419442   3.981   7.213   0.746 -0.7773 -0.6209  0.4861
  160MOL    C4519443   3.857   7.175   0.824 -0.4381  0.0314  0.6029
  160MOL    F4619444   3.758   7.189   0.735  0.0832  0.0729  0.2517
  160MOL    H4719445   3.955   7.297   0.683 -1.8940 -1.7998 -0.6501
  160MOL    H4819446   4.015   7.133   0.680 -0.4169 -1.5206  1.7208
  160MOL    H4919447   3.847   7.240   0.910  0.2171 -0.1014  0.7873
  160MOL    C5019448   3.858   7.024   0.881 -0.5549 -0.1405 -0.0778
  160MOL    C5119449   3.731   6.975   0.948  0.2228 -0.0725  1.2067
  160MOL    F5219450   3.741   6.838   0.966 -0.0939 -0.1453  0.2011
  160MOL    H5319451   3.879   6.964   0.792 -1.8648  0.2169 -0.6297
  160MOL    H5419452   3.942   7.000   0.947 -2.4188 -2.1027  1.6798
  160MOL    H5519453   3.648   6.994   0.880  0.3458  1.0314  1.3530
  160MOL    C5619454   3.702   7.038   1.083 -0.1161  0.4253 -0.0094
  160MOL    C5719455   3.787   7.008   1.203  0.4248 -0.5235  0.8134
  160MOL    F5819456   3.901   7.076   1.205 -0.2461  0.2467  0.5433
  160MOL    H5919457   3.709   7.145   1.066 -0.8123  0.5383  0.3979
  160MOL    H6019458   3.595   7.021   1.099  0.0787 -0.9981 -0.0932
  160MOL    H6119459   3.806   6.901   1.212  0.8049 -0.4177  1.2757
  160MOL    C6219460   3.719   7.049   1.335 -0.9760  0.6597  0.0733
  160MOL    C6319461   3.606   6.969   1.402  0.2362  0.5987  0.0537
  160MOL    F6419462   3.652   6.844   1.410  0.4428  0.2191  0.3765
  160MOL    H6519463   3.797   7.057   1.411 -1.1650 -0.5590  0.4078
  160MOL    H6619464   3.691   7.154   1.327 -0.8576  0.5892 -1.5115
  160MOL    H6719465   3.519   6.964   1.336 -0.3346 -1.2568  0.9006
  160MOL    C6819466   3.563   7.017   1.534  0.3263 -0.3626  0.1845
  160MOL    C6919467   3.430   6.971   1.592  0.1886  0.1396  0.2166
  160MOL    F7019468   3.432   6.839   1.611  0.2873 -0.0230 -0.1591
  160MOL    H7119469   3.634   6.987   1.610 -0.7046 -4.4613 -0.3288
  160MOL    H7219470   3.571   7.126   1.533 -1.2289 -0.2242  0.5599
  160MOL    H7319471   3.344   6.989   1.527  1.8871 -1.0421 -2.4266
  160MOL    C7419472   3.395   7.036   1.726  0.3435  0.7922  0.1618
  160MOL    C7519473   3.360   7.174   1.721  0.1608 -0.2075  0.8250
  160MOL    F7619474   3.236   7.162   1.678  0.3978 -0.0909 -0.5783
  160MOL    H7719475   3.324   6.972   1.777 -1.0679  1.4460 -0.9477
  160MOL    H7819476   3.484   7.024   1.787  0.7975 -2.3273 -1.0194
  160MOL    H7919477   3.409   7.228   1.640 -2.4013  0.8367 -0.0645
  160MOL    C8019478   3.353   7.243   1.864 -0.2447 -0.0120  0.5778
  160MOL    C8119479   3.480   7.308   1.916  0.0105  0.1656 -0.6297
  160MOL    F8219480   3.510   7.381   1.815  0.3835 -0.2470 -0.2691
  160MOL    H8319481   3.283   7.326   1.858  2.2672  2.1042 -0.2165
  160MOL    H8419482   3.307   7.177   1.937 -0.7208  1.1368  1.3187
  160MOL    H8519483   3.553   7.226   1.912 -1.6614 -1.4033  0.4785
  160MOL    C8619484   3.480   7.385   2.047  0.3568  0.3021 -0.1734
  160MOL    C8719485   3.502   7.291   2.167 -0.1675  0.2055 -0.2167
  160MOL    F8819486   3.630   7.254   2.158 -0.3981  0.2090  0.6237
  160MOL    H8919487   3.563   7.455   2.042 -0.7216  1.7596  1.6688
  160MOL    H9019488   3.396   7.454   2.054  0.8709  0.7699  1.8185
  160MOL    H9119489   3.436   7.205   2.166  0.3986 -0.2448  0.5778
  160MOL    C9219490   3.495   7.349   2.311  0.0633  0.1598  0.3176
  160MOL    C9319491   3.361   7.384   2.361 -0.1571  0.0527  0.0880
  160MOL    F9419492   3.311   7.269   2.399 -0.3288  0.0495  0.0303
  160MOL    H9519493   3.537   7.270   2.373  1.4602 -0.8792 -1.8667
  160MOL    H9619494   3.561   7.434   2.328 -3.3283  2.6706  1.4074
  160MOL    H9719495   3.290   7.425   2.290 -0.8868  2.1409  1.9838
  160MOL    C9819496   3.356   7.487   2.479 -0.4488  0.0250  0.4077
  160MOL    C9919497   3.372   7.414   2.610  0.1387  0.1111  0.8093
  160MOL   F10019498   3.491   7.360   2.627 -0.5467  0.0121  0.5323
  160MOL   H10119499   3.431   7.561   2.452 -0.5057  0.0404  0.2888
  160MOL   H10219500   3.261   7.540   2.481  0.5350  1.7960  0.4870
  160MOL   H10319501   3.299   7.334   2.615  0.8334 -0.5924 -0.1199
  160MOL   C10419502   3.339   7.513   2.728 -0.2168 -0.3884  0.5377
  160MOL   C10519503   3.331   7.444   2.867 -0.1497 -0.4336 -0.3038
  160MOL   F10619504   3.439   7.364   2.888  0.1985  0.1182 -0.3457
  160MOL   H10719505   3.403   7.602   2.737 -0.7921 -0.0321  1.1348
  160MOL   H10819506   3.240   7.557   2.715 -0.8459 -1.4123  1.7901
  160MOL   H10919507   3.246   7.376   2.868 -0.2560 -0.3090  1.3334
  160MOL   C11019508   3.314   7.538   2.987  0.1358 -0.0536 -0.1605
  160MOL   C11119509   3.297   7.478   3.124 -0.1053  0.9368  0.5507
  160MOL   F11219510   3.288   7.588   3.200 -0.0468  0.1659 -0.1462
  160MOL   H11319511   3.405   7.597   2.977 -0.5033  0.7219 -1.6628
  160MOL   H11419512   3.232   7.606   2.962  1.1365  1.0773 -0.4134
  160MOL   H11519513   3.390   7.429   3.150 -0.3049  0.7454  0.9133
  160MOL   C11619514   3.170   7.396   3.135 -0.0265  0.1230  0.5359
  160MOL   C11719515   3.135   7.359   3.273  0.3767 -0.3162 -0.4112
  160MOL   F11819516   3.019   7.286   3.274 -0.5507  0.4673  0.4707
  160MOL   H11919517   3.097   7.458   3.084  2.1549  3.1763  1.0184
  160MOL   H12019518   3.178   7.307   3.072 -3.3089  0.4223 -0.4002
  160MOL   H12119519   3.110   7.441   3.340  0.0498 -1.5566  1.0049
  160MOL   H12219520   3.214   7.306   3.325 -0.9402  1.0845  3.1904
  161MOL     C119521   4.966   1.712   2.009  0.9444 -0.3331 -0.6337
  161MOL     C219522   4.934   1.560   1.990 -0.1838  0.5609 -0.9145
  161MOL     F319523   4.948   1.543   1.857  0.3521  0.1933  0.5685
  161MOL     H419524   4.964   1.744   2.113  1.0729  1.2583 -1.1098
  161MOL     H519525   4.887   1.776   1.969  0.9509  0.5705  0.7616
  161MOL     H619526   4.834   1.535   2.025 -0.0455  0.2596 -0.7305
  161MOL     H719527   5.051   1.745   1.950  0.6861 -0.3568 -1.0197
  161MOL     C819528   5.036   1.460   2.059  0.5973 -0.1549 -0.0760
  161MOL     C919529   4.992   1.313   2.072  0.1260  0.8625  0.0542
  161MOL    F1019530   5.029   1.261   1.952  0.2791 -0.6475 -0.1611
  161MOL    H1119531   5.138   1.475   2.022  0.8068  1.5399  1.1468
  161MOL    H1219532   5.050   1.497   2.160 -0.3342 -1.9578  0.7376
  161MOL    H1319533   4.886   1.297   2.092 -0.0814  1.3876 -0.6278
  161MOL    C1419534   5.063   1.234   2.184  0.5893  0.4260  0.2430
  161MOL    C1519535   5.026   1.086   2.181 -0.4190  0.4392 -0.2228
  161MOL    F1619536   5.074   1.038   2.067 -0.5399 -0.3389 -0.4083
  161MOL    H1719537   5.171   1.244   2.175  0.3531  1.7009 -1.6360
  161MOL    H1819538   5.030   1.272   2.280 -0.2842  0.8121 -0.1981
  161MOL    H1919539   4.920   1.065   2.189 -0.6618  1.8408  0.2988
  161MOL    C2019540   5.101   0.999   2.289  0.5414 -0.3161 -0.1480
  161MOL    C2119541   5.052   1.039   2.425 -0.8276 -0.4788  0.6973
  161MOL    F2219542   4.919   1.030   2.438 -0.0549 -0.5922 -0.0741
  161MOL    H2319543   5.087   0.893   2.272 -0.9381 -0.6465  2.8212
  161MOL    H2419544   5.207   1.024   2.286  0.4410  0.0864 -0.5167
  161MOL    H2519545   5.088   1.138   2.452  0.1968 -1.3124  2.5445
  161MOL    C2619546   5.117   0.941   2.526 -0.9108 -0.1382  0.3768
  161MOL    C2719547   5.270   0.976   2.552  0.1167  0.0080  0.2819
  161MOL    F2819548   5.285   1.110   2.577  0.3204 -0.0495 -0.1584
  161MOL    H2919549   5.064   0.960   2.619 -2.0695 -1.8652  0.0768
  161MOL    H3019550   5.108   0.837   2.495  1.0900  0.0584 -0.9796
  161MOL    H3119551   5.339   0.964   2.468 -0.1134  2.7479 -0.3315
  161MOL    C3219552   5.331   0.884   2.661 -0.1511  0.9416 -0.0816
  161MOL    C3319553   5.471   0.939   2.702  0.2242 -0.8326 -0.9194
  161MOL    F3419554   5.445   1.053   2.772 -0.7780 -0.5142 -0.7795
  161MOL    H3519555   5.261   0.865   2.743 -0.4077  2.5885  0.0909
  161MOL    H3619556   5.344   0.782   2.626 -0.3869  0.1106  2.1570
  161MOL    H3719557   5.526   0.960   2.611 -1.7807 -0.2079 -2.0322
  161MOL    C3819558   5.553   0.841   2.794 -0.2130 -0.2246 -0.1271
  161MOL    C3919559   5.700   0.873   2.821  0.1151 -1.2922  0.1770
  161MOL    F4019560   5.702   0.973   2.910 -0.1339 -0.1783  0.3405
  161MOL    H4119561   5.498   0.819   2.885  0.4709 -1.7354 -0.0553
  161MOL    H4219562   5.543   0.739   2.758 -0.8548  0.3313 -1.5713
  161MOL    H4319563   5.750   0.907   2.730  1.9474 -1.4987  1.0868
  161MOL    C4419564   5.777   0.757   2.866  0.5017 -0.1553 -0.4615
  161MOL    C4519565   5.799   0.645   2.752  1.0320  0.1086 -0.0567
  161MOL    F4619566   5.864   0.692   2.642 -0.4719 -0.6129  0.5382
  161MOL    H4719567   5.873   0.783   2.909  0.9822 -1.9244 -0.4405
  161MOL    H4819568   5.726   0.723   2.957 -1.2164  1.4393 -0.7912
  161MOL    H4919569   5.703   0.614   2.710  0.1426 -0.2928  2.2065
  161MOL    C5019570   5.876   0.516   2.803  0.0826 -0.0812 -0.6876
  161MOL    C5119571   5.872   0.394   2.703  0.6548 -0.1036 -0.5205
  161MOL    F5219572   5.933   0.440   2.592  0.3559  0.3471 -0.4397
  161MOL    H5319573   5.981   0.539   2.825  0.2845  0.6039 -2.2727
  161MOL    H5419574   5.824   0.493   2.896  0.7183  1.8928  0.1981
  161MOL    H5519575   5.767   0.373   2.686  0.4219  1.1319 -0.7149
  161MOL    C5619576   5.947   0.270   2.764 -0.0829 -0.4462  0.5315
  161MOL    C5719577   5.968   0.161   2.657 -0.1264 -0.3050 -0.3887
  161MOL    F5819578   6.039   0.064   2.721  0.5750 -0.2078  0.4155
  161MOL    H5919579   6.049   0.292   2.795  0.3683  0.6140 -1.5827
  161MOL    H6019580   5.883   0.238   2.846 -0.0144  0.0376  0.7796
  161MOL    H6119581   6.034   0.190   2.576 -2.1818 -1.0294 -2.3987
  161MOL    C6219582   5.830   0.108   2.619  0.3170 -0.0619  0.0587
  161MOL    C6319583   5.843   7.990   2.533  0.2330 -0.7542  0.9877
  161MOL    F6419584   5.921   0.028   2.433  0.0518 -0.0298 -0.1270
  161MOL    H6519585   5.769   0.086   2.707 -0.3600  0.4639 -0.2852
  161MOL    H6619586   5.778   0.183   2.560  0.2800  1.0519  1.4686
  161MOL    H6719587   5.748   7.970   2.484 -0.7329 -2.1742  3.3142
  161MOL    C6819588   5.887   7.856   2.587  0.2651 -0.1602 -0.1699
  161MOL    C6919589   5.821   7.805   2.715 -0.6754 -0.2195 -0.2572
  161MOL    F7019590   5.690   7.807   2.688  0.1066 -0.5022  0.1792
  161MOL    H7119591   5.873   7.785   2.505  1.5767 -1.6639  0.8749
  161MOL    H7219592   5.992   7.858   2.616  0.0457  1.1998  0.6098
  161MOL    H7319593   5.839   7.874   2.797  0.4776  2.0542 -2.3598
  161MOL    C7419594   5.876   7.660   2.761  0.2031  0.1608 -0.0248
  161MOL    C7519595   6.031   7.650   2.794 -0.0374 -0.1445 -0.5480
  161MOL    F7619596   6.065   7.743   2.882  0.0637  0.9548 -0.1743
  161MOL    H7719597   5.823   7.625   2.850  0.7634  1.9567  1.0410
  161MOL    H7819598   5.863   7.585   2.683  0.1238 -1.0380  1.1234
  161MOL    H7919599   6.084   7.677   2.702  1.0815  1.1137  0.4423
  161MOL    C8019600   6.073   7.513   2.849  0.2468 -0.1963  0.2293
  161MOL    C8119601   6.222   7.489   2.885 -0.0870 -0.0232  0.2396
  161MOL    F8219602   6.301   7.527   2.790  0.2878  0.1535  0.1095
  161MOL    H8319603   6.011   7.491   2.936  0.1784 -3.3107 -0.5456
  161MOL    H8419604   6.045   7.441   2.773 -0.6311  0.1339  0.2278
  161MOL    H8519605   6.244   7.383   2.898 -0.4059 -0.1460 -0.2364
  161MOL    C8619606   6.280   7.560   3.017  0.3866 -0.1357  0.0228
  161MOL    C8719607   6.426   7.519   3.059 -0.1928  0.4393 -0.1833
  161MOL    F8819608   6.523   7.565   2.983  0.0637  0.1432 -0.5439
  161MOL    H8919609   6.291   7.668   3.007 -0.7063 -0.1155 -1.1366
  161MOL    H9019610   6.200   7.550   3.091 -0.6795 -1.1150 -1.2286
  161MOL    H9119611   6.441   7.412   3.050 -0.0399  0.3967  0.5749
  161MOL    C9219612   6.445   7.564   3.207  0.3859  0.4644  0.1716
  161MOL    C9319613   6.387   7.488   3.321 -0.0662 -0.0459  0.5818
  161MOL    F9419614   6.391   7.359   3.283 -0.3446 -0.4814  0.5044
  161MOL    H9519615   6.552   7.544   3.212  0.2182 -0.0144  2.5682
  161MOL    H9619616   6.423   7.670   3.214 -1.2815  0.1347  0.0195
  161MOL    H9719617   6.280   7.505   3.336 -0.2152  1.2594 -1.6424
  161MOL    C9819618   6.468   7.500   3.444 -0.2773  0.2018  0.6211
  161MOL    C9919619   6.470   7.637   3.510 -0.4733 -0.9724 -0.1384
  161MOL   F10019620   6.342   7.657   3.540  0.2982  0.3094 -0.1207
  161MOL   H10119621   6.428   7.435   3.522 -1.2836  0.4392  0.3074
  161MOL   H10219622   6.571   7.471   3.421 -0.5289  1.7573 -2.7259
  161MOL   H10319623   6.498   7.713   3.437  0.4789 -0.8192  0.3712
  161MOL   C10419624   6.561   7.629   3.637  0.0173 -0.1907  0.6556
  161MOL   C10519625   6.569   7.759   3.718 -0.4673 -0.3254 -0.0255
  161MOL   F10619626   6.454   7.782   3.779 -0.2899 -0.0826  0.0185
  161MOL   H10719627   6.540   7.546   3.705  2.6760  0.2196  2.0244
  161MOL   H10819628   6.663   7.612   3.604 -0.9846 -0.2419 -2.6622
  161MOL   H10919629   6.572   7.843   3.648 -0.2273  0.5224  0.9940
  161MOL   C11019630   6.681   7.767   3.820  0.5502  0.6929  0.4355
  161MOL   C11119631   6.710   7.905   3.876  0.4738 -0.0738  0.3544
  161MOL   F11219632   6.738   7.973   3.766  0.0144  0.6007 -0.1180
  161MOL   H11319633   6.662   7.697   3.901 -3.1962  0.1016 -0.8686
  161MOL   H11419634   6.775   7.723   3.786 -0.4865 -0.1373 -1.3952
  161MOL   H11519635   6.803   7.897   3.932  2.4595 -0.6171 -2.8903
  161MOL   C11619636   6.601   7.969   3.962  0.4251 -0.0315  0.3390
  161MOL   C11719637   6.652   0.098   4.017 -0.5665 -0.6139  0.3205
  161MOL   F11819638   6.554   0.127   4.100  0.4316 -0.1716 -0.5057
  161MOL   H11919639   6.514   7.985   3.898  1.8433  1.4646 -1.2872
  161MOL   H12019640   6.571   7.903   4.044 -1.2305  0.2270 -0.0364
  161MOL   H12119641   6.671   0.177   3.943 -1.5505  0.2426  0.9776
  161MOL   H12219642   6.744   0.078   4.072 -0.6510 -2.5089 -0.1912
  162MOL     C119643   5.882   4.727   5.593 -0.1271 -0.2325 -0.4977
  162MOL     C219644   5.965   4.688   5.717  0.3129  0.1172 -0.1509
  162MOL     F319645   6.096   4.700   5.683 -0.3244 -0.3620 -0.1647
  162MOL     H419646   5.894   4.653   5.514 -0.9780  0.6312 -1.4571
  162MOL     H519647   5.926   4.821   5.557  1.4146 -0.7580 -0.0153
  162MOL     H619648   5.951   4.583   5.746  2.0850  0.2348  1.1583
  162MOL     H719649   5.777   4.733   5.620  0.2463 -0.2382  0.9703
  162MOL     C819650   5.931   4.780   5.832 -0.2052 -0.3416  0.0698
  162MOL     C919651   5.985   4.729   5.965  0.0547  0.1603  0.0171
  162MOL    F1019652   6.116   4.746   5.966  0.0929 -0.3348 -0.0204
  162MOL    H1119653   5.975   4.878   5.812  0.1951 -0.3809  0.7342
  162MOL    H1219654   5.826   4.802   5.849  0.2274  1.9247 -0.0494
  162MOL    H1319655   5.970   4.621   5.964  0.5000  0.0966  0.0853
  162MOL    C1419656   5.918   4.802   6.085  0.6450  0.1525  0.7715
  162MOL    C1519657   5.958   4.750   6.224  1.0344  0.1325  0.2527
  162MOL    F1619658   5.903   4.829   6.319  0.1064  0.0029 -0.0081
  162MOL    H1719659   5.947   4.907   6.084  1.6590 -0.1200  0.9388
  162MOL    H1819660   5.809   4.806   6.079  0.7265  3.2868  0.3299
  162MOL    H1919661   6.061   4.785   6.228  1.1979 -0.3595  0.2958
  162MOL    C2019662   5.949   4.602   6.248  0.5226 -0.4091 -0.3859
  162MOL    C2119663   5.809   4.535   6.257  0.0005  0.0298 -0.4036
  162MOL    F2219664   5.819   4.408   6.270  0.1576  0.0715 -0.3528
  162MOL    H2319665   5.997   4.553   6.163 -2.4724 -1.3342 -1.6117
  162MOL    H2419666   6.021   4.579   6.327 -0.0999  0.8253  0.5521
  162MOL    H2519667   5.756   4.548   6.163 -1.8133 -2.0905  0.2710
  162MOL    C2619668   5.720   4.588   6.369 -0.3091 -0.2970  0.4948
  162MOL    C2719669   5.579   4.537   6.380 -0.3297  0.4859  0.3794
  162MOL    F2819670   5.528   4.578   6.494 -0.0119  0.2914  0.1172
  162MOL    H2919671   5.771   4.562   6.462  1.6309  0.8900 -0.2153
  162MOL    H3019672   5.714   4.696   6.370 -2.0919 -0.2054 -4.1498
  162MOL    H3119673   5.594   4.430   6.400  0.4636  0.3903 -0.6670
  162MOL    C3219674   5.494   4.587   6.258  0.8297 -0.6272  0.5010
  162MOL    C3319675   5.350   4.534   6.247  0.1896 -0.5350 -0.5065
  162MOL    F3419676   5.277   4.583   6.143  0.0543 -0.0975 -0.5326
  162MOL    H3519677   5.496   4.696   6.253 -0.2190 -0.6648 -1.0881
  162MOL    H3619678   5.545   4.551   6.168  1.0445  0.5682  0.1298
  162MOL    H3719679   5.302   4.554   6.343 -0.6204  1.0141 -1.2210
  162MOL    C3819680   5.351   4.380   6.219 -0.4113  0.2039 -0.3342
  162MOL    C3919681   5.211   4.321   6.195  0.0048 -0.1962 -0.2727
  162MOL    F4019682   5.224   4.188   6.184 -0.0935  0.2319  0.0205
  162MOL    H4119683   5.409   4.373   6.127 -1.8333 -0.8552 -1.1513
  162MOL    H4219684   5.397   4.331   6.305 -0.0584  1.3638  0.1491
  162MOL    H4319685   5.159   4.360   6.108  0.0024  0.6335  0.0957
  162MOL    C4419686   5.115   4.346   6.317  0.2118 -0.3413 -0.7366
  162MOL    C4519687   4.995   4.257   6.295 -0.2285 -0.2308 -0.7795
  162MOL    F4619688   4.934   4.261   6.413  0.0766  0.3720  0.9022
  162MOL    H4719689   5.176   4.310   6.400  2.3512  1.8745 -1.2847
  162MOL    H4819690   5.092   4.451   6.336 -3.8127 -1.5000  1.2467
  162MOL    H4919691   5.008   4.152   6.267  3.0915 -0.6589  1.9455
  162MOL    C5019692   4.897   4.316   6.192  0.9913  0.1866  0.7934
  162MOL    C5119693   4.775   4.236   6.160  0.4314 -0.5226  0.5445
  162MOL    F5219694   4.698   4.216   6.270 -0.7939  0.2873 -0.0141
  162MOL    H5319695   4.871   4.420   6.211 -1.0830  0.7845 -4.4745
  162MOL    H5419696   4.953   4.329   6.099 -1.5376  1.0552 -0.6293
  162MOL    H5519697   4.794   4.132   6.135 -0.4335 -0.3984 -0.6507
  162MOL    C5619698   4.686   4.308   6.057  0.4543  0.1344 -0.2285
  162MOL    C5719699   4.571   4.227   5.989  0.4143 -0.3305 -0.2833
  162MOL    F5819700   4.489   4.192   6.085  0.1552  0.2370  0.5969
  162MOL    H5919701   4.643   4.399   6.097 -0.0688 -0.0524 -0.3521
  162MOL    H6019702   4.758   4.340   5.982  0.1525 -0.4258 -0.7737
  162MOL    H6119703   4.610   4.130   5.957 -0.0876 -0.4418 -0.5584
  162MOL    C6219704   4.473   4.277   5.892  0.3680 -0.2324  0.0046
  162MOL    C6319705   4.543   4.331   5.767  1.1167 -0.0860  0.7322
  162MOL    F6419706   4.564   4.224   5.699  0.0595  0.6503 -0.0904
  162MOL    H6519707   4.400   4.202   5.865 -1.2762  0.6550  1.8716
  162MOL    H6619708   4.414   4.356   5.939 -1.5556 -1.3149 -0.5387
  162MOL    H6719709   4.641   4.372   5.794 -0.0026  0.9099  3.4726
  162MOL    C6819710   4.451   4.429   5.694 -0.0311 -0.3041 -0.6344
  162MOL    C6919711   4.508   4.463   5.560  0.3869 -0.4494 -0.0216
  162MOL    F7019712   4.424   4.533   5.493 -0.0277 -0.6392 -0.2980
  162MOL    H7119713   4.355   4.379   5.677 -0.4101  0.1090  0.2349
  162MOL    H7219714   4.421   4.517   5.751 -0.3012 -0.8486  0.0755
  162MOL    H7319715   4.525   4.370   5.505 -0.1750  0.3103 -1.4856
  162MOL    C7419716   4.631   4.553   5.569 -1.2203 -0.4296  0.7595
  162MOL    C7519717   4.706   4.593   5.445 -0.2419  0.5369 -0.1552
  162MOL    F7619718   4.733   4.482   5.379  0.1299 -0.1379  0.3300
  162MOL    H7719719   4.602   4.633   5.637 -1.6698  0.2084 -0.1714
  162MOL    H7819720   4.703   4.493   5.624 -1.2575 -0.4942  0.7383
  162MOL    H7919721   4.800   4.645   5.468  0.2709 -0.1905 -0.5977
  162MOL    C8019722   4.630   4.701   5.360  0.2553  0.4187 -0.3577
  162MOL    C8119723   4.569   4.818   5.440  0.5252 -0.5593 -0.3115
  162MOL    F8219724   4.659   4.850   5.529  0.0017  0.0898 -0.0937
  162MOL    H8319725   4.704   4.739   5.290 -0.0462 -0.0185 -0.9192
  162MOL    H8419726   4.550   4.653   5.302 -0.0552 -0.8823  1.1289
  162MOL    H8519727   4.488   4.777   5.499  0.6532 -2.4185 -1.3869
  162MOL    C8619728   4.526   4.943   5.364 -0.6911 -0.0588 -0.0661
  162MOL    C8719729   4.386   4.916   5.293 -0.3018  0.0200  0.1362
  162MOL    F8819730   4.295   4.905   5.394  0.1625 -0.0522 -0.0748
  162MOL    H8919731   4.504   5.028   5.429 -0.0332  0.5426 -0.6227
  162MOL    H9019732   4.602   4.964   5.290 -1.1063  3.9824  0.5641
  162MOL    H9119733   4.388   4.815   5.251 -0.9006 -0.0923  0.3729
  162MOL    C9219734   4.345   5.022   5.185  1.4754 -0.1048  0.0487
  162MOL    C9319735   4.280   5.145   5.245 -0.1187  0.0902  0.3783
  162MOL    F9419736   4.366   5.194   5.335  0.6957  0.6735  0.2558
  162MOL    H9519737   4.432   5.055   5.129 -0.2425  0.3572 -2.4198
  162MOL    H9619738   4.279   4.976   5.112  0.4697  3.3282 -1.2721
  162MOL    H9719739   4.193   5.120   5.305  0.4982 -0.1432  1.1825
  162MOL    C9819740   4.229   5.263   5.159  0.3331 -0.3282 -0.0500
  162MOL    C9919741   4.148   5.380   5.232  0.5299  0.7528 -0.1970
  162MOL   F10019742   4.240   5.452   5.300  0.4781 -0.0693 -0.1027
  162MOL   H10119743   4.311   5.304   5.101 -0.9734  1.2572 -0.7843
  162MOL   H10219744   4.164   5.221   5.083  0.1894 -0.7586  0.3076
  162MOL   H10319745   4.072   5.335   5.296 -1.0626  1.9748 -1.1851
  162MOL   C10419746   4.063   5.475   5.139  0.7644  0.4851  0.0719
  162MOL   C10519747   4.138   5.563   5.041 -0.0296 -0.0645 -0.5863
  162MOL   F10619748   4.189   5.476   4.953  0.8566 -0.2633 -0.1671
  162MOL   H10719749   3.975   5.424   5.101  0.3097  0.3689  1.2913
  162MOL   H10819750   4.014   5.541   5.210 -1.3545  0.0071 -0.8948
  162MOL   H10919751   4.226   5.612   5.083  0.8220 -0.3831 -1.9816
  162MOL   C11019752   4.051   5.668   4.984  0.5902  0.3382  0.1450
  162MOL   C11119753   3.936   5.627   4.884 -0.1034 -0.2999  0.5803
  162MOL   F11219754   3.870   5.740   4.859  0.1779  0.4213  0.0528
  162MOL   H11319755   4.011   5.727   5.066 -1.1523 -0.7099  0.0708
  162MOL   H11419756   4.111   5.738   4.926 -0.2287  0.7889 -0.1715
  162MOL   H11519757   3.872   5.554   4.933  0.5756 -2.2683 -1.3725
  162MOL   C11619758   3.979   5.565   4.750  0.1448 -0.0524 -0.4931
  162MOL   C11719759   3.867   5.547   4.648 -0.0402  0.3942 -0.1814
  162MOL   F11819760   3.911   5.499   4.534 -0.4747  0.6152  0.5854
  162MOL   H11919761   4.050   5.628   4.697  2.6826 -1.7996  0.7412
  162MOL   H12019762   4.041   5.475   4.746  0.3623  0.1136 -0.8468
  162MOL   H12119763   3.808   5.637   4.631  1.9819  1.4938 -1.5320
  162MOL   H12219764   3.800   5.467   4.680  1.2004  0.1308  1.8494
  163MOL     C119765   1.270   7.578   5.643  0.6261 -0.0758  0.3001
  163MOL     C219766   1.362   7.534   5.756 -0.2896 -0.5975  0.3002
  163MOL     F319767   1.482   7.602   5.747  0.1586 -0.1302  0.0085
  163MOL     H419768   1.242   7.682   5.658  2.8512  0.3633  1.7065
  163MOL     H519769   1.177   7.523   5.629  1.0373 -1.2945  2.0803
  163MOL     H619770   1.392   7.429   5.750  3.1259  0.4127 -1.4617
  163MOL     H719771   1.331   7.574   5.553  1.6956  1.2092  0.9506
  163MOL     C819772   1.314   7.549   5.906  0.7050  0.1810 -0.5314
  163MOL     C919773   1.181   7.486   5.944 -0.0254 -0.0238 -0.0372
  163MOL    F1019774   1.192   7.363   5.910  0.5958  0.1355 -0.0225
  163MOL    H1119775   1.386   7.514   5.980  1.3233 -0.0816 -1.2535
  163MOL    H1219776   1.305   7.657   5.920  0.9117  0.3548 -1.6709
  163MOL    H1319777   1.108   7.525   5.873 -0.3391  0.9819  0.8242
  163MOL    C1419778   1.155   7.498   6.089  0.6923 -0.2344 -0.1156
  163MOL    C1519779   1.005   7.476   6.116  0.1183  0.6194  0.7811
  163MOL    F1619780   0.966   7.352   6.089 -0.0632 -0.1043  0.8760
  163MOL    H1719781   1.205   7.419   6.146 -1.7071 -0.8726  1.1737
  163MOL    H1819782   1.194   7.594   6.123  0.9819 -1.0031  1.8394
  163MOL    H1919783   0.944   7.542   6.054 -0.1376  1.3339  1.7888
  163MOL    C2019784   0.981   7.502   6.264 -0.1898  0.4776  0.2397
  163MOL    C2119785   1.019   7.641   6.318 -0.4388  0.0099 -0.3466
  163MOL    F2219786   0.945   7.741   6.260 -0.2636  0.2139  0.4119
  163MOL    H2319787   0.883   7.469   6.298  0.1494 -0.2078  0.5621
  163MOL    H2419788   1.044   7.425   6.308 -2.8239 -1.1308  1.3495
  163MOL    H2519789   1.118   7.676   6.291 -0.6619  1.0239  0.1322
  163MOL    C2619790   1.009   7.656   6.471 -0.5188  0.1368  0.0112
  163MOL    C2719791   1.140   7.617   6.545 -0.5297  0.2198  0.3647
  163MOL    F2819792   1.130   7.638   6.675  0.1617 -0.4519 -0.1319
  163MOL    H2919793   0.996   7.760   6.503  1.1173  0.1723  0.5920
  163MOL    H3019794   0.931   7.589   6.507  1.5813 -2.7894 -0.6986
  163MOL    H3119795   1.224   7.674   6.506 -0.1319  1.4442  2.9227
  163MOL    C3219796   1.187   7.469   6.532 -0.1613 -0.0244  0.1438
  163MOL    C3319797   1.318   7.433   6.599  0.9086 -0.3898 -0.5107
  163MOL    F3419798   1.325   7.301   6.588  0.0198  0.4619 -0.5997
  163MOL    H3519799   1.105   7.400   6.552 -1.0290  0.2308 -2.3519
  163MOL    H3619800   1.205   7.447   6.426  0.7715 -2.0472  0.6935
  163MOL    H3719801   1.319   7.456   6.705  3.0341 -1.8835 -0.1730
  163MOL    C3819802   1.447   7.489   6.525  0.3900 -0.3137  0.4431
  163MOL    C3919803   1.585   7.422   6.570 -0.4574 -0.9414 -0.0700
  163MOL    F4019804   1.591   7.290   6.556  0.3389  0.1807 -0.5450
  163MOL    H4119805   1.442   7.474   6.417 -0.9058 -1.7602  0.6804
  163MOL    H4219806   1.449   7.594   6.554  0.5415 -0.2463  0.1857
  163MOL    H4319807   1.585   7.446   6.677 -1.0737  0.3174 -0.3437
  163MOL    C4419808   1.706   7.481   6.495 -0.3349 -0.0664  0.6334
  163MOL    C4519809   1.858   7.430   6.511  0.1531  0.2839 -0.1438
  163MOL    F4619810   1.935   7.488   6.418 -0.2437 -0.1462  0.1370
  163MOL    H4719811   1.682   7.463   6.390 -0.3291 -1.0789  0.7966
  163MOL    H4819812   1.698   7.589   6.503 -0.4791 -0.0525  0.3109
  163MOL    H4919813   1.864   7.323   6.495  1.4636 -0.0715  2.3703
  163MOL    C5019814   1.911   7.464   6.650  0.3004 -0.7942  0.1374
  163MOL    C5119815   2.038   7.389   6.679  0.1701  0.4125 -0.3280
  163MOL    F5219816   2.100   7.433   6.790 -0.3219  0.0250 -0.0135
  163MOL    H5319817   1.909   7.569   6.678 -0.7767  0.6678 -4.9293
  163MOL    H5419818   1.845   7.417   6.723  1.6712 -1.5418  0.9259
  163MOL    H5519819   2.111   7.405   6.599  1.6604 -1.7408  0.5488
  163MOL    C5619820   2.033   7.237   6.708  0.0811 -0.7371  0.0335
  163MOL    C5719821   2.172   7.167   6.721 -0.0408  0.1961 -0.4292
  163MOL    F5819822   2.243   7.204   6.833  0.2628 -0.3489 -0.3653
  163MOL    H5919823   1.982   7.220   6.803  2.0663 -1.4557  0.9928
  163MOL    H6019824   1.979   7.200   6.621  1.1726 -1.8941 -0.1509
  163MOL    H6119825   2.240   7.216   6.651  0.2476 -0.7307 -0.8084
  163MOL    C6219826   2.156   7.011   6.698  0.4434 -0.6263  0.3528
  163MOL    C6319827   2.125   6.968   6.554 -0.0564  0.6090 -0.4542
  163MOL    F6419828   2.222   7.009   6.476 -0.1936  0.0375  0.4386
  163MOL    H6519829   2.244   6.959   6.737 -0.9838 -2.2802  1.4709
  163MOL    H6619830   2.077   6.982   6.767  1.4799 -1.0567  1.3832
  163MOL    H6719831   2.032   7.013   6.517 -0.6116  0.7446  1.0647
  163MOL    C6819832   2.116   6.818   6.543  0.1512 -0.2400 -0.4701
  163MOL    C6919833   2.083   6.758   6.405 -0.0547  0.4326  0.4322
  163MOL    F7019834   2.177   6.807   6.324  0.5672 -0.1428 -0.2152
  163MOL    H7119835   2.208   6.778   6.584  0.0122  0.9544  1.0410
  163MOL    H7219836   2.042   6.776   6.611 -1.1037  0.4109 -1.4109
  163MOL    H7319837   1.989   6.793   6.361 -0.6311 -1.7789 -0.2018
  163MOL    C7419838   2.098   6.607   6.391 -0.3123 -0.2682  0.0288
  163MOL    C7519839   2.014   6.520   6.493 -0.1242  0.2166 -0.2560
  163MOL    F7619840   1.879   6.541   6.472 -0.1545  0.0970  0.5813
  163MOL    H7719841   2.060   6.575   6.294 -3.0033  2.6387  0.0547
  163MOL    H7819842   2.204   6.581   6.393  0.0147  1.0819  1.4506
  163MOL    H7919843   2.045   6.546   6.594 -0.6842  0.5775 -0.1803
  163MOL    C8019844   2.047   6.372   6.487  0.0997 -0.5457  0.6901
  163MOL    C8119845   2.009   6.285   6.610 -0.2010 -0.1721  0.1134
  163MOL    F8219846   2.062   6.347   6.710 -0.0304 -0.0426 -0.2054
  163MOL    H8319847   1.998   6.327   6.400  0.1230 -1.6869  1.2645
  163MOL    H8419848   2.155   6.360   6.474  0.1358  1.6395 -1.4305
  163MOL    H8519849   2.060   6.190   6.597  0.7981  0.2909  0.6004
  163MOL    C8619850   1.852   6.286   6.633  0.0064 -0.2302 -0.0106
  163MOL    C8719851   1.815   6.194   6.752  0.0766  0.5357  0.4646
  163MOL    F8819852   1.827   6.070   6.709 -0.2968  0.2571  0.1627
  163MOL    H8919853   1.808   6.384   6.649  1.3292  0.2179  1.0419
  163MOL    H9019854   1.802   6.251   6.543 -2.5005 -0.2282  1.3399
  163MOL    H9119855   1.707   6.198   6.768  0.1334  0.0854  1.0075
  163MOL    C9219856   1.877   6.213   6.892  0.0209 -0.3017  0.3175
  163MOL    C9319857   1.823   6.341   6.969 -0.8855  0.5802  0.1374
  163MOL    F9419858   1.693   6.327   6.987  0.0088  0.2932 -0.6458
  163MOL    H9519859   1.839   6.126   6.945 -0.1722 -0.3651  0.0779
  163MOL    H9619860   1.985   6.207   6.900  0.1759 -0.3785 -1.5205
  163MOL    H9719861   1.845   6.427   6.905 -0.3991 -0.2329 -0.8041
  163MOL    C9819862   1.891   6.367   7.107  0.7460 -0.4507 -0.1810
  163MOL    C9919863   1.834   6.482   7.195  0.5682 -0.0007  0.2844
  163MOL   F10019864   1.886   6.465   7.318 -0.1551  0.1520  0.5509
  163MOL   H10119865   1.886   6.279   7.170  1.7980  0.5248  1.3169
  163MOL   H10219866   1.997   6.381   7.086  0.7281  0.2862  0.1974
  163MOL   H10319867   1.727   6.466   7.206  0.6772 -2.8566 -2.2088
  163MOL   C10419868   1.855   6.628   7.148 -0.2435  0.5843  0.4204
  163MOL   C10519869   1.776   6.725   7.244  0.3105 -0.2782 -0.4621
  163MOL   F10619870   1.802   6.858   7.214  0.2337  0.4571  0.0624
  163MOL   H10719871   1.963   6.641   7.140 -0.2007  1.0304  1.6278
  163MOL   H10819872   1.825   6.655   7.047 -0.1569  1.4923  0.6290
  163MOL   H10919873   1.822   6.694   7.337 -0.7681  1.3178  0.6269
  163MOL   C11019874   1.622   6.704   7.248 -0.8122  0.7357 -0.0014
  163MOL   C11119875   1.555   6.814   7.330 -0.1293  0.0610 -1.0600
  163MOL   F11219876   1.425   6.786   7.318 -0.0559  0.1979 -0.1315
  163MOL   H11319877   1.589   6.707   7.144 -0.9899 -0.6973  0.0008
  163MOL   H11419878   1.602   6.605   7.288 -0.6974  0.5357 -0.4327
  163MOL   H11519879   1.571   6.909   7.281 -2.6886  1.5071  0.7399
  163MOL   C11619880   1.599   6.832   7.473  0.4080 -0.9935  0.8174
  163MOL   C11719881   1.521   6.960   7.535 -0.1705  0.4028 -0.2033
  163MOL   F11819882   1.519   7.071   7.450  0.1298 -0.2662  0.0112
  163MOL   H11919883   1.586   6.744   7.537 -1.4540 -0.6434  0.9530
  163MOL   H12019884   1.707   6.846   7.469  0.1115  1.1705  0.2055
  163MOL   H12119885   1.559   6.996   7.630 -2.1465 -1.3018  1.3000
  163MOL   H12219886   1.416   6.933   7.553 -0.0606 -1.2629 -1.8137
  164MOL     C119887   4.242   3.931   2.857  0.0810 -0.4512  0.6410
  164MOL     C219888   4.133   3.846   2.909  0.4466  0.4041  0.3388
  164MOL     F319889   4.072   3.933   2.984  0.2908 -0.0944  0.1179
  164MOL     H419890   4.296   3.890   2.771  2.3135  0.8657  1.3632
  164MOL     H519891   4.315   3.953   2.935  2.4227 -0.9583 -1.3382
  164MOL     H619892   4.166   3.763   2.971  1.2986  0.6887  0.2683
  164MOL     H719893   4.207   4.024   2.813  0.5315 -0.5175  0.1364
  164MOL     C819894   4.044   3.781   2.801  0.6206  0.6000  0.1199
  164MOL     C919895   3.896   3.758   2.852 -0.7903  0.3946  0.1453
  164MOL    F1019896   3.820   3.701   2.757 -0.4866 -0.1683  0.2966
  164MOL    H1119897   4.047   3.836   2.706  0.7582  0.9074  0.3004
  164MOL    H1219898   4.086   3.684   2.774 -0.2398 -0.1965  1.6283
  164MOL    H1319899   3.856   3.856   2.879 -2.7379 -0.2294 -0.3689
  164MOL    C1419900   3.891   3.657   2.976  0.7077  0.0906  0.6002
  164MOL    C1519901   3.751   3.649   3.044 -0.2042 -0.5265  0.0672
  164MOL    F1619902   3.756   3.539   3.126 -0.3399 -0.1471 -0.0980
  164MOL    H1719903   3.932   3.563   2.942  0.4737  0.5319 -0.9471
  164MOL    H1819904   3.965   3.690   3.048  0.9775  2.4195 -0.6742
  164MOL    H1919905   3.672   3.624   2.974 -0.1783  1.8793 -0.8376
  164MOL    C2019906   3.703   3.781   3.125  0.0075  0.3951 -0.1301
  164MOL    C2119907   3.607   3.756   3.245 -0.2189  0.3852 -0.3401
  164MOL    F2219908   3.578   3.862   3.318 -0.0135  0.3117 -0.1104
  164MOL    H2319909   3.790   3.829   3.169  0.9328 -1.4186  0.0627
  164MOL    H2419910   3.664   3.852   3.051 -0.8430 -1.1647 -1.2026
  164MOL    H2519911   3.651   3.690   3.321  2.5262  1.3193 -1.0492
  164MOL    C2619912   3.472   3.682   3.207 -0.2490 -0.8811  0.3579
  164MOL    C2719913   3.374   3.768   3.129 -0.3935  0.4024  0.1932
  164MOL    F2819914   3.422   3.780   3.008 -0.5047  0.1154  0.4430
  164MOL    H2919915   3.499   3.587   3.161 -0.5654 -0.9532  0.3235
  164MOL    H3019916   3.423   3.660   3.302  2.7667 -0.6946  2.0071
  164MOL    H3119917   3.382   3.869   3.169  0.5203  0.3343  0.1898
  164MOL    C3219918   3.236   3.702   3.100  0.3152 -0.1139  0.0935
  164MOL    C3319919   3.134   3.716   3.217 -0.6714 -0.2501  0.2943
  164MOL    F3419920   3.107   3.848   3.241  0.0153 -0.1619  0.0251
  164MOL    H3519921   3.180   3.757   3.024 -0.1396  1.3379  1.4571
  164MOL    H3619922   3.249   3.603   3.054 -0.9558 -1.4161  2.4794
  164MOL    H3719923   3.191   3.702   3.309  1.0484  1.6116 -0.4560
  164MOL    C3819924   3.005   3.635   3.199 -0.4440 -0.3054 -0.6085
  164MOL    C3919925   3.028   3.484   3.212 -0.2964 -0.7854 -0.0843
  164MOL    F4019926   3.091   3.465   3.324  0.3098 -0.8544  0.4758
  164MOL    H4119927   2.925   3.678   3.259  0.6100  0.2495  0.4212
  164MOL    H4219928   2.972   3.649   3.096  0.6707 -0.4547 -0.9991
  164MOL    H4319929   3.100   3.466   3.132  1.4881  1.2411  0.9938
  164MOL    C4419930   2.902   3.393   3.211  0.0370 -0.2163 -0.7108
  164MOL    C4519931   2.935   3.246   3.228 -0.1422 -0.2106 -0.2680
  164MOL    F4619932   2.814   3.178   3.223 -0.3071  0.4658 -0.5377
  164MOL    H4719933   2.841   3.430   3.294  1.2343  0.1497  0.0164
  164MOL    H4819934   2.848   3.406   3.117 -2.4114  0.5384  0.7324
  164MOL    H4919935   2.978   3.233   3.327  2.6431  1.0225 -1.2379
  164MOL    C5019936   3.025   3.198   3.111  0.0059  0.1098 -0.3655
  164MOL    C5119937   3.166   3.166   3.148  1.0551 -0.4953 -0.2313
  164MOL    F5219938   3.171   3.062   3.234  0.2686  0.0999 -0.2710
  164MOL    H5319939   2.982   3.104   3.076  0.2995  0.2078 -0.9887
  164MOL    H5419940   3.020   3.266   3.027 -0.7978  1.1722  0.5258
  164MOL    H5519941   3.210   3.246   3.207 -0.2598 -0.5392  0.8469
  164MOL    C5619942   3.247   3.132   3.019 -0.3707 -0.3530  0.1991
  164MOL    C5719943   3.385   3.083   3.066  0.0663  0.2983  0.5134
  164MOL    F5819944   3.452   3.027   2.960  0.1417  0.3742  0.3973
  164MOL    H5919945   3.193   3.053   2.967 -2.6746  1.3125  0.0329
  164MOL    H6019946   3.259   3.217   2.952 -2.5501  0.0580  0.3130
  164MOL    H6119947   3.364   3.005   3.138  2.2556 -2.2553 -1.5173
  164MOL    C6219948   3.482   3.186   3.115 -0.3164 -0.4344 -0.0011
  164MOL    C6319949   3.620   3.141   3.164  0.0954  0.3803 -0.1258
  164MOL    F6419950   3.705   3.248   3.156  0.0694 -0.1225 -0.1487
  164MOL    H6519951   3.487   3.246   3.024 -0.2485 -0.2975  0.0922
  164MOL    H6619952   3.447   3.259   3.188 -0.0575  0.2235 -0.5300
  164MOL    H6719953   3.651   3.074   3.084 -1.2055 -2.1577  1.4547
  164MOL    C6819954   3.622   3.066   3.299  0.3884  0.0570  0.4624
  164MOL    C6919955   3.751   3.001   3.328  0.2339  0.6148 -0.0110
  164MOL    F7019956   3.839   3.097   3.345  0.2212 -0.6629 -0.3583
  164MOL    H7119957   3.599   3.133   3.381 -2.5158 -2.0891  1.4723
  164MOL    H7219958   3.551   2.983   3.291 -0.0903  0.1358  3.6074
  164MOL    H7319959   3.784   2.944   3.241  0.5316  1.2383 -0.3121
  164MOL    C7419960   3.750   2.919   3.462  0.5798 -0.0737  0.2278
  164MOL    C7519961   3.662   2.790   3.474  0.6815 -0.5017  0.7675
  164MOL    F7619962   3.685   2.712   3.365 -0.1976 -0.5121 -0.2012
  164MOL    H7719963   3.854   2.899   3.485  0.4278  0.9165  1.7746
  164MOL    H7819964   3.718   2.979   3.546 -0.2802 -0.7475  0.3981
  164MOL    H7919965   3.560   2.825   3.462  0.9665 -0.7005 -2.5671
  164MOL    C8019966   3.668   2.710   3.597 -0.8020  0.0690  0.4285
  164MOL    C8119967   3.577   2.584   3.613  0.6733  0.3217  0.5247
  164MOL    F8219968   3.582   2.541   3.738 -0.0643  0.3629  0.5534
  164MOL    H8319969   3.775   2.687   3.602 -1.2874 -2.0798  1.6111
  164MOL    H8419970   3.641   2.782   3.674  1.1067 -0.1905  1.3761
  164MOL    H8519971   3.620   2.517   3.539  0.6675  3.7765 -2.7348
  164MOL    C8619972   3.425   2.616   3.590 -0.4269  0.0505 -0.6848
  164MOL    C8719973   3.367   2.605   3.442 -0.3371  0.7079 -0.5600
  164MOL    F8819974   3.397   2.486   3.385  0.1209  0.2971  0.0059
  164MOL    H8919975   3.361   2.554   3.654  1.4870  1.6284  2.8738
  164MOL    H9019976   3.404   2.719   3.619  0.3284  0.3166 -1.0828
  164MOL    H9119977   3.415   2.676   3.375 -0.9614  0.4368 -1.3056
  164MOL    C9219978   3.218   2.623   3.427  0.1374  0.1721  0.4540
  164MOL    C9319979   3.167   2.762   3.483  0.1370  0.0011  0.3689
  164MOL    F9419980   3.218   2.866   3.414  1.0062  0.5612 -0.4484
  164MOL    H9519981   3.192   2.613   3.322  2.7197  0.9755 -0.3055
  164MOL    H9619982   3.164   2.544   3.479  1.7794 -0.9267  0.5180
  164MOL    H9719983   3.202   2.771   3.586 -0.4274 -0.4767  0.6056
  164MOL    C9819984   3.009   2.768   3.486  0.7995  1.3588  0.1649
  164MOL    C9919985   2.968   2.876   3.581  0.6191 -0.2647 -0.4456
  164MOL   F10019986   2.997   2.992   3.520  0.9127  0.1252 -0.2251
  164MOL   H10119987   2.980   2.802   3.387  2.8143 -0.3045 -1.0142
  164MOL   H10219988   2.963   2.671   3.505  2.3313  0.9936  2.2473
  164MOL   H10319989   3.015   2.861   3.678 -0.0217  1.8082  0.2246
  164MOL   C10419990   2.818   2.865   3.621 -0.0550  0.0460 -1.0695
  164MOL   C10519991   2.784   2.949   3.743 -0.7083 -0.2329  1.2107
  164MOL   F10619992   2.850   2.911   3.851  0.1360 -0.3098 -0.1162
  164MOL   H10719993   2.756   2.883   3.533  0.7511 -0.4514 -1.7516
  164MOL   H10819994   2.789   2.763   3.647 -0.8325  0.4130 -0.4618
  164MOL   H10919995   2.680   2.938   3.773 -1.5571  1.6398 -0.9122
  164MOL   C11019996   2.820   3.105   3.727  0.3038  0.0264  0.6386
  164MOL   C11119997   2.784   3.184   3.857 -0.7861  0.1054  0.7623
  164MOL   F11219998   2.807   3.311   3.829  0.0708  0.3225 -0.0645
  164MOL   H11319999   2.926   3.126   3.709 -0.4138  1.5367 -2.0256
  164MOL   H11420000   2.752   3.141   3.650 -1.0596 -1.2428  1.2053
  164MOL   H11520001   2.855   3.174   3.939 -3.8274 -0.1932  3.4403
  164MOL   C11620002   2.641   3.173   3.899  0.0659 -0.0983  0.6197
  164MOL   C11720003   2.589   3.284   3.990 -0.9174  0.3347 -0.0894
  164MOL   F11820004   2.471   3.262   4.036  0.8881  0.9401  0.1270
  164MOL   H11920005   2.576   3.156   3.814  1.4136  0.4420 -0.5253
  164MOL   H12020006   2.636   3.081   3.958 -0.2561 -0.5064 -0.0416
  164MOL   H12120007   2.598   3.376   3.932 -0.7689  0.7553  0.6025
  164MOL   H12220008   2.647   3.292   4.082 -0.2541  0.5045 -0.5180
  165MOL     C120009   4.837   7.412   4.635  0.2840  0.0231  0.5966
  165MOL     C220010   4.919   7.445   4.508  0.0284 -0.0122 -0.0392
  165MOL     F320011   4.863   7.546   4.450 -0.2218 -0.4025 -0.4205
  165MOL     H420012   4.839   7.490   4.711 -1.6976  1.9182 -1.2141
  165MOL     H520013   4.880   7.318   4.670 -0.5119 -0.5686  0.0075
  165MOL     H620014   4.914   7.356   4.445  0.2374 -1.4038  1.8730
  165MOL     H720015   4.732   7.395   4.610 -0.0220  2.2595  0.2636
  165MOL     C820016   5.068   7.467   4.555 -0.3009  0.1121  0.2862
  165MOL     C920017   5.164   7.472   4.438  0.7124  0.0207  0.1130
  165MOL    F1020018   5.141   7.587   4.374  0.1109  0.0213  0.2701
  165MOL    H1120019   5.067   7.554   4.621 -0.4873 -0.0742  0.5257
  165MOL    H1220020   5.099   7.373   4.599 -0.6216 -0.8219 -1.4321
  165MOL    H1320021   5.138   7.400   4.361 -1.4217  2.8804 -1.9480
  165MOL    C1420022   5.307   7.460   4.494 -0.6340  0.8786  0.0196
  165MOL    C1520023   5.419   7.479   4.394  0.4764  0.0193 -0.2922
  165MOL    F1620024   5.536   7.474   4.447  0.2234 -0.0179  0.1056
  165MOL    H1720025   5.337   7.529   4.572 -0.5096  0.9556 -0.0973
  165MOL    H1820026   5.325   7.363   4.540 -0.2031 -0.2674 -2.4745
  165MOL    H1920027   5.412   7.583   4.360  0.3261 -0.4548 -1.7627
  165MOL    C2020028   5.425   7.376   4.278 -0.1463  0.4078  0.2967
  165MOL    C2120029   5.527   7.418   4.169  0.1682 -0.3570 -0.2959
  165MOL    F2220030   5.564   7.314   4.090 -0.0054  0.7502 -0.0310
  165MOL    H2320031   5.448   7.279   4.322 -0.5377  1.3953  2.8068
  165MOL    H2420032   5.329   7.362   4.227  0.8459 -1.2989 -1.1528
  165MOL    H2520033   5.624   7.439   4.215 -0.3783 -0.1534  0.7617
  165MOL    C2620034   5.468   7.542   4.097  0.0207 -0.1698  0.2308
  165MOL    C2720035   5.546   7.561   3.960 -0.4994 -0.4641 -0.7124
  165MOL    F2820036   5.531   7.464   3.878  0.6632  0.0496 -0.2655
  165MOL    H2920037   5.361   7.550   4.079 -0.0212  1.7010  1.1772
  165MOL    H3020038   5.492   7.632   4.154 -1.0297 -1.3862  2.6364
  165MOL    H3120039   5.653   7.575   3.965 -0.4819 -0.3658 -1.3707
  165MOL    C3220040   5.485   7.684   3.885 -0.8171  0.3607 -0.5186
  165MOL    C3320041   5.565   7.707   3.751  0.3077 -0.6370  0.3389
  165MOL    F3420042   5.493   7.787   3.676  0.0174 -0.1875  0.1425
  165MOL    H3520043   5.381   7.659   3.864 -0.4468 -0.5739 -1.2302
  165MOL    H3620044   5.489   7.770   3.952 -1.9569 -0.5249  0.7100
  165MOL    H3720045   5.585   7.615   3.695  1.9589  0.5382 -1.0857
  165MOL    C3820046   5.702   7.785   3.768  0.0788  0.4183  0.7818
  165MOL    C3920047   5.763   7.832   3.636  0.2514 -0.2017  0.0998
  165MOL    F4020048   5.703   7.940   3.592  0.1689 -0.3867  0.6469
  165MOL    H4120049   5.688   7.868   3.837 -0.1120  2.5818 -1.7555
  165MOL    H4220050   5.774   7.723   3.822 -1.2247  1.2921  3.5622
  165MOL    H4320051   5.733   7.767   3.554 -2.8035  1.2100  0.0215
  165MOL    C4420052   5.905   7.873   3.650 -0.2562  0.5646 -0.3412
  165MOL    C4520053   5.980   7.951   3.544  0.0210  0.1924  0.7907
  165MOL    F4620054   6.087   8.002   3.601  0.1068  0.5333  0.2083
  165MOL    H4720055   5.917   7.932   3.741 -1.1158  1.0070 -0.5103
  165MOL    H4820056   5.958   7.779   3.668 -1.1203 -0.1263 -1.3251
  165MOL    H4920057   5.925   0.041   3.527  0.1003 -0.2041 -1.8485
  165MOL    C5020058   6.026   7.884   3.415  0.3720 -0.1049 -0.3414
  165MOL    C5120059   6.070   7.976   3.298  0.3611 -0.4651 -0.4647
  165MOL    F5220060   6.118   7.890   3.207  0.4551 -0.1123 -0.0583
  165MOL    H5320061   6.108   7.814   3.430  0.4904  0.3437  1.1886
  165MOL    H5420062   5.940   7.831   3.375 -0.2794  1.5562 -1.1849
  165MOL    H5520063   6.150   0.042   3.326 -0.8153  0.0729  1.6859
  165MOL    C5620064   5.951   0.042   3.232 -0.0634  0.0800 -0.6049
  165MOL    C5720065   5.992   0.118   3.106 -0.5949  0.8379  0.1487
  165MOL    F5820066   5.891   0.200   3.079 -0.3891 -0.0912  0.4671
  165MOL    H5920067   5.870   7.976   3.209  0.1897 -1.7767  3.5877
  165MOL    H6020068   5.905   0.113   3.301  1.3903  1.2270 -0.7651
  165MOL    H6120069   6.013   0.047   3.025  2.5445  2.4249 -0.5296
  165MOL    C6220070   6.123   0.199   3.102 -0.2133  0.0792 -0.7896
  165MOL    C6320071   6.126   0.327   3.192  0.0100  0.5294 -0.0396
  165MOL    F6420072   6.159   0.285   3.315  0.1365 -0.1768  0.2118
  165MOL    H6520073   6.210   0.135   3.112  0.7604  1.8543  3.2890
  165MOL    H6620074   6.139   0.241   3.003  3.2190  0.1449 -0.2617
  165MOL    H6720075   6.026   0.371   3.191  0.2425  1.0857  0.5455
  165MOL    C6820076   6.231   0.430   3.145 -0.7493 -0.2469  0.3263
  165MOL    C6920077   6.242   0.550   3.237  0.0629  0.5550 -0.1704
  165MOL    F7020078   6.120   0.607   3.232 -0.3732  0.2470  0.3006
  165MOL    H7120079   6.327   0.383   3.121  0.2540  2.0138 -0.1570
  165MOL    H7220080   6.197   0.469   3.049 -2.7822 -0.6513  0.8489
  165MOL    H7320081   6.314   0.613   3.185  3.0644 -2.2896  0.3692
  165MOL    C7420082   6.297   0.514   3.377 -0.2434 -0.2207  0.4819
  165MOL    C7520083   6.341   0.631   3.454 -0.6662  0.6021  0.4225
  165MOL    F7620084   6.444   0.679   3.389 -0.0827 -0.4761  0.1265
  165MOL    H7720085   6.233   0.464   3.450  0.7702  0.2071  1.6789
  165MOL    H7820086   6.388   0.456   3.361  0.0073 -0.0367  1.2335
  165MOL    H7920087   6.379   0.594   3.550 -1.6362  0.5016  0.7730
  165MOL    C8020088   6.246   0.748   3.470  0.6358  1.0710 -0.1717
  165MOL    C8120089   6.300   0.856   3.568  0.1818 -0.2759  0.6991
  165MOL    F8220090   6.304   0.813   3.692 -0.2628  0.3142 -0.5635
  165MOL    H8320091   6.208   0.789   3.376  1.1617  0.6393 -0.5758
  165MOL    H8420092   6.151   0.712   3.510  1.4952 -1.3027 -0.1504
  165MOL    H8520093   6.227   0.936   3.576  2.8013  2.1765  0.6257
  165MOL    C8620094   6.429   0.937   3.531  0.8131 -0.4333  0.3621
  165MOL    C8720095   6.461   1.065   3.603  0.2665 -0.4936  0.2505
  165MOL    F8820096   6.578   1.105   3.554  0.1828 -0.0671 -0.2410
  165MOL    H8920097   6.513   0.868   3.536  0.8154 -0.5477 -0.9136
  165MOL    H9020098   6.424   0.965   3.426 -2.5489  1.1678  0.8765
  165MOL    H9120099   6.474   1.060   3.711 -1.2626 -0.8731  0.4349
  165MOL    C9220100   6.355   1.171   3.579  0.4001 -0.1124  0.0858
  165MOL    C9320101   6.371   1.302   3.660 -1.2846 -0.0570  0.0445
  165MOL    F9420102   6.470   1.377   3.612  0.5330 -0.0150 -0.2800
  165MOL    H9520103   6.341   1.196   3.474 -2.0068  0.5260  0.5255
  165MOL    H9620104   6.261   1.129   3.613  0.9886 -2.4971 -1.1319
  165MOL    H9720105   6.399   1.273   3.761 -1.6712  0.5875  0.3412
  165MOL    C9820106   6.232   1.386   3.676 -0.9466  0.3864  0.1070
  165MOL    C9920107   6.245   1.496   3.781  0.1921  0.6260 -0.4169
  165MOL   F10020108   6.310   1.587   3.719 -0.1644  0.2958  0.4290
  165MOL   H10120109   6.185   1.425   3.585 -0.4434  0.4230 -0.1370
  165MOL   H10220110   6.155   1.317   3.710 -0.8803  0.6177  0.7456
  165MOL   H10320111   6.309   1.461   3.863 -0.9971  1.3228  0.8193
  165MOL   C10420112   6.108   1.555   3.820  0.7730  0.5697 -0.6010
  165MOL   C10520113   6.022   1.472   3.917 -0.1111 -0.0416 -0.5352
  165MOL   F10620114   6.087   1.453   4.032 -0.0559  0.1660 -0.2252
  165MOL   H10720115   6.118   1.654   3.865  2.0339 -0.3480  1.1754
  165MOL   H10820116   6.039   1.572   3.737 -1.1880  2.1067  1.2602
  165MOL   H10920117   6.005   1.375   3.871 -1.8378  0.2169 -0.4444
  165MOL   C11020118   5.881   1.542   3.943 -0.3816  0.1591 -0.1032
  165MOL   C11120119   5.787   1.465   4.021  0.6267  0.0007  0.4164
  165MOL   F11220120   5.686   1.539   4.075 -0.2487 -0.2906  0.1095
  165MOL   H11320121   5.901   1.636   3.995  1.1456 -0.4998  0.5463
  165MOL   H11420122   5.833   1.579   3.853  0.3752  0.9045 -0.2105
  165MOL   H11520123   5.843   1.429   4.107 -1.2360 -0.3212  1.5322
  165MOL   C11620124   5.733   1.336   3.956  0.9900 -0.1955 -0.6104
  165MOL   C11720125   5.695   1.239   4.073 -0.1756  0.0658  0.0034
  165MOL   F11820126   5.789   1.219   4.169  0.0052 -0.2508 -0.8327
  165MOL   H11920127   5.638   1.355   3.905 -1.4686 -1.4634  3.2840
  165MOL   H12020128   5.793   1.285   3.881 -0.1316  0.5590 -2.0567
  165MOL   H12120129   5.658   1.143   4.034 -1.6553  0.9431 -0.8261
  165MOL   H12220130   5.607   1.276   4.126  0.9713 -0.6158  2.4061
  166MOL     C120131   3.459   1.220   6.884  0.3294  0.3159  0.4091
  166MOL     C220132   3.522   1.297   6.766  0.1601  0.3767  0.0317
  166MOL     F320133   3.516   1.430   6.793  0.2219  0.0222 -0.0116
  166MOL     H420134   3.437   1.119   6.849 -1.8671  1.1145 -0.5942
  166MOL     H520135   3.361   1.263   6.905 -0.8734 -1.4173 -1.4187
  166MOL     H620136   3.470   1.273   6.674 -2.2828  0.9408  1.2206
  166MOL     H720137   3.527   1.227   6.969  1.8601 -0.1476 -0.7589
  166MOL     C820138   3.667   1.263   6.755  0.3616 -0.3741 -0.6474
  166MOL     C920139   3.751   1.336   6.638 -0.9732  0.1176 -0.5682
  166MOL    F1020140   3.876   1.356   6.680  0.1629  0.0524  0.4410
  166MOL    H1120141   3.716   1.281   6.851 -0.9092  0.5816 -0.1710
  166MOL    H1220142   3.683   1.156   6.743 -2.2830 -0.9633  0.8348
  166MOL    H1320143   3.707   1.434   6.616  2.0492  1.0511 -2.8313
  166MOL    C1420144   3.769   1.259   6.507 -0.1008  0.1000  0.1414
  166MOL    C1520145   3.646   1.237   6.421 -0.4490 -0.2459  0.5759
  166MOL    F1620146   3.607   1.357   6.380 -0.2135  0.1521  0.6984
  166MOL    H1720147   3.836   1.327   6.454 -1.1039  0.6166 -0.4704
  166MOL    H1820148   3.819   1.163   6.525  1.2657  0.5846 -0.9781
  166MOL    H1920149   3.561   1.190   6.469 -0.7429 -0.1883  0.1216
  166MOL    C2020150   3.675   1.146   6.295  0.8579  0.2060  0.6072
  166MOL    C2120151   3.733   1.010   6.317  0.0780  1.0540 -0.6507
  166MOL    F2220152   3.664   0.961   6.414 -0.0411 -0.9713 -0.3397
  166MOL    H2320153   3.587   1.128   6.233  1.9341 -1.2375 -0.5316
  166MOL    H2420154   3.739   1.203   6.228  1.1899 -2.7081 -1.6515
  166MOL    H2520155   3.835   1.027   6.352  0.3299 -1.5087 -0.0801
  166MOL    C2620156   3.734   0.925   6.189  0.6003 -0.2241  0.4941
  166MOL    C2720157   3.821   0.795   6.172 -0.3237 -0.2152  0.2172
  166MOL    F2820158   3.843   0.739   6.290  0.0440  0.1777  0.1844
  166MOL    H2920159   3.632   0.908   6.152  1.2873  0.7113 -1.9724
  166MOL    H3020160   3.759   0.991   6.105 -0.1546  1.2099  1.3668
  166MOL    H3120161   3.916   0.816   6.125 -0.3929  0.2212  0.2710
  166MOL    C3220162   3.752   0.691   6.081 -0.0912  0.0690 -1.2775
  166MOL    C3320163   3.639   0.627   6.161  0.0622  0.1088 -0.4263
  166MOL    F3420164   3.552   0.595   6.065 -0.4378  0.1252  0.4982
  166MOL    H3520165   3.727   0.732   5.983  0.3723  0.7478 -1.1130
  166MOL    H3620166   3.820   0.610   6.055  0.2766 -0.0938  0.1379
  166MOL    H3720167   3.586   0.697   6.225 -0.2411  0.4109 -1.0045
  166MOL    C3820168   3.685   0.494   6.229  0.2351  0.2565 -0.8508
  166MOL    C3920169   3.567   0.426   6.305  0.0256 -0.0515 -0.2953
  166MOL    F4020170   3.461   0.406   6.224 -0.5000  0.9205  0.1215
  166MOL    H4120171   3.712   0.428   6.146  1.2256 -0.6905  0.1936
  166MOL    H4220172   3.764   0.500   6.304 -0.0101 -1.1846 -0.4524
  166MOL    H4320173   3.534   0.499   6.380 -0.4950  1.0320 -1.5643
  166MOL    C4420174   3.616   0.296   6.361  1.0158 -0.0228  0.1868
  166MOL    C4520175   3.512   0.234   6.457 -0.4394  0.3919  0.7849
  166MOL    F4620176   3.563   0.116   6.482 -0.2068 -0.3529 -0.0505
  166MOL    H4720177   3.634   0.222   6.283 -2.1500  0.4515 -1.1073
  166MOL    H4820178   3.709   0.307   6.415  0.6216 -0.1646  0.8949
  166MOL    H4920179   3.417   0.229   6.404  0.4721  1.4684 -0.9921
  166MOL    C5020180   3.497   0.309   6.591 -0.0536 -0.6590 -0.1108
  166MOL    C5120181   3.398   0.259   6.697 -0.5536 -0.5771 -0.0028
  166MOL    F5220182   3.425   0.327   6.807  0.3755 -0.2463 -0.4052
  166MOL    H5320183   3.597   0.322   6.632  0.6193 -3.6022 -0.7536
  166MOL    H5420184   3.461   0.409   6.565 -1.1507 -1.4075 -1.5274
  166MOL    H5520185   3.405   0.151   6.710 -0.8867 -0.6219 -0.1894
  166MOL    C5620186   3.256   0.302   6.667 -0.0024 -0.8529  0.2773
  166MOL    C5720187   3.156   0.239   6.762  0.4708 -0.9971  0.1663
  166MOL    F5820188   3.048   0.307   6.735 -0.1346  0.0704 -0.3444
  166MOL    H5920189   3.244   0.410   6.671  0.8586 -0.7706  0.9452
  166MOL    H6020190   3.222   0.274   6.567  1.7538 -0.0490 -0.5641
  166MOL    H6120191   3.200   0.267   6.858 -1.4192  2.6470  0.0447
  166MOL    C6220192   3.147   0.084   6.744 -0.2224  0.3947  0.3434
  166MOL    C6320193   3.107   0.027   6.605 -0.0987 -0.1139 -0.3482
  166MOL    F6420194   3.221   8.000   6.542 -0.0628 -0.0187  0.1666
  166MOL    H6520195   3.217   0.018   6.795 -0.0666 -0.2500 -0.7046
  166MOL    H6620196   3.067   0.063   6.816  0.6956 -1.5701  0.8200
  166MOL    H6720197   3.065   0.104   6.540  0.8108 -0.4932 -1.3975
  166MOL    C6820198   3.026   7.900   6.600  0.0313  0.1353  0.1759
  166MOL    C6920199   2.891   7.892   6.665  0.0170  0.4906  0.0205
  166MOL    F7020200   2.817   7.993   6.625  0.1283  0.5185  0.0687
  166MOL    H7120201   3.010   7.886   6.493 -0.4480  2.8212 -0.1532
  166MOL    H7220202   3.092   7.823   6.639 -0.1129 -0.9439 -1.6633
  166MOL    H7320203   2.897   7.910   6.772 -0.2945  1.3807 -0.1035
  166MOL    C7420204   2.812   7.761   6.637 -0.4460 -0.3401 -1.0124
  166MOL    C7520205   2.672   7.760   6.697 -0.7808  0.3657  0.5820
  166MOL    F7620206   2.631   7.641   6.655  0.0989  0.4255  0.0283
  166MOL    H7720207   2.813   7.744   6.529 -1.4474 -2.3128 -0.7185
  166MOL    H7820208   2.864   7.679   6.686  1.9192  1.9942  0.5441
  166MOL    H7920209   2.613   7.835   6.644  0.2498 -0.0983 -1.2582
  166MOL    C8020210   2.659   7.773   6.851  0.8769  0.3431  0.1260
  166MOL    C8120211   2.521   7.798   6.910 -0.6765 -0.4032  0.9918
  166MOL    F8220212   2.500   7.925   6.889  0.3651  0.1020 -0.7416
  166MOL    H8320213   2.706   7.686   6.897  0.2428  0.6989  1.4796
  166MOL    H8420214   2.719   7.855   6.890  1.1731  0.3761 -0.3903
  166MOL    H8520215   2.530   7.785   7.018  0.4228  0.3386  1.0010
  166MOL    C8620216   2.405   7.719   6.855  1.2892 -0.1430  0.1972
  166MOL    C8720217   2.264   7.771   6.881  0.5760 -0.5072 -0.1718
  166MOL    F8820218   2.195   7.747   6.767 -0.3142 -0.2834 -0.2850
  166MOL    H8920219   2.414   7.717   6.746  0.7203 -0.8088  0.1556
  166MOL    H9020220   2.417   7.611   6.871  0.1520 -0.4160 -0.7168
  166MOL    H9120221   2.264   7.876   6.909 -1.9364 -0.5091 -0.1053
  166MOL    C9220222   2.180   7.710   6.997 -0.0463  0.2538  0.2725
  166MOL    C9320223   2.223   7.750   7.140  0.5031 -0.2279 -0.7279
  166MOL    F9420224   2.251   7.883   7.148  0.0347 -0.1233  0.0428
  166MOL    H9520225   2.074   7.730   6.983 -0.7641 -2.7654  0.9286
  166MOL    H9620226   2.192   7.602   6.991 -0.6150  0.1254  1.4066
  166MOL    H9720227   2.316   7.692   7.147  1.3994  0.8812 -2.7841
  166MOL    C9820228   2.113   7.720   7.248  0.7397  0.4239  0.1223
  166MOL    C9920229   2.175   7.723   7.392 -0.2055 -0.3452  0.4542
  166MOL   F10020230   2.244   7.842   7.406  0.1746  0.3481  0.3462
  166MOL   H10120231   2.035   7.795   7.236 -0.6770 -0.9641  0.5693
  166MOL   H10220232   2.075   7.621   7.223 -0.4807  0.8353  0.3614
  166MOL   H10320233   2.259   7.652   7.393 -1.3043 -1.6659  0.4795
  166MOL   C10420234   2.083   7.699   7.510  0.1749 -0.7396  0.1209
  166MOL   C10520235   1.976   7.810   7.523 -0.1187  0.7483 -0.9078
  166MOL   F10620236   1.895   7.792   7.421 -0.5314 -0.3945  0.2525
  166MOL   H10720237   2.019   7.611   7.514 -2.0820  0.9209  1.4237
  166MOL   H10820238   2.142   7.703   7.602  1.9599 -1.3327 -0.9638
  166MOL   H10920239   2.020   7.906   7.498 -1.3118  0.6846 -3.4225
  166MOL   C11020240   1.905   7.811   7.655  0.1612 -0.2129  0.1911
  166MOL   C11120241   1.793   7.916   7.672 -0.3570  0.0544 -0.2771
  166MOL   F11220242   1.728   7.881   7.782 -0.4761 -0.2779 -0.6599
  166MOL   H11320243   1.855   7.715   7.652  1.9928 -1.1992  0.0605
  166MOL   H11420244   1.973   7.797   7.739 -0.1493 -0.1478  0.4529
  166MOL   H11520245   1.723   7.918   7.588 -0.4185 -0.0018 -0.2267
  166MOL   C11620246   1.843   0.058   7.700 -0.5884  0.3022 -0.1120
  166MOL   C11720247   1.974   0.059   7.790 -0.4233 -0.0329  0.2960
  166MOL   F11820248   2.020   0.182   7.809  0.0087 -0.1462  0.2083
  166MOL   H11920249   1.877   0.106   7.609  0.4176 -2.2240 -1.1022
  166MOL   H12020250   1.771   0.126   7.747 -0.5752 -0.2554  0.7382
  166MOL   H12120251   2.060   0.014   7.740 -0.8170 -0.6988  0.2206
  166MOL   H12220252   1.946   0.013   7.885 -0.4769  0.2604  0.4231
  167MOL     C120253   1.345   5.586   6.368 -0.0488  0.0962  0.0906
  167MOL     C220254   1.238   5.634   6.273 -0.2829  0.2827 -0.1426
  167MOL     F320255   1.268   5.751   6.210  0.4050 -0.5784  0.4363
  167MOL     H420256   1.421   5.544   6.303 -1.5525 -0.4634 -1.3263
  167MOL     H520257   1.303   5.501   6.421  1.5214 -0.8534 -0.1678
  167MOL     H620258   1.153   5.660   6.336 -0.9018 -0.8246 -0.5079
  167MOL     H720259   1.382   5.666   6.433  1.9904  0.4720 -1.4741
  167MOL     C820260   1.190   5.524   6.179 -0.1505  0.1371 -0.9856
  167MOL     C920261   1.077   5.554   6.078  0.2341 -0.1193 -0.2874
  167MOL    F1020262   1.070   5.457   5.993  0.1421  0.1404 -0.2827
  167MOL    H1120263   1.275   5.486   6.122  1.2862  1.0680  0.4715
  167MOL    H1220264   1.160   5.440   6.242 -1.5507  0.5905 -1.0465
  167MOL    H1320265   1.102   5.642   6.018 -0.3439  0.3481  0.1464
  167MOL    C1420266   0.938   5.558   6.143  0.5781  0.1729  0.0096
  167MOL    C1520267   0.830   5.604   6.038  0.3532  0.1089 -0.3358
  167MOL    F1620268   0.819   5.519   5.942  0.1115 -0.2613  0.1864
  167MOL    H1720269   0.910   5.465   6.193 -1.9235  1.0101  0.2274
  167MOL    H1820270   0.936   5.641   6.213 -1.3210  0.4654 -0.3730
  167MOL    H1920271   0.873   5.698   6.003 -1.8868  1.3252  0.0808
  167MOL    C2020272   0.690   5.628   6.100 -0.2104 -0.0156  0.3760
  167MOL    C2120273   0.580   5.676   5.994 -0.3984  0.6584 -0.2665
  167MOL    F2220274   0.473   5.675   6.072 -0.1325 -0.2931  0.2623
  167MOL    H2320275   0.661   5.538   6.155  0.2544 -0.4002  0.0002
  167MOL    H2420276   0.702   5.702   6.179  0.8926  0.0657  0.1511
  167MOL    H2520277   0.560   5.601   5.917  2.6980 -1.0118  0.4747
  167MOL    C2620278   0.582   5.810   5.923  0.4128  0.3971  0.1365
  167MOL    C2720279   0.669   5.801   5.790 -0.3413  0.4537 -0.8912
  167MOL    F2820280   0.600   5.721   5.712  0.1784 -0.0504  0.3099
  167MOL    H2920281   0.480   5.842   5.900  0.6016  0.5923 -0.4228
  167MOL    H3020282   0.621   5.890   5.986 -1.9377  0.7097  1.2646
  167MOL    H3120283   0.767   5.753   5.789 -0.6755 -0.2898  0.9764
  167MOL    C3220284   0.685   5.946   5.729  0.8154 -0.2121  0.2747
  167MOL    C3320285   0.790   5.952   5.620 -0.8978 -0.4004 -0.2202
  167MOL    F3420286   0.745   5.888   5.515  0.1607  0.2110  0.6711
  167MOL    H3520287   0.590   5.975   5.683  0.3896 -0.7568  0.7865
  167MOL    H3620288   0.715   6.013   5.810  1.0874 -0.5757  0.4768
  167MOL    H3720289   0.882   5.902   5.652 -1.6506 -0.6273  1.7012
  167MOL    C3820290   0.809   6.101   5.581 -0.6799 -0.9823  0.1108
  167MOL    C3920291   0.945   6.153   5.642  0.1987  0.2005  0.8056
  167MOL    F4020292   1.041   6.102   5.565  0.8247 -0.2876 -0.6844
  167MOL    H4120293   0.815   6.121   5.474 -0.3715  0.5214  0.4080
  167MOL    H4220294   0.721   6.160   5.605  1.2867  1.6229  1.1671
  167MOL    H4320295   0.955   6.110   5.742  0.5631  2.0573  1.5809
  167MOL    C4420296   0.959   6.301   5.649  0.7241 -0.2998 -0.7189
  167MOL    C4520297   0.880   6.365   5.765  0.5973 -0.5766  0.2198
  167MOL    F4620298   0.937   6.335   5.877  0.2419 -0.3058  0.2886
  167MOL    H4720299   1.065   6.328   5.653  0.4453  1.1394 -2.6540
  167MOL    H4820300   0.917   6.352   5.563 -0.5778  0.4224  0.3329
  167MOL    H4920301   0.776   6.331   5.762  0.6000 -0.5475 -0.2720
  167MOL    C5020302   0.880   6.525   5.775 -0.5902  0.3790  0.1006
  167MOL    C5120303   0.790   6.598   5.674 -0.8314  0.0372  0.0333
  167MOL    F5220304   0.668   6.542   5.669  0.3700  0.3899  0.5243
  167MOL    H5320305   0.839   6.546   5.874 -0.3402 -0.1809  0.3269
  167MOL    H5420306   0.984   6.555   5.787  0.7669 -3.5167 -1.3026
  167MOL    H5520307   0.841   6.582   5.579  0.8767  0.9873  0.7685
  167MOL    C5620308   0.784   6.750   5.672  0.1063 -0.2382  0.0674
  167MOL    C5720309   0.676   6.817   5.587 -0.1820 -0.1281  0.1195
  167MOL    F5820310   0.644   6.938   5.634 -0.3021 -0.3555  0.2407
  167MOL    H5920311   0.763   6.779   5.775  1.4734 -0.8648  0.5323
  167MOL    H6020312   0.881   6.790   5.643 -0.0545 -1.0635 -1.6995
  167MOL    H6120313   0.582   6.762   5.589 -0.9001  1.1096  0.5409
  167MOL    C6220314   0.709   6.834   5.433  0.1005  0.6978  0.3300
  167MOL    C6320315   0.585   6.857   5.342 -0.0531 -0.0017  0.4300
  167MOL    F6420316   0.615   6.874   5.216  0.1509 -0.4790  0.6741
  167MOL    H6520317   0.771   6.923   5.424  0.2361  0.4599 -1.3715
  167MOL    H6620318   0.769   6.749   5.402 -0.0500  1.0365 -0.9308
  167MOL    H6720319   0.540   6.954   5.359  0.1857  0.6647 -2.5231
  167MOL    C6820320   0.481   6.743   5.329 -0.1413  0.0164 -0.1685
  167MOL    C6920321   0.542   6.613   5.282  0.0790 -1.0046  0.2671
  167MOL    F7020322   0.612   6.566   5.383  0.4045 -0.2183  0.3664
  167MOL    H7120323   0.425   6.734   5.423 -2.8020  1.2093 -1.5919
  167MOL    H7220324   0.395   6.771   5.267 -1.1130 -1.0827  0.6525
  167MOL    H7320325   0.614   6.641   5.205  0.9756 -1.7075  0.8364
  167MOL    C7420326   0.445   6.499   5.231  0.1794  1.4784 -0.5771
  167MOL    C7520327   0.347   6.440   5.341 -0.0549  0.1450  0.6242
  167MOL    F7620328   0.248   6.524   5.357  0.4585 -0.2885  0.0657
  167MOL    H7720329   0.377   6.529   5.151 -1.0368 -0.2999 -0.2434
  167MOL    H7820330   0.513   6.428   5.186  0.3644  2.0005 -1.1265
  167MOL    H7920331   0.398   6.430   5.437  1.7024 -1.0566 -0.4094
  167MOL    C8020332   0.284   6.300   5.307  0.4519  0.1953  0.3486
  167MOL    C8120333   0.377   6.176   5.314 -0.6282  0.7683  0.2966
  167MOL    F8220334   0.446   6.177   5.430  0.2312 -0.2598 -0.5616
  167MOL    H8320335   0.205   6.283   5.381 -0.5512  0.2962 -0.6803
  167MOL    H8420336   0.227   6.308   5.214  1.2377  2.2498  0.0168
  167MOL    H8520337   0.462   6.193   5.247 -1.2365  1.0872 -0.4040
  167MOL    C8620338   0.306   6.043   5.303  0.2929  0.5417 -0.0679
  167MOL    C8720339   0.208   6.017   5.184  0.6038 -0.6464 -0.6129
  167MOL    F8820340   0.269   6.041   5.064 -0.2944 -0.0821 -0.2534
  167MOL    H8920341   0.383   5.967   5.291  0.5729  0.8438 -0.1997
  167MOL    H9020342   0.259   6.020   5.399 -1.1659  4.8710  0.3742
  167MOL    H9120343   0.123   6.084   5.192  1.4117  0.4375 -0.9719
  167MOL    C9220344   0.153   5.875   5.168  0.4031 -0.3388 -0.4364
  167MOL    C9320345   0.084   5.813   5.293  0.0622  0.3958 -0.2732
  167MOL    F9420346   7.982   5.885   5.335 -0.5112  0.1392  0.0126
  167MOL    H9520347   0.078   5.853   5.092 -0.2025  0.2276 -0.0074
  167MOL    H9620348   0.233   5.818   5.121 -0.4012 -0.5293 -1.5876
  167MOL    H9720349   0.151   5.802   5.378 -1.3287  0.8001  0.8980
  167MOL    C9820350   0.011   5.673   5.264 -0.0900  0.5655 -0.3818
  167MOL    C9920351   0.120   5.566   5.260  0.3628 -0.1390 -0.4132
  167MOL   F10020352   0.176   5.554   5.382 -0.4777 -0.4021 -0.6122
  167MOL   H10120353   7.950   5.649   5.348  1.4901  0.6653  0.8752
  167MOL   H10220354   7.956   5.671   5.171  1.4618 -0.4785 -1.3646
  167MOL   H10320355   0.202   5.592   5.194 -0.7648  0.5995 -1.5523
  167MOL   C10420356   0.058   5.431   5.224  0.8169 -0.1084 -0.5424
  167MOL   C10520357   0.165   5.323   5.198  0.5668 -0.5562 -0.2399
  167MOL   F10620358   0.105   5.204   5.208  0.0701  0.2449  0.2456
  167MOL   H10720359   7.992   5.397   5.301  0.5754  3.4108  0.8900
  167MOL   H10820360   0.005   5.425   5.129  1.7251 -1.2380 -0.9852
  167MOL   H10920361   0.239   5.339   5.276 -1.6705  0.9210  1.6508
  167MOL   C11020362   0.225   5.325   5.051  0.7536  0.1599  0.3242
  167MOL   C11120363   0.358   5.251   5.043 -0.3370 -0.2234 -0.6036
  167MOL   F11220364   0.343   5.132   4.991 -0.0420  0.1601  0.2721
  167MOL   H11320365   0.155   5.284   4.979  1.3176 -0.6554  0.2276
  167MOL   H11420366   0.243   5.427   5.019  0.9201  0.6623  1.9799
  167MOL   H11520367   0.403   5.237   5.141  2.1176  0.2683 -1.6173
  167MOL   C11620368   0.466   5.333   4.952 -0.5591  0.2276 -0.4295
  167MOL   C11720369   0.590   5.246   4.927 -0.7696 -0.0706 -0.0593
  167MOL   F11820370   0.691   5.319   4.884 -0.1489 -0.7938  0.2572
  167MOL   H11920371   0.412   5.355   4.860 -1.7560 -0.4647  0.0912
  167MOL   H12020372   0.485   5.426   5.006  1.9119 -1.0418  1.0031
  167MOL   H12120373   0.563   5.168   4.856  1.6199 -1.2632  0.2885
  167MOL   H12220374   0.615   5.206   5.026 -0.1172  0.7333  0.1045
  168MOL     C120375   4.704   1.370   3.853  0.1284 -0.7492 -0.1231
  168MOL     C220376   4.723   1.220   3.895 -0.1614  0.4880  0.3770
  168MOL     F320377   4.703   1.213   4.025 -0.3691 -0.0465 -0.3603
  168MOL     H420378   4.798   1.424   3.868 -0.7233  0.6677  0.1918
  168MOL     H520379   4.616   1.415   3.898  0.3115 -0.0216 -0.4883
  168MOL     H620380   4.825   1.185   3.888 -0.4356 -0.0259 -1.3551
  168MOL     H720381   4.692   1.377   3.745 -0.3067  1.1911  0.0313
  168MOL     C820382   4.635   1.118   3.821 -0.9149  0.7742 -0.3163
  168MOL     C920383   4.625   0.984   3.896  0.4183  0.3929  0.0153
  168MOL    F1020384   4.523   0.907   3.859 -0.0666  0.2010 -0.1913
  168MOL    H1120385   4.531   1.149   3.808 -1.3223 -0.4679 -0.0487
  168MOL    H1220386   4.671   1.098   3.719  0.5949  0.3815  0.2817
  168MOL    H1320387   4.602   0.999   4.001 -2.7471 -1.6177 -0.3380
  168MOL    C1420388   4.754   0.899   3.887  0.2149  0.0920  0.0475
  168MOL    C1520389   4.754   0.772   3.973  0.0862  0.0306  0.2596
  168MOL    F1620390   4.672   0.675   3.926  0.0865 -0.2704  0.2864
  168MOL    H1720391   4.762   0.871   3.782  0.3812  1.3006 -0.2769
  168MOL    H1820392   4.837   0.965   3.915 -2.7662  3.4713  1.2509
  168MOL    H1920393   4.710   0.804   4.067 -3.8957 -2.9436 -0.4676
  168MOL    C2020394   4.898   0.713   4.002 -0.0193 -0.3672 -0.6065
  168MOL    C2120395   4.961   0.654   3.882  0.0076 -0.5497 -0.0042
  168MOL    F2220396   5.002   0.747   3.788  0.9118  0.0803  0.9403
  168MOL    H2320397   4.961   0.790   4.047 -0.1363 -0.5774 -0.0817
  168MOL    H2420398   4.889   0.639   4.081 -0.2430 -1.8030 -1.9496
  168MOL    H2520399   4.891   0.587   3.832 -1.0131  1.5689 -1.4868
  168MOL    C2620400   5.077   0.560   3.914 -0.2262 -0.0178 -0.7053
  168MOL    C2720401   5.184   0.614   4.015  0.2690  0.3734  0.6719
  168MOL    F2820402   5.124   0.614   4.132  0.4104  0.0486 -0.7725
  168MOL    H2920403   5.035   0.471   3.961  0.5504 -0.0250  0.0070
  168MOL    H3020404   5.139   0.541   3.826 -1.8110  1.5661 -2.1882
  168MOL    H3120405   5.220   0.713   3.987  2.7520 -0.8053 -0.4993
  168MOL    C3220406   5.306   0.514   4.034  0.2686  0.5668 -0.6121
  168MOL    C3320407   5.422   0.573   4.117 -0.0982 -0.2186 -0.3156
  168MOL    F3420408   5.517   0.485   4.112 -0.0340  0.6581 -0.6245
  168MOL    H3520409   5.271   0.427   4.091  0.4881 -0.4051 -1.9205
  168MOL    H3620410   5.340   0.480   3.936  3.6188  0.1860  0.6357
  168MOL    H3720411   5.387   0.582   4.219  0.9847 -1.3050  0.1607
  168MOL    C3820412   5.484   0.703   4.076  0.5034 -0.0857 -0.0719
  168MOL    C3920413   5.555   0.707   3.936  0.5985 -0.1381 -0.2419
  168MOL    F4020414   5.467   0.688   3.834 -0.0110 -0.5336 -0.4137
  168MOL    H4120415   5.406   0.778   4.083  2.2127  1.6301  0.8689
  168MOL    H4220416   5.549   0.735   4.157 -1.0669 -0.2364  1.2893
  168MOL    H4320417   5.619   0.619   3.928 -1.6772 -1.6777 -2.2885
  168MOL    C4420418   5.641   0.834   3.913  0.2827 -0.4856 -0.0408
  168MOL    C4520419   5.727   0.816   3.787 -0.8325 -0.7658  0.2080
  168MOL    F4620420   5.750   0.939   3.745  0.1372  0.4265  0.1963
  168MOL    H4720421   5.577   0.919   3.890  1.2727  0.3346  0.2155
  168MOL    H4820422   5.693   0.869   4.002 -0.8916  1.4055 -0.0547
  168MOL    H4920423   5.674   0.759   3.711  2.4041 -2.7516 -0.6755
  168MOL    C5020424   5.863   0.739   3.800 -0.0224 -0.0009 -0.5214
  168MOL    C5120425   5.976   0.802   3.899  0.0900  0.3012 -0.1173
  168MOL    F5220426   6.073   0.715   3.915 -0.2694  0.1852 -0.6122
  168MOL    H5320427   5.859   0.633   3.827 -0.7219 -0.3942 -2.1489
  168MOL    H5420428   5.895   0.731   3.696  0.8140  1.2984 -0.3764
  168MOL    H5520429   5.937   0.833   3.996  1.2270 -1.4828  0.9425
  168MOL    C5620430   6.038   0.925   3.836 -0.5818 -0.2588  0.1952
  168MOL    C5720431   6.157   0.986   3.902  0.5144  0.0745 -0.5404
  168MOL    F5820432   6.197   1.084   3.834  0.3350  0.0661 -0.2377
  168MOL    H5920433   6.072   0.898   3.736  1.7727 -0.8908  1.1270
  168MOL    H6020434   5.969   1.009   3.827  2.2126  2.1602  0.6469
  168MOL    H6120435   6.243   0.920   3.893 -0.3684 -1.1299 -0.3350
  168MOL    C6220436   6.133   1.033   4.047 -0.4671 -0.4582 -0.0874
  168MOL    C6320437   6.244   1.124   4.113 -0.3661  0.0359  0.1505
  168MOL    F6420438   6.265   1.235   4.046  0.0453  0.3501  0.5232
  168MOL    H6520439   6.039   1.088   4.058 -0.9799 -1.2601 -0.4349
  168MOL    H6620440   6.123   0.941   4.104 -1.3682 -0.2083  0.1740
  168MOL    H6720441   6.340   1.072   4.120 -0.8781 -0.7847  1.3677
  168MOL    C6820442   6.212   1.170   4.254 -0.4514  0.5401 -0.0177
  168MOL    C6920443   6.208   1.052   4.357  0.0132 -0.3974  0.4323
  168MOL    F7020444   6.331   0.995   4.357  0.0090 -0.3364  0.1050
  168MOL    H7120445   6.293   1.243   4.253 -0.9932  1.1622  0.9010
  168MOL    H7220446   6.117   1.222   4.262 -1.0038 -0.4691  0.0638
  168MOL    H7320447   6.146   0.971   4.321 -0.9592  0.5851 -0.1271
  168MOL    C7420448   6.176   1.094   4.505  0.1256 -0.5008  0.2343
  168MOL    C7520449   6.180   0.982   4.599 -0.0634  0.0482 -0.0079
  168MOL    F7620450   6.309   0.953   4.613  0.7572  0.4238 -0.1752
  168MOL    H7720451   6.240   1.175   4.538 -0.5959 -0.4900  1.6425
  168MOL    H7820452   6.078   1.142   4.503  0.7150  0.7540  0.9603
  168MOL    H7920453   6.118   0.901   4.561 -0.4248  0.6609 -0.7618
  168MOL    C8020454   6.121   1.012   4.738 -0.2237  0.3766 -0.2603
  168MOL    C8120455   5.967   0.998   4.758 -0.0671 -1.0834  0.0378
  168MOL    F8220456   5.936   0.872   4.753 -0.1112  0.1272  0.1450
  168MOL    H8320457   6.166   0.942   4.809 -0.5157 -0.5788 -1.0039
  168MOL    H8420458   6.161   1.112   4.756 -3.2234  1.0941  2.7930
  168MOL    H8520459   5.919   1.033   4.666 -1.3213 -0.5237  0.9007
  168MOL    C8620460   5.912   1.067   4.887  0.3646  0.1307  0.1621
  168MOL    C8720461   5.927   1.226   4.887 -0.0832  0.3872 -0.7573
  168MOL    F8820462   5.855   1.263   4.787 -0.0932  0.9929  0.6266
  168MOL    H8920463   5.807   1.039   4.893  0.6177 -0.7303  0.7574
  168MOL    H9020464   5.957   1.035   4.982  0.7576 -0.6093 -0.2710
  168MOL    H9120465   6.032   1.251   4.870  0.2251 -0.0163  0.5322
  168MOL    C9220466   5.876   1.294   5.018 -0.4008 -0.4470 -0.0558
  168MOL    C9320467   5.966   1.281   5.142  0.6367  0.7066 -0.0716
  168MOL    F9420468   6.064   1.369   5.127 -0.6436  0.5821  0.1844
  168MOL    H9520469   5.856   1.399   4.999  0.9977 -0.4689 -1.8045
  168MOL    H9620470   5.779   1.250   5.041 -0.6157  0.1810  0.2301
  168MOL    H9720471   6.001   1.178   5.139 -0.5251  0.3250 -1.2949
  168MOL    C9820472   5.886   1.306   5.282  0.0872  0.8306  0.0579
  168MOL    C9920473   5.974   1.279   5.403  0.4580 -0.3051  0.4031
  168MOL   F10020474   6.011   1.152   5.403 -0.0010 -0.2734 -0.0956
  168MOL   H10120475   5.842   1.406   5.282 -0.3336  0.6510 -1.0044
  168MOL   H10220476   5.804   1.235   5.277  0.4373  0.0837  3.6709
  168MOL   H10320477   5.910   1.281   5.492 -2.1579 -0.3210 -1.4309
  168MOL   C10420478   6.090   1.378   5.420  0.1171  0.4704  0.4803
  168MOL   C10520479   6.103   1.455   5.545 -0.3211  0.0050 -0.0772
  168MOL   F10620480   6.081   1.379   5.659  0.1100 -0.1289  0.3055
  168MOL   H10720481   6.175   1.310   5.411 -0.4671 -0.4679  1.9178
  168MOL   H10820482   6.091   1.438   5.329 -1.2592 -1.7439 -1.0378
  168MOL   H10920483   6.023   1.529   5.542  0.6317  1.0110 -1.5485
  168MOL   C11020484   6.229   1.537   5.558 -0.4868  0.5284 -0.1446
  168MOL   C11120485   6.225   1.659   5.656  0.3355 -0.2304  0.0098
  168MOL   F11220486   6.205   1.615   5.775  0.1125  0.5882 -0.0491
  168MOL   H11320487   6.316   1.473   5.578 -0.9808 -0.8431 -2.2424
  168MOL   H11420488   6.247   1.583   5.460  0.8912 -1.5930 -0.9269
  168MOL   H11520489   6.137   1.718   5.631 -0.2343 -1.1320 -0.1676
  168MOL   C11620490   6.349   1.746   5.638 -0.3910  0.0517  0.2814
  168MOL   C11720491   6.469   1.691   5.721  0.5470  0.3884  0.1527
  168MOL   F11820492   6.565   1.785   5.712  0.1810  0.1481  0.3809
  168MOL   H11920493   6.370   1.754   5.532  3.4882 -2.1446  0.7870
  168MOL   H12020494   6.332   1.848   5.673 -2.3429 -0.2826  0.3715
  168MOL   H12120495   6.506   1.599   5.676 -0.7840 -0.2382  0.3350
  168MOL   H12220496   6.445   1.682   5.827 -0.7534 -1.8013 -0.2997
  169MOL     C120497   0.419   1.009   5.998 -0.3626 -0.1903 -0.0633
  169MOL     C220498   0.532   1.079   5.931 -0.4163 -0.1430 -1.0494
  169MOL     F320499   0.639   1.064   6.014 -0.4793 -0.1620  0.2350
  169MOL     H420500   0.423   1.043   6.102  1.1695 -0.4756 -0.0071
  169MOL     H520501   0.426   0.900   5.996  0.6632 -0.1333  0.1427
  169MOL     H620502   0.520   1.186   5.949  0.6038 -0.6134  2.8606
  169MOL     H720503   0.328   1.044   5.950 -0.1670  1.8646  1.0072
  169MOL     C820504   0.576   1.062   5.784  0.3504 -0.0036  0.1628
  169MOL     C920505   0.583   0.922   5.734  0.1019  0.2912  0.1674
  169MOL    F1020506   0.467   0.868   5.750 -0.5388  0.3474 -0.7812
  169MOL    H1120507   0.507   1.116   5.721  0.1413 -2.0898 -1.4507
  169MOL    H1220508   0.673   1.112   5.780 -0.0231  0.8416  1.3869
  169MOL    H1320509   0.660   0.862   5.781  0.7623 -1.0656 -2.5202
  169MOL    C1420510   0.637   0.919   5.588  0.1007  0.6149 -0.1986
  169MOL    C1520511   0.695   0.786   5.536  0.0909  0.1547  0.2914
  169MOL    F1620512   0.578   0.724   5.522 -0.4092 -0.1726 -0.4180
  169MOL    H1720513   0.564   0.960   5.518  0.0811 -0.7917 -1.0297
  169MOL    H1820514   0.721   0.988   5.580  0.7915 -0.0328  1.2990
  169MOL    H1920515   0.751   0.721   5.603 -0.9630 -1.5720 -0.4709
  169MOL    C2020516   0.764   0.792   5.397  0.3539  0.0399  0.0441
  169MOL    C2120517   0.824   0.657   5.348  0.4704 -1.0936  0.1610
  169MOL    F2220518   0.724   0.576   5.314  0.3545  0.1175  0.5837
  169MOL    H2320519   0.696   0.838   5.325 -1.4146 -0.8258  1.1334
  169MOL    H2420520   0.832   0.877   5.399  0.9734 -0.4771  2.8723
  169MOL    H2520521   0.871   0.600   5.427 -0.6869 -2.1413  0.1035
  169MOL    C2620522   0.915   0.687   5.224 -0.4621 -0.4457 -0.2237
  169MOL    C2720523   0.972   0.558   5.159  0.2191  0.6383  0.1000
  169MOL    F2820524   0.868   0.480   5.127 -0.2310 -0.5836  0.6297
  169MOL    H2920525   0.873   0.753   5.148 -0.6400  0.1325  0.3726
  169MOL    H3020526   1.000   0.751   5.247  0.5013 -2.2316  1.2723
  169MOL    H3120527   1.022   0.491   5.229 -1.2249 -0.2778  0.2891
  169MOL    C3220528   1.055   0.574   5.034  0.0781 -0.1605  0.5111
  169MOL    C3320529   1.195   0.624   5.070  0.2275 -0.0298  1.0149
  169MOL    F3420530   1.256   0.537   5.150  0.3101 -0.1428  0.7945
  169MOL    H3520531   1.054   0.473   4.992  1.2417  0.0588 -0.0669
  169MOL    H3620532   1.001   0.650   4.978 -2.0638 -1.5848  0.5869
  169MOL    H3720533   1.175   0.715   5.126  0.4485  0.7217 -0.0920
  169MOL    C3820534   1.278   0.652   4.940  0.3068  0.3103 -0.1135
  169MOL    C3920535   1.413   0.719   4.963 -0.8908  0.4440 -0.2622
  169MOL    F4020536   1.494   0.647   5.043 -0.1521 -0.2861 -0.0471
  169MOL    H4120537   1.299   0.554   4.897  0.0775  0.0309  0.3997
  169MOL    H4220538   1.219   0.709   4.870  0.5491  0.6198 -0.0664
  169MOL    H4320539   1.401   0.818   5.005  1.8986  0.8704 -0.3436
  169MOL    C4420540   1.490   0.729   4.829  0.1874  0.7667  0.1278
  169MOL    C4520541   1.619   0.801   4.814  0.5963  0.2579 -0.1088
  169MOL    F4620542   1.690   0.758   4.711  0.2086  0.9623  0.8080
  169MOL    H4720543   1.518   0.626   4.805 -0.2754  0.8087 -0.5987
  169MOL    H4820544   1.423   0.742   4.744  0.3319 -2.4343 -0.5406
  169MOL    H4920545   1.684   0.758   4.891 -0.1814 -0.2653  0.2593
  169MOL    C5020546   1.623   0.953   4.825 -1.0575 -0.5981 -0.6257
  169MOL    C5120547   1.536   1.016   4.717  0.1483 -0.2663 -0.5243
  169MOL    F5220548   1.407   1.009   4.751 -0.1900  1.1390 -0.3201
  169MOL    H5320549   1.591   0.981   4.925  0.4795  1.0143 -0.5677
  169MOL    H5420550   1.728   0.982   4.823 -1.2103  0.1204  1.0530
  169MOL    H5520551   1.550   0.969   4.619  0.4857  0.3778 -0.7862
  169MOL    C5620552   1.561   1.167   4.696  0.1943 -0.3238 -0.2440
  169MOL    C5720553   1.465   1.228   4.588  0.0707  0.7965 -0.2321
  169MOL    F5820554   1.499   1.357   4.585  0.4442 -0.0604  0.1127
  169MOL    H5920555   1.539   1.213   4.793 -2.8847 -0.7673 -0.6801
  169MOL    H6020556   1.665   1.179   4.667  0.0844  0.8076 -0.1927
  169MOL    H6120557   1.360   1.224   4.618  0.6985  0.0892  2.0285
  169MOL    C6220558   1.482   1.168   4.447  0.3006  0.1235  0.1138
  169MOL    C6320559   1.626   1.164   4.384  0.0184 -0.3926 -0.0407
  169MOL    F6420560   1.711   1.091   4.453 -0.2747  0.0745 -0.1370
  169MOL    H6520561   1.447   1.066   4.460 -0.1545  0.0805 -1.4081
  169MOL    H6620562   1.418   1.212   4.371 -0.1015 -2.0052 -0.7969
  169MOL    H6720563   1.659   1.268   4.383 -0.8399 -0.1018  0.8095
  169MOL    C6820564   1.639   1.113   4.234 -0.2062 -0.6386  0.0134
  169MOL    C6920565   1.561   1.186   4.124  0.1627  0.3678  1.0314
  169MOL    F7020566   1.607   1.308   4.111  0.2004 -0.0153 -0.2329
  169MOL    H7120567   1.742   1.124   4.202  0.3970  0.6278  2.2538
  169MOL    H7220568   1.621   1.005   4.235  1.1194 -0.8636  1.1425
  169MOL    H7320569   1.455   1.189   4.151 -0.5718  2.1374 -1.8570
  169MOL    C7420570   1.571   1.120   3.977 -0.0991 -0.2053 -0.2146
  169MOL    C7520571   1.449   1.150   3.888 -0.2037  0.1065 -0.4293
  169MOL    F7620572   1.331   1.108   3.944  0.4364  0.2244 -0.1805
  169MOL    H7720573   1.661   1.150   3.924 -0.8173  1.5208 -0.4655
  169MOL    H7820574   1.571   1.011   3.990  1.2799  0.0157  2.0189
  169MOL    H7920575   1.461   1.084   3.802 -1.7647 -1.8366  0.8275
  169MOL    C8020576   1.427   1.290   3.844  0.0825 -0.7486  0.0764
  169MOL    C8120577   1.519   1.324   3.723  0.1928  0.3368 -0.1838
  169MOL    F8220578   1.462   1.273   3.615 -0.6696 -0.3312  0.2825
  169MOL    H8320579   1.322   1.313   3.824  0.0501  1.0941  2.1897
  169MOL    H8420580   1.443   1.361   3.925 -0.0687  0.6810 -1.1186
  169MOL    H8520581   1.611   1.267   3.737  0.0305  0.0303 -0.3512
  169MOL    C8620582   1.539   1.475   3.699 -0.2755  0.7676  0.4866
  169MOL    C8720583   1.652   1.536   3.782 -0.9072 -0.4741 -0.2793
  169MOL    F8820584   1.765   1.465   3.784 -0.5828 -0.2477  0.1884
  169MOL    H8920585   1.560   1.495   3.593 -0.1127  1.5487  0.6637
  169MOL    H9020586   1.439   1.516   3.710 -0.1897  1.0208  0.3437
  169MOL    H9120587   1.617   1.526   3.885  0.3651  1.6715  0.4018
  169MOL    C9220588   1.667   1.692   3.754 -0.2673  0.0268  0.0159
  169MOL    C9320589   1.740   1.780   3.853 -0.5169 -0.4458  0.3790
  169MOL    F9420590   1.839   1.709   3.902  0.1643  0.3720  0.0509
  169MOL    H9520591   1.704   1.692   3.651 -0.0126 -0.9556  0.1037
  169MOL    H9620592   1.567   1.736   3.759  0.3652  1.5937 -0.6264
  169MOL    H9720593   1.669   1.806   3.932  0.5933  0.3860  1.1100
  169MOL    C9820594   1.792   1.898   3.780 -0.1704  0.0015  0.1253
  169MOL    C9920595   1.696   1.991   3.710 -0.7205 -0.0572  0.0530
  169MOL   F10020596   1.628   2.055   3.806 -0.0387 -0.5069  0.1194
  169MOL   H10120597   1.843   1.948   3.862  1.0650 -0.6166 -0.2525
  169MOL   H10220598   1.876   1.860   3.722 -0.1236  2.0115 -1.1696
  169MOL   H10320599   1.628   1.943   3.640  0.4328  0.5580 -1.5187
  169MOL   C10420600   1.768   2.110   3.640  0.2834  0.0140  0.6841
  169MOL   C10520601   1.842   2.061   3.513  0.8513 -0.0857  0.3741
  169MOL   F10620602   1.760   1.999   3.426 -0.6762 -0.4495  0.1923
  169MOL   H10720603   1.694   2.179   3.599 -0.4863 -1.5133 -0.5298
  169MOL   H10820604   1.828   2.176   3.703 -0.4444  0.8099  0.5626
  169MOL   H10920605   1.922   1.996   3.549  1.1485 -1.6324 -2.8905
  169MOL   C11020606   1.919   2.172   3.433  0.0090  0.1078  0.4662
  169MOL   C11120607   2.057   2.212   3.487  0.4306 -0.1356  0.3925
  169MOL   F11220608   2.144   2.118   3.462 -0.4961  0.5882  0.5021
  169MOL   H11320609   1.934   2.152   3.326  0.2826 -0.7635  0.6613
  169MOL   H11420610   1.854   2.259   3.431  1.1944  1.0024  0.4048
  169MOL   H11520611   2.050   2.210   3.596 -0.9996 -0.1363  0.3038
  169MOL   C11620612   2.114   2.348   3.431  0.7069 -0.4414 -0.2441
  169MOL   C11720613   2.238   2.389   3.511  0.1342  0.0957  0.3201
  169MOL   F11820614   2.299   2.504   3.466  0.4834  0.1640 -0.1689
  169MOL   H11920615   2.135   2.336   3.325  1.4558  2.6953 -0.5101
  169MOL   H12020616   2.032   2.419   3.429  2.1227  1.2528  0.5079
  169MOL   H12120617   2.315   2.312   3.506 -1.7350 -1.9072  1.5214
  169MOL   H12220618   2.215   2.400   3.617 -1.8090  2.1948 -0.2846
  170MOL     C120619   3.901   0.093   7.656 -0.0722 -0.0454 -0.1135
  170MOL     C220620   3.847   7.968   7.586 -0.2766 -0.7773  0.0478
  170MOL     F320621   3.718   7.982   7.553 -0.4340  0.7158 -0.1635
  170MOL     H420622   4.002   0.084   7.695 -0.2767  0.5263  0.5777
  170MOL     H520623   3.844   0.133   7.740  0.1156 -0.9232  0.4358
  170MOL     H620624   3.845   7.885   7.657 -0.1364  0.9279  2.1263
  170MOL     H720625   3.890   0.180   7.591 -2.7314  0.2190  0.5991
  170MOL     C820626   3.926   7.945   7.459 -0.2553 -1.2842 -0.2933
  170MOL     C920627   3.871   7.853   7.347  0.4669  0.3636  0.1533
  170MOL    F1020628   3.931   7.876   7.233 -0.2689  0.1391  0.0425
  170MOL    H1120629   3.944   0.041   7.416 -0.2908 -1.6184 -1.0954
  170MOL    H1220630   4.023   7.901   7.483  0.9672  1.7373  0.4808
  170MOL    H1320631   3.772   7.899   7.336  0.0147  0.1696  3.0455
  170MOL    C1420632   3.843   7.701   7.384 -0.1531 -0.8284  0.3370
  170MOL    C1520633   3.775   7.628   7.264 -0.4081 -0.1851  0.1596
  170MOL    F1620634   3.863   7.606   7.159 -0.3610  0.3780  0.3831
  170MOL    H1720635   3.940   7.653   7.400  0.4478 -0.0866 -1.0373
  170MOL    H1820636   3.781   7.695   7.474 -0.1105  1.1813  0.5284
  170MOL    H1920637   3.692   7.677   7.213  1.0602  1.0872 -1.0405
  170MOL    C2020638   3.713   7.502   7.315  0.5457 -0.0394  0.1779
  170MOL    C2120639   3.644   7.405   7.219 -0.1425  0.0898 -0.1367
  170MOL    F2220640   3.645   7.292   7.289 -0.1825 -0.3537 -0.2168
  170MOL    H2320641   3.784   7.441   7.372 -0.0002  1.0624  2.0678
  170MOL    H2420642   3.639   7.528   7.390  1.9254  1.5414  1.0457
  170MOL    H2520643   3.702   7.402   7.127 -0.4276  1.7820 -0.3807
  170MOL    C2620644   3.496   7.441   7.182 -0.3751  0.0503 -0.8296
  170MOL    C2720645   3.440   7.371   7.057  0.4048 -0.7812 -1.0283
  170MOL    F2820646   3.517   7.419   6.957 -0.0452 -0.3175  0.2881
  170MOL    H2920647   3.429   7.418   7.265  0.2053  1.2770 -0.0112
  170MOL    H3020648   3.502   7.549   7.174 -2.1017  0.2932  0.7555
  170MOL    H3120649   3.342   7.412   7.035  1.4503  2.2372 -0.4426
  170MOL    C3220650   3.452   7.215   7.061 -0.3151 -0.6059 -0.0153
  170MOL    C3320651   3.395   7.138   6.938 -0.8185 -0.2379  0.0678
  170MOL    F3420652   3.444   7.181   6.817 -0.0195  0.1947 -0.2212
  170MOL    H3520653   3.556   7.193   7.084  0.2038  1.0267 -0.6937
  170MOL    H3620654   3.404   7.193   7.156 -0.6855  1.5811  0.3392
  170MOL    H3720655   3.291   7.167   6.927 -0.3237  2.0286  1.1775
  170MOL    C3820656   3.421   6.996   6.957 -0.2229  0.3706  0.6741
  170MOL    C3920657   3.297   6.916   6.930  0.2000 -0.1038 -0.2800
  170MOL    F4020658   3.278   6.920   6.799  0.1734  0.8270  0.4824
  170MOL    H4120659   3.507   6.962   6.900  0.8984  2.1620  1.2492
  170MOL    H4220660   3.451   6.971   7.059  0.9739  1.0787  0.5062
  170MOL    H4320661   3.205   6.954   6.975  0.9716 -0.7015  1.8224
  170MOL    C4420662   3.303   6.762   6.962 -0.3396 -0.0574  0.3645
  170MOL    C4520663   3.315   6.738   7.118 -0.1039 -0.6977 -0.5988
  170MOL    F4620664   3.221   6.816   7.187  0.3067  0.3683 -0.1089
  170MOL    H4720665   3.210   6.714   6.930  0.0660 -1.9891  2.0046
  170MOL    H4820666   3.393   6.717   6.920 -1.5246 -2.8063  0.6039
  170MOL    H4920667   3.407   6.785   7.151  0.2523 -0.8595 -1.3665
  170MOL    C5020668   3.289   6.600   7.169  0.3715  0.8712 -0.2615
  170MOL    C5120669   3.404   6.495   7.133 -0.0794 -0.2231  0.1916
  170MOL    F5220670   3.524   6.548   7.164  0.3512  0.2634  0.0244
  170MOL    H5320671   3.271   6.618   7.274 -0.6070  1.1455 -0.4747
  170MOL    H5420672   3.191   6.558   7.144 -1.1680  3.5923  1.0779
  170MOL    H5520673   3.407   6.493   7.024 -2.9997 -0.4861  0.0744
  170MOL    C5620674   3.396   6.354   7.193  0.3168 -0.0176  0.7427
  170MOL    C5720675   3.511   6.255   7.158 -0.1824  0.3284  0.6211
  170MOL    F5820676   3.516   6.159   7.253  0.1282 -0.2869 -0.5811
  170MOL    H5920677   3.392   6.359   7.301 -0.2414 -1.3330  0.7907
  170MOL    H6020678   3.304   6.309   7.156  0.0187 -0.1480  1.6493
  170MOL    H6120679   3.604   6.311   7.164  0.7992 -1.2604  0.6720
  170MOL    C6220680   3.512   6.193   7.015  0.5775 -0.2670 -0.9928
  170MOL    C6320681   3.624   6.096   6.988  0.0299  0.3647  0.0821
  170MOL    F6420682   3.578   6.007   6.896  0.2524 -0.5841 -0.0291
  170MOL    H6520683   3.417   6.139   7.012  0.0476  0.6758 -1.2203
  170MOL    H6620684   3.519   6.272   6.940 -1.3064  1.3462  0.4743
  170MOL    H6720685   3.655   6.038   7.075  2.1715  1.0715 -0.1872
  170MOL    C6820686   3.743   6.170   6.921 -0.5770  0.1639  0.6191
  170MOL    C6920687   3.865   6.084   6.885 -0.1504 -0.1099 -0.1748
  170MOL    F7020688   3.930   6.155   6.797  0.7005  0.0205 -0.5706
  170MOL    H7120689   3.712   6.215   6.827  0.4792  1.4845  0.8795
  170MOL    H7220690   3.778   6.246   6.991  0.0860 -1.9166  2.6091
  170MOL    H7320691   3.844   5.993   6.829  0.2085  1.2986 -2.6387
  170MOL    C7420692   3.960   6.065   7.002 -0.1299  0.4482 -0.0439
  170MOL    C7520693   4.094   6.011   6.962  0.3981 -0.7002 -0.1841
  170MOL    F7620694   4.165   6.112   6.909 -0.4910  0.0471 -0.0178
  170MOL    H7720695   3.980   6.157   7.057 -1.2520 -0.1385  1.3695
  170MOL    H7820696   3.919   5.997   7.077 -0.0253 -0.5675 -0.9047
  170MOL    H7920697   4.080   5.944   6.877  1.7808 -0.2192 -0.7906
  170MOL    C8020698   4.169   5.954   7.085  0.7778 -0.2889 -0.2456
  170MOL    C8120699   4.109   5.823   7.137 -0.0754 -0.5296 -0.6775
  170MOL    F8220700   4.048   5.751   7.042  0.4831  0.4008 -0.1299
  170MOL    H8320701   4.273   5.930   7.062  0.9152 -1.7823  1.8013
  170MOL    H8420702   4.175   6.034   7.158 -0.2595  1.5321 -2.1147
  170MOL    H8520703   4.030   5.844   7.209 -1.9875 -2.3118 -2.2071
  170MOL    C8620704   4.216   5.743   7.215 -0.6557 -1.2371  0.2888
  170MOL    C8720705   4.169   5.645   7.322  0.3003 -0.9705  0.1621
  170MOL    F8820706   4.098   5.540   7.278  0.4860 -0.0159 -0.2644
  170MOL    H8920707   4.276   5.684   7.145 -0.4126  0.1727 -0.7083
  170MOL    H9020708   4.288   5.820   7.244 -1.1654 -0.4629 -0.4672
  170MOL    H9120709   4.104   5.703   7.388  0.7657 -1.5420  1.1268
  170MOL    C9220710   4.286   5.584   7.401 -0.3727  0.4180  0.4636
  170MOL    C9320711   4.271   5.552   7.552  0.1344  0.7460 -0.0133
  170MOL    F9420712   4.242   5.671   7.615 -0.1521  1.2464 -0.1579
  170MOL    H9520713   4.314   5.495   7.344  2.3823  1.1509  0.6143
  170MOL    H9620714   4.373   5.648   7.411  0.5098 -0.5188 -0.9609
  170MOL    H9720715   4.371   5.523   7.583  0.1486 -1.5786 -2.0445
  170MOL    C9820716   4.159   5.441   7.591  0.2798 -0.6229 -0.4551
  170MOL    C9920717   4.177   5.376   7.734  0.4681  0.1451  0.2201
  170MOL   F10020718   4.088   5.283   7.758  0.0603  0.0619  0.1260
  170MOL   H10120719   4.065   5.495   7.602  0.8500 -0.4428  4.7784
  170MOL   H10220720   4.142   5.361   7.519 -1.1034 -2.4391  1.8105
  170MOL   H10320721   4.158   5.454   7.807 -0.9634  0.7412 -0.7735
  170MOL   C10420722   4.312   5.308   7.764 -0.2231  0.8538 -0.1512
  170MOL   C10520723   4.330   5.177   7.684 -0.1406  0.0411  0.8039
  170MOL   F10620724   4.327   5.204   7.557  0.2232 -0.0146 -0.0071
  170MOL   H10720725   4.399   5.374   7.754  0.6497 -0.4140 -1.0269
  170MOL   H10820726   4.315   5.288   7.871  1.3356  0.8346 -0.1883
  170MOL   H10920727   4.239   5.118   7.693 -0.4884  0.4198 -0.1416
  170MOL   C11020728   4.457   5.097   7.721 -0.1405  0.3617  0.2112
  170MOL   C11120729   4.483   4.968   7.636  0.1081  0.4586  0.1237
  170MOL   F11220730   4.617   4.946   7.641 -0.3501  0.4460  0.0047
  170MOL   H11320731   4.543   5.163   7.726 -2.4111  3.5450 -1.1531
  170MOL   H11420732   4.454   5.071   7.827  0.7931 -2.6368 -0.4445
  170MOL   H11520733   4.459   4.987   7.532 -0.0557 -1.9725 -0.3097
  170MOL   C11620734   4.405   4.845   7.676  0.0118 -0.0465 -0.0525
  170MOL   C11720735   4.416   4.732   7.578 -0.3019 -0.7543 -0.0599
  170MOL   F11820736   4.529   4.672   7.608  0.2926 -0.0412 -0.1639
  170MOL   H11920737   4.416   4.806   7.777 -0.9031 -0.5608 -0.1430
  170MOL   H12020738   4.302   4.883   7.669  0.4385  0.7919 -2.0974
  170MOL   H12120739   4.408   4.750   7.471  0.5302 -0.0095 -0.0075
  170MOL   H12220740   4.344   4.653   7.600 -0.0672 -1.4941 -1.7933
  171MOL     C120741   5.267   5.861   6.742  0.1631 -0.5695  0.0710
  171MOL     C220742   5.406   5.882   6.791 -0.0253  0.1357  0.0197
  171MOL     F320743   5.486   5.895   6.681 -0.0785 -0.7251  0.1152
  171MOL     H420744   5.262   5.812   6.645  0.7058 -0.7213  0.1160
  171MOL     H520745   5.228   5.960   6.720  0.1341 -0.6995 -0.4647
  171MOL     H620746   5.425   5.783   6.834 -0.6328 -0.7587 -1.7098
  171MOL     H720747   5.204   5.804   6.810  1.5667 -2.3768 -0.1095
  171MOL     C820748   5.416   5.999   6.891 -0.5774  0.1888 -0.3825
  171MOL     C920749   5.556   6.039   6.949  0.1373  0.5309 -0.2819
  171MOL    F1020750   5.541   6.149   7.025  0.2179 -0.0829  0.1215
  171MOL    H1120751   5.384   6.088   6.838 -1.4031  0.9066  1.2610
  171MOL    H1220752   5.353   5.977   6.978 -0.6633 -1.4339 -0.8368
  171MOL    H1320753   5.622   6.084   6.875 -1.1260  1.5050 -0.8355
  171MOL    C1420754   5.631   5.936   7.040  0.6073  0.4941 -0.0251
  171MOL    C1520755   5.781   5.934   7.020  0.0562  0.1915  0.0998
  171MOL    F1620756   5.830   6.059   6.992 -0.6865 -0.8815  0.2056
  171MOL    H1720757   5.612   5.959   7.145  1.1816 -0.6228  0.3373
  171MOL    H1820758   5.612   5.830   7.024 -2.1425  1.1881 -1.6907
  171MOL    H1920759   5.810   5.891   6.924 -1.0430 -1.4168  0.4687
  171MOL    C2020760   5.854   5.875   7.144 -0.6125 -0.2336 -1.0076
  171MOL    C2120761   6.008   5.870   7.147 -0.1402 -0.0525 -0.4696
  171MOL    F2220762   6.060   5.882   7.261  0.0290 -0.7805 -0.4827
  171MOL    H2320763   5.836   5.935   7.233 -2.2136  0.6041 -1.8723
  171MOL    H2420764   5.816   5.774   7.157  0.0115 -0.3172  0.1506
  171MOL    H2520765   6.049   5.954   7.091  0.0322 -1.0928 -1.9495
  171MOL    C2620766   6.079   5.744   7.082 -0.0846  0.5504  0.2565
  171MOL    C2720767   6.233   5.747   7.080 -0.5274 -0.3778  0.2530
  171MOL    F2820768   6.265   5.622   7.047 -0.6539  0.4560 -0.1357
  171MOL    H2920769   6.057   5.659   7.147  0.9097 -0.5187 -0.7835
  171MOL    H3020770   6.034   5.718   6.986  1.0362 -0.8399  0.1024
  171MOL    H3120771   6.267   5.761   7.183 -0.6165  0.5568  0.1573
  171MOL    C3220772   6.297   5.848   6.976 -0.2856 -0.0807  0.3909
  171MOL    C3320773   6.452   5.841   6.974  0.2192 -0.3639 -0.1310
  171MOL    F3420774   6.490   5.735   6.892  0.1508  0.2586 -0.4445
  171MOL    H3520775   6.252   5.847   6.877 -0.8903 -0.7959  0.6642
  171MOL    H3620776   6.269   5.945   7.018 -3.2449 -1.4330  1.6860
  171MOL    H3720777   6.483   5.817   7.075 -1.7594 -0.6475  0.4276
  171MOL    C3820778   6.503   5.975   6.916  0.0011  0.0553 -0.5133
  171MOL    C3920779   6.658   5.996   6.932  0.4388  0.0706  0.1862
  171MOL    F4020780   6.695   5.978   7.062  0.2474  0.2678 -0.3182
  171MOL    H4120781   6.470   5.979   6.812 -0.0811 -0.5004 -0.5093
  171MOL    H4220782   6.456   6.062   6.961  0.5227  0.5361 -0.8942
  171MOL    H4320783   6.687   6.101   6.918 -2.2816  0.6440 -1.5581
  171MOL    C4420784   6.742   5.919   6.824  0.2820 -0.1682 -0.2874
  171MOL    C4520785   6.891   5.970   6.791  0.3244  0.2107 -0.3477
  171MOL    F4620786   6.957   5.937   6.900  0.4484  0.6981 -0.3343
  171MOL    H4720787   6.752   5.816   6.858  0.8194  0.0754  0.2999
  171MOL    H4820788   6.675   5.914   6.739 -0.0238 -4.7090  0.0794
  171MOL    H4920789   6.888   6.079   6.788  0.8152  0.2550  0.4438
  171MOL    C5020790   6.955   5.901   6.667  0.3462  0.6294 -0.5007
  171MOL    C5120791   6.895   5.963   6.541 -0.6210 -0.6099 -0.0252
  171MOL    F5220792   6.924   6.094   6.537  0.6980 -0.1634 -0.2372
  171MOL    H5320793   7.057   5.939   6.673  0.4977 -0.0265  1.7607
  171MOL    H5420794   6.947   5.793   6.675 -0.3251  0.8467  2.6282
  171MOL    H5520795   6.787   5.958   6.546 -0.6275 -1.2493 -0.7297
  171MOL    C5620796   6.943   5.899   6.410 -1.0059 -0.2171  0.4271
  171MOL    C5720797   6.865   5.761   6.374  0.0813 -0.5265 -0.1199
  171MOL    F5820798   6.734   5.784   6.386 -0.6640 -0.1158 -0.5823
  171MOL    H5920799   6.918   5.959   6.323 -1.1100  0.3218  0.8245
  171MOL    H6020800   7.051   5.892   6.408 -0.8660  0.9872  2.5183
  171MOL    H6120801   6.882   5.679   6.444 -0.8879 -0.4257  0.2483
  171MOL    C6220802   6.889   5.712   6.230 -0.0313  0.1622 -0.8808
  171MOL    C6320803   6.816   5.578   6.203  0.2320  0.2267 -0.0305
  171MOL    F6420804   6.687   5.602   6.186 -0.0949 -0.4377 -0.0806
  171MOL    H6520805   6.858   5.780   6.150 -2.0656 -0.8332 -0.9653
  171MOL    H6620806   6.995   5.718   6.202  0.9040 -0.0920  2.3520
  171MOL    H6720807   6.832   5.507   6.284  4.8161  0.6898 -0.4160
  171MOL    C6820808   6.850   5.510   6.067  0.5287  0.3991 -0.7150
  171MOL    C6920809   6.789   5.371   6.036  0.0223  0.7529 -0.2458
  171MOL    F7020810   6.671   5.390   5.979 -0.1557  0.4057 -0.3549
  171MOL    H7120811   6.830   5.582   5.987 -1.2047  1.0378  0.2681
  171MOL    H7220812   6.956   5.484   6.069  0.4747  0.0746 -1.6069
  171MOL    H7320813   6.773   5.307   6.123  1.1775  1.8713  0.7988
  171MOL    C7420814   6.876   5.296   5.936 -0.2908  1.0603 -0.0015
  171MOL    C7520815   6.825   5.155   5.898  0.5154 -0.0031 -0.7421
  171MOL    F7620816   6.712   5.171   5.837  0.2242 -0.2004  0.4380
  171MOL    H7720817   6.882   5.354   5.844  4.0906  1.6565  0.5582
  171MOL    H7820818   6.978   5.279   5.969  1.3227 -0.3306 -5.3334
  171MOL    H7920819   6.788   5.107   5.989  1.1994 -1.0528 -1.0132
  171MOL    C8020820   6.921   5.069   5.819 -0.3962 -0.3506  0.1764
  171MOL    C8120821   6.870   4.921   5.792  0.1997 -0.7895 -0.4623
  171MOL    F8220822   6.957   4.850   5.718  0.1610 -0.2160  0.0429
  171MOL    H8320823   6.956   5.122   5.731  0.0133  0.4575  0.8184
  171MOL    H8420824   7.014   5.065   5.875 -0.3029  4.3609  0.5795
  171MOL    H8520825   6.776   4.928   5.738 -0.5277 -1.6663  0.6747
  171MOL    C8620826   6.823   4.831   5.906  0.4821 -0.1118 -0.1457
  171MOL    C8720827   6.925   4.793   6.005  0.4577 -0.1302 -0.0188
  171MOL    F8820828   6.993   4.898   6.038 -0.2248 -0.2497 -0.4382
  171MOL    H8920829   6.749   4.888   5.962  1.4239 -0.7756  1.8014
  171MOL    H9020830   6.773   4.747   5.858 -0.4876 -0.6720  1.7925
  171MOL    H9120831   6.985   4.716   5.958  0.6862  1.0967 -1.7694
  171MOL    C9220832   6.866   4.746   6.141 -1.1718 -0.2509  0.0799
  171MOL    C9320833   6.975   4.696   6.235  0.1069  0.3877  0.1685
  171MOL    F9420834   6.934   4.696   6.364 -0.1541 -0.2476 -0.1562
  171MOL    H9520835   6.825   4.827   6.200 -1.8323 -0.7498  0.3065
  171MOL    H9620836   6.796   4.668   6.113 -1.7703 -0.0638  1.0236
  171MOL    H9720837   7.064   4.758   6.246  1.2185 -1.2291  0.4530
  171MOL    C9820838   7.017   4.552   6.207  0.0818  0.3487 -0.2140
  171MOL    C9920839   7.131   4.505   6.294 -0.1318  0.4364  0.3848
  171MOL   F10020840   7.139   4.372   6.279 -0.0290 -0.1758  0.1372
  171MOL   H10120841   6.929   4.487   6.211  1.8978 -2.1240  0.7949
  171MOL   H10220842   7.048   4.544   6.103 -0.1856 -1.3640 -0.1755
  171MOL   H10320843   7.096   4.518   6.396 -2.1963 -1.0922 -0.0863
  171MOL   C10420844   7.268   4.550   6.259 -0.2652  0.2898 -0.0757
  171MOL   C10520845   7.377   4.507   6.363  0.4028  0.4558 -0.0556
  171MOL   F10620846   7.493   4.497   6.306 -0.3434 -0.8881  0.1770
  171MOL   H10720847   7.277   4.520   6.154  0.0090  0.5625 -0.1329
  171MOL   H10820848   7.260   4.658   6.241 -1.0379  0.1986 -0.3438
  171MOL   H10920849   7.355   4.402   6.384 -1.1296  0.2784 -2.3951
  171MOL   C11020850   7.395   4.587   6.500 -0.0090  0.5804  0.4450
  171MOL   C11120851   7.439   4.506   6.617  0.2934  0.1766  0.5111
  171MOL   F11220852   7.366   4.394   6.627  0.0844  0.1514  0.0902
  171MOL   H11320853   7.452   4.678   6.482 -0.9085  1.4495  1.8700
  171MOL   H11420854   7.298   4.624   6.535 -1.6206 -2.2761 -0.9044
  171MOL   H11520855   7.416   4.562   6.708  0.7119  1.5357 -0.2052
  171MOL   C11620856   7.591   4.483   6.634 -1.0100  0.0685  0.2184
  171MOL   C11720857   7.667   4.618   6.659 -0.8062 -0.6916  0.4352
  171MOL   F11820858   7.803   4.582   6.670 -0.9134  0.3722 -0.1782
  171MOL   H11920859   7.605   4.408   6.711  1.3625  2.5255  2.2776
  171MOL   H12020860   7.628   4.438   6.542 -2.0075 -2.3784  0.9732
  171MOL   H12120861   7.642   4.673   6.750 -1.4437 -0.0310 -0.1304
  171MOL   H12220862   7.652   4.694   6.582 -1.9498 -1.4925 -0.1341
  172MOL     C120863   4.488   7.344   6.803 -0.1582  0.2416 -0.1989
  172MOL     C220864   4.441   7.285   6.937 -0.3511  0.6353  0.2573
  172MOL     F320865   4.318   7.234   6.911 -0.0668 -0.5648 -0.2399
  172MOL     H420866   4.590   7.381   6.812  0.0905 -0.4143 -0.2594
  172MOL     H520867   4.429   7.428   6.766  1.5570  2.1284  1.2740
  172MOL     H620868   4.426   7.363   7.011 -2.4489 -0.9993  1.5991
  172MOL     H720869   4.492   7.266   6.726  0.1941  1.3618 -1.3387
  172MOL     C820870   4.542   7.182   6.985  0.0403 -0.0501  0.6053
  172MOL     C920871   4.511   7.154   7.137  0.1896  0.1558 -0.5356
  172MOL    F1020872   4.390   7.091   7.153 -0.5210 -0.4560 -1.0152
  172MOL    H1120873   4.540   7.098   6.916 -2.3307 -0.8474  1.6148
  172MOL    H1220874   4.647   7.212   6.977 -0.2171  0.6353 -0.2875
  172MOL    H1320875   4.503   7.252   7.185 -2.2417 -0.3147  0.0981
  172MOL    C1420876   4.611   7.056   7.206  0.3154  0.5183 -0.0772
  172MOL    C1520877   4.602   7.034   7.359  0.3923  0.4861 -0.0282
  172MOL    F1620878   4.634   7.152   7.417  0.6681 -0.0731 -0.1008
  172MOL    H1720879   4.612   6.958   7.159  0.9487  1.3573 -1.8418
  172MOL    H1820880   4.708   7.099   7.183  0.4559 -0.2168 -0.8658
  172MOL    H1920881   4.686   6.968   7.381  1.5090  2.3502  1.4482
  172MOL    C2020882   4.462   6.984   7.406  0.1876  0.7437  0.2041
  172MOL    C2120883   4.423   6.842   7.348 -0.0940  0.3562  0.5102
  172MOL    F2220884   4.529   6.760   7.359 -0.2743  0.0550  0.0062
  172MOL    H2320885   4.472   6.966   7.513  1.4803 -0.2019 -0.0618
  172MOL    H2420886   4.379   7.055   7.404  1.7023  2.5657  0.1074
  172MOL    H2520887   4.408   6.864   7.242 -0.1406 -0.0676  0.4258
  172MOL    C2620888   4.299   6.770   7.390 -0.0891 -0.1427  0.0748
  172MOL    C2720889   4.171   6.861   7.389 -0.4476 -0.2004 -0.1545
  172MOL    F2820890   4.118   6.850   7.260 -0.5603 -0.4306 -0.3697
  172MOL    H2920891   4.290   6.688   7.319 -2.4994  0.5174 -0.4306
  172MOL    H3020892   4.307   6.741   7.495 -0.9069 -1.2989 -0.1746
  172MOL    H3120893   4.186   6.969   7.397 -0.4295 -0.1387 -0.9997
  172MOL    C3220894   4.069   6.807   7.491  0.1684 -0.1203  0.6095
  172MOL    C3320895   3.932   6.883   7.488  0.3721  0.1211 -0.3034
  172MOL    F3420896   3.854   6.829   7.590 -0.6388 -0.1223  0.0305
  172MOL    H3520897   4.048   6.701   7.477  1.0529 -0.2817  0.4737
  172MOL    H3620898   4.108   6.808   7.593  2.5754  1.0550 -0.2932
  172MOL    H3720899   3.870   6.860   7.401  0.5574  1.9827 -0.9361
  172MOL    C3820900   3.928   7.032   7.503 -0.0659 -0.0206 -0.1288
  172MOL    C3920901   3.993   7.098   7.627  0.0348 -0.0568 -0.0931
  172MOL    F4020902   4.126   7.068   7.639  0.4916 -0.1086 -0.1877
  172MOL    H4120903   3.976   7.071   7.414 -0.6084  2.3110  0.5742
  172MOL    H4220904   3.821   7.053   7.495 -0.2157 -0.3985  0.7841
  172MOL    H4320905   3.939   7.057   7.713 -0.4976 -2.0391 -1.3377
  172MOL    C4420906   3.973   7.249   7.629 -0.6590 -0.1679  0.2798
  172MOL    C4520907   4.045   7.334   7.517 -0.2725 -0.6021  0.1121
  172MOL    F4620908   3.999   7.459   7.521 -0.1481  0.4976 -0.5392
  172MOL    H4720909   3.866   7.267   7.619  0.0732  4.5918 -0.2517
  172MOL    H4820910   4.017   7.296   7.717  1.7806  0.9118 -1.4602
  172MOL    H4920911   4.017   7.293   7.420  2.6825 -1.3411 -0.4866
  172MOL    C5020912   4.199   7.336   7.517 -0.1027  0.7293  0.0070
  172MOL    C5120913   4.265   7.447   7.432  0.3722  0.0371  0.2166
  172MOL    F5220914   4.393   7.451   7.455 -0.6202 -0.0090 -0.3714
  172MOL    H5320915   4.230   7.339   7.622 -0.0915  1.2025 -0.0070
  172MOL    H5420916   4.242   7.241   7.487  0.4553  1.5461 -1.7954
  172MOL    H5520917   4.228   7.546   7.460  0.5532  0.6470 -1.5660
  172MOL    C5620918   4.235   7.434   7.277 -0.2556 -0.0186  0.0495
  172MOL    C5720919   4.258   7.557   7.183  0.1677 -0.3502  0.0421
  172MOL    F5820920   4.391   7.543   7.148 -0.3904 -0.2920  0.1156
  172MOL    H5920921   4.276   7.348   7.224 -3.0693 -1.7935  0.6683
  172MOL    H6020922   4.128   7.419   7.268 -0.1794  0.4857 -2.0378
  172MOL    H6120923   4.242   7.650   7.237 -0.5819 -0.1937 -0.4397
  172MOL    C6220924   4.180   7.540   7.048  0.3518  0.3672  0.0379
  172MOL    C6320925   4.210   7.645   6.941  0.5338  0.1564 -0.3757
  172MOL    F6420926   4.330   7.637   6.887  0.5505 -0.2592 -0.9311
  172MOL    H6520927   4.196   7.444   6.998  1.1019  0.2030  0.5893
  172MOL    H6620928   4.073   7.542   7.070  0.8570  1.9980  2.5222
  172MOL    H6720929   4.215   7.740   6.996 -0.7835 -0.2946  0.5476
  172MOL    C6820930   4.098   7.652   6.844  0.0970 -1.1591  0.6166
  172MOL    C6920931   4.104   7.764   6.750 -0.1458 -0.2521  0.4512
  172MOL    F7020932   4.017   7.744   6.651 -0.3230 -0.1141  0.5222
  172MOL    H7120933   4.074   7.563   6.786  0.2190 -0.0294 -1.1949
  172MOL    H7220934   3.998   7.662   6.888  0.2329 -0.4899  0.7664
  172MOL    H7320935   4.199   7.757   6.697  0.7235  0.4899  1.8803
  172MOL    C7420936   4.095   7.911   6.807 -0.3965  0.3691  0.3380
  172MOL    C7520937   4.074   0.016   6.694  0.0926 -0.8174 -0.2078
  172MOL    F7620938   4.051   0.135   6.759  0.1689 -0.0866  0.0224
  172MOL    H7720939   4.013   7.916   6.878 -1.2421 -0.5089 -0.5526
  172MOL    H7820940   4.189   7.930   6.859 -0.5030 -0.6591  0.9357
  172MOL    H7920941   3.985   7.992   6.637 -0.3382 -1.1732  0.6290
  172MOL    C8020942   4.194   0.040   6.592  0.1151  0.2430  0.9984
  172MOL    C8120943   4.320   0.091   6.669 -0.6641 -0.3385  0.0405
  172MOL    F8220944   4.383   7.996   6.726 -0.2584  0.3490 -0.0107
  172MOL    H8320945   4.213   7.952   6.534  2.4223  1.5140 -0.3235
  172MOL    H8420946   4.171   0.118   6.520 -2.8868 -0.4940  1.0848
  172MOL    H8520947   4.302   0.155   6.755  1.3441  0.2026  0.0663
  172MOL    C8620948   4.422   0.166   6.571  0.4955 -0.2681  0.5247
  172MOL    C8720949   4.529   0.249   6.639  0.3160 -0.2714  0.3737
  172MOL    F8820950   4.483   0.344   6.727  0.6739  0.3955 -0.5737
  172MOL    H8920951   4.461   0.091   6.502 -0.8281  0.0133 -0.5611
  172MOL    H9020952   4.364   0.237   6.512 -1.1921 -1.6226  0.5394
  172MOL    H9120953   4.564   0.310   6.555 -2.7924  1.1189  0.0202
  172MOL    C9220954   4.642   0.161   6.701  0.1777 -0.3734  0.4570
  172MOL    C9320955   4.731   0.100   6.597  0.2780 -0.3871  0.3825
  172MOL    F9420956   4.776   0.204   6.523 -0.0873 -0.1168 -0.5212
  172MOL    H9520957   4.705   0.232   6.754  0.9150  0.2889 -1.2457
  172MOL    H9620958   4.607   0.091   6.776  0.2140  0.7389  1.5224
  172MOL    H9720959   4.682   0.035   6.525  3.9170 -0.5479 -2.0806
  172MOL    C9820960   4.852   0.033   6.660 -0.2056  0.2280 -0.0503
  172MOL    C9920961   4.824   7.900   6.730  0.0144  0.4042  0.8029
  172MOL   F10020962   4.808   7.796   6.646  0.2418 -0.1427  0.2831
  172MOL   H10120963   4.929   0.024   6.583  0.1859 -2.1077  0.5774
  172MOL   H10220964   4.891   0.102   6.735 -0.8806 -0.1617  0.6684
  172MOL   H10320965   4.741   7.902   6.800 -1.0878 -1.5612 -0.3895
  172MOL   C10420966   4.937   7.866   6.826  0.0720 -0.2168  0.0861
  172MOL   C10520967   4.930   7.735   6.901 -0.0043 -0.1207  0.5023
  172MOL   F10620968   5.056   7.717   6.944 -0.5827  0.1310  0.7970
  172MOL   H10720969   5.027   7.862   6.765 -1.2993  0.6071 -2.0777
  172MOL   H10820970   4.941   7.941   6.904  2.7406 -1.0431  0.8035
  172MOL   H10920971   4.913   7.652   6.831 -0.1230  1.4735 -1.4096
  172MOL   C11020972   4.836   7.737   7.023 -0.1746  0.6665  0.0749
  172MOL   C11120973   4.844   7.610   7.108 -0.0167  0.0770  0.3798
  172MOL   F11220974   4.939   7.633   7.203 -0.2344  0.7013  0.2919
  172MOL   H11320975   4.875   7.819   7.084  0.4071  0.2954  0.2085
  172MOL   H11420976   4.736   7.762   6.989 -0.1142  4.0888  2.1971
  172MOL   H11520977   4.883   7.525   7.053 -0.7028 -0.2940  0.4680
  172MOL   C11620978   4.715   7.571   7.182  0.1238  0.0960  0.5889
  172MOL   C11720979   4.739   7.445   7.249 -0.0866  0.1437  0.0682
  172MOL   F11820980   4.778   7.343   7.171 -0.4663  0.6400  0.4324
  172MOL   H11920981   4.689   7.659   7.241  0.1176 -0.0542  0.8090
  172MOL   H12020982   4.642   7.563   7.101  0.8011 -1.0485  0.0838
  172MOL   H12120983   4.639   7.422   7.286 -0.2632  1.3050  0.3062
  172MOL   H12220984   4.812   7.455   7.330 -2.7537  5.7926  1.9895
  173MOL     C120985   6.623   6.759   0.820 -0.3792  0.4764  0.3325
  173MOL     C220986   6.600   6.879   0.914 -0.7397  0.4362  0.1578
  173MOL     F320987   6.701   6.966   0.891  0.6971 -0.2604 -0.2252
  173MOL     H420988   6.620   6.787   0.715 -0.7230 -0.5525  0.0611
  173MOL     H520989   6.562   6.671   0.842  1.0813 -1.2172 -2.1496
  173MOL     H620990   6.590   6.837   1.014 -0.7765  0.2152  0.0609
  173MOL     H720991   6.721   6.723   0.850 -0.0676  1.1209  0.0836
  173MOL     C820992   6.474   6.951   0.883 -0.3702 -0.2290  0.1316
  173MOL     C920993   6.448   7.083   0.972  0.2388  0.1275  0.3398
  173MOL    F1020994   6.465   7.050   1.105 -0.0811 -0.1973  0.2019
  173MOL    H1120995   6.473   6.979   0.778 -0.0772  0.4421  0.3048
  173MOL    H1220996   6.389   6.887   0.905 -1.2071  0.8643  0.1533
  173MOL    H1320997   6.345   7.108   0.948  0.4158  0.1804 -0.3685
  173MOL    C1420998   6.522   7.214   0.930  0.2697 -0.5417 -0.0972
  173MOL    C1520999   6.430   7.339   0.913 -0.7513 -0.3459  0.4478
  173MOL    F1621000   6.377   7.358   1.033 -0.7023 -0.5852 -0.0222
  173MOL    H1721001   6.596   7.246   1.003 -0.7765 -0.3822  0.9187
  173MOL    H1821002   6.571   7.183   0.838 -2.9331  0.5299 -2.2757
  173MOL    H1921003   6.354   7.320   0.838 -2.2721  0.4181  1.7814
  173MOL    C2021004   6.523   7.459   0.860 -0.1351  0.4764  0.0748
  173MOL    C2121005   6.442   7.577   0.791  0.3764  0.4599  0.4133
  173MOL    F2221006   6.330   7.612   0.862 -0.1530 -0.2114  0.7739
  173MOL    H2321007   6.575   7.502   0.946 -1.2841 -0.0771  1.0501
  173MOL    H2421008   6.602   7.428   0.791 -0.3460 -1.0613  0.5014
  173MOL    H2521009   6.404   7.540   0.696  0.3587  0.6747  0.3378
  173MOL    C2621010   6.520   7.708   0.764 -0.4219 -0.0625 -0.0448
  173MOL    C2721011   6.659   7.682   0.699 -0.2516  0.7628 -0.4020
  173MOL    F2821012   6.659   7.593   0.599  0.3754 -0.2774 -0.0296
  173MOL    H2921013   6.469   7.782   0.703  0.4741 -0.0944 -0.8473
  173MOL    H3021014   6.538   7.759   0.859 -1.5375 -1.0431  0.7022
  173MOL    H3121015   6.715   7.626   0.774  0.0444  1.9772  0.2967
  173MOL    C3221016   6.747   7.808   0.672 -0.6092  0.0167  0.1007
  173MOL    C3321017   6.741   7.856   0.524  0.1736 -0.5929 -0.6441
  173MOL    F3421018   6.616   7.901   0.497  0.3112  0.8387  0.0975
  173MOL    H3521019   6.736   7.893   0.740 -1.2561 -0.1702  0.2386
  173MOL    H3621020   6.849   7.774   0.688  0.4506  2.5899 -0.9712
  173MOL    H3721021   6.751   7.765   0.465  3.1776 -1.5256  1.1720
  173MOL    C3821022   6.847   7.962   0.496  0.3259 -0.6870 -0.0769
  173MOL    C3921023   6.867   0.008   0.352 -0.5527  0.2368 -0.0240
  173MOL    F4021024   6.913   7.898   0.297  0.1592 -0.3707  0.0018
  173MOL    H4121025   6.822   0.044   0.559  0.9819  1.1975 -2.2891
  173MOL    H4221026   6.941   7.934   0.543  0.0989  0.5009  1.1208
  173MOL    H4321027   6.946   0.082   0.338 -0.0814  0.0495  1.5785
  173MOL    C4421028   6.742   0.038   0.262  0.2459  0.2308 -0.0302
  173MOL    C4521029   6.688   0.180   0.302 -0.6752  0.3537  0.0183
  173MOL    F4621030   6.790   0.271   0.283 -0.5876  0.0835  0.1669
  173MOL    H4721031   6.765   0.045   0.156 -1.3321  0.5421 -0.3740
  173MOL    H4821032   6.657   7.973   0.270  0.0909  0.6007  1.6060
  173MOL    H4921033   6.676   0.194   0.410 -1.7188  1.6550 -0.2492
  173MOL    C5021034   6.566   0.213   0.219  0.0288  0.1549  0.3275
  173MOL    C5121035   6.508   0.346   0.261  0.0659 -0.0475 -0.0803
  173MOL    F5221036   6.600   0.441   0.241 -0.0720 -0.2831  0.3949
  173MOL    H5321037   6.583   0.202   0.111 -1.2599  1.7111 -0.0502
  173MOL    H5421038   6.491   0.137   0.241  0.4970 -0.2256  0.6084
  173MOL    H5521039   6.497   0.336   0.369 -0.5089  1.1247 -0.0308
  173MOL    C5621040   6.367   0.396   0.204  0.2969 -0.5148  0.3302
  173MOL    C5721041   6.374   0.460   0.066  0.2215  0.0050 -0.1137
  173MOL    F5821042   6.443   0.377   7.989  0.1316  0.0145 -0.2337
  173MOL    H5921043   6.297   0.312   0.204  0.0513 -0.3199 -0.6267
  173MOL    H6021044   6.331   0.472   0.273  0.6257  0.6698 -0.7791
  173MOL    H6121045   6.438   0.547   0.076 -2.4927  2.2002 -1.1252
  173MOL    C6221046   6.238   0.503   0.019 -0.0880 -0.8483 -0.0449
  173MOL    C6321047   6.254   0.593   7.896  0.1977  0.0011  0.1154
  173MOL    F6421048   6.299   0.515   7.794  0.3861 -0.0068 -0.5737
  173MOL    H6521049   6.179   0.412   0.013 -0.8015 -0.3729 -0.2647
  173MOL    H6621050   6.191   0.556   0.101  1.0970  2.3233 -1.3281
  173MOL    H6721051   6.323   0.674   7.916 -1.1203  0.7612  1.6946
  173MOL    C6821052   6.124   0.654   7.855  0.2639  0.0547  0.4254
  173MOL    C6921053   6.125   0.733   7.726 -0.1273 -0.2600 -0.2789
  173MOL    F7021054   6.141   0.655   7.622  0.4912  0.8699 -0.1318
  173MOL    H7121055   6.042   0.583   7.843 -0.1674  0.4774  0.8534
  173MOL    H7221056   6.104   0.732   7.928 -0.9697  0.3510 -0.2155
  173MOL    H7321057   6.206   0.806   7.726 -0.5167  0.1739 -0.0518
  173MOL    C7421058   5.998   0.807   7.706  0.0981 -0.1477  0.3593
  173MOL    C7521059   5.979   0.929   7.806  0.4870 -0.0477  0.3316
  173MOL    F7621060   6.101   0.990   7.822  0.0675  0.0496  0.1231
  173MOL    H7721061   5.990   0.852   7.607  0.8009  1.0046  0.8087
  173MOL    H7821062   5.902   0.755   7.709  0.4983 -0.8222  1.5919
  173MOL    H7921063   5.958   0.902   7.910  2.9041 -0.5310  0.7099
  173MOL    C8021064   5.876   1.032   7.758  1.1931 -0.2895 -0.7616
  173MOL    C8121065   5.840   1.127   7.868 -0.1104  0.4252 -0.6586
  173MOL    F8221066   5.781   1.231   7.815  0.1670 -0.0200 -0.0213
  173MOL    H8321067   5.926   1.082   7.675  1.8057 -0.8344 -0.7241
  173MOL    H8421068   5.794   0.979   7.709 -0.2349  0.7467  0.4463
  173MOL    H8521069   5.931   1.148   7.924 -0.5716  0.2561  0.1645
  173MOL    C8621070   5.740   1.074   7.981  0.0228 -0.2444  0.0066
  173MOL    C8721071   5.675   1.189   0.061  0.4413 -0.6586  0.2780
  173MOL    F8821072   5.558   1.144   0.108  0.0128  0.3170 -0.6521
  173MOL    H8921073   5.663   1.019   7.926  0.8535  0.2657 -1.6998
  173MOL    H9021074   5.788   1.008   0.049 -1.1747 -3.0350 -1.6740
  173MOL    H9121075   5.640   1.276   0.005  2.2977 -0.4537 -0.5898
  173MOL    C9221076   5.755   1.232   0.183 -0.3271  0.1315 -0.1622
  173MOL    C9321077   5.678   1.328   0.271 -0.4176  0.1369  0.0890
  173MOL    F9421078   5.742   1.322   0.386  0.0193 -0.5656  0.0533
  173MOL    H9521079   5.785   1.142   0.236 -0.4797 -0.5471 -1.2083
  173MOL    H9621080   5.842   1.293   0.158  0.2131 -0.1201  1.0791
  173MOL    H9721081   5.575   1.300   0.295 -0.0682 -1.5060 -0.2702
  173MOL    C9821082   5.679   1.473   0.219 -0.5456  0.4019 -0.5736
  173MOL    C9921083   5.553   1.558   0.252  0.6738  0.0212  0.0595
  173MOL   F10021084   5.441   1.491   0.229  0.4963 -0.3031  0.3984
  173MOL   H10121085   5.768   1.527   0.252  0.9388 -1.6516 -1.1137
  173MOL   H10221086   5.691   1.471   0.110  0.1752  0.7409 -0.5002
  173MOL   H10321087   5.550   1.646   0.188  1.5580  0.7231  0.9853
  173MOL   C10421088   5.543   1.619   0.402 -0.4881 -0.5276  0.4683
  173MOL   C10521089   5.425   1.714   0.421 -1.4100 -0.5068  0.5206
  173MOL   F10621090   5.309   1.650   0.433  0.0144 -0.1925 -0.5378
  173MOL   H10721091   5.546   1.536   0.472  1.5752  0.7775  1.9832
  173MOL   H10821092   5.633   1.675   0.426  0.0115 -1.7918  1.6616
  173MOL   H10921093   5.418   1.772   0.329  0.9412 -2.1647 -0.7860
  173MOL   C11021094   5.444   1.814   0.541 -0.1672  0.4163 -1.1494
  173MOL   C11121095   5.329   1.920   0.558 -0.3113 -0.1287 -0.5715
  173MOL   F11221096   5.210   1.864   0.582 -0.3156  0.1787 -0.4448
  173MOL   H11321097   5.463   1.758   0.633 -0.6430  0.3866 -1.0672
  173MOL   H11421098   5.534   1.873   0.527  0.7626 -0.8183 -0.5124
  173MOL   H11521099   5.320   1.993   0.477 -2.9546  0.4207  0.1779
  173MOL   C11621100   5.367   2.008   0.675 -0.5564  0.3360 -0.1526
  173MOL   C11721101   5.256   2.112   0.705 -0.0586  0.1234 -0.4029
  173MOL   F11821102   5.292   2.181   0.814  0.6685  0.0512 -0.6158
  173MOL   H11921103   5.385   1.946   0.763 -1.2542  0.1334 -0.1480
  173MOL   H12021104   5.463   2.053   0.651 -0.2070 -1.0114 -1.3961
  173MOL   H12121105   5.169   2.054   0.735 -0.0268 -0.2694 -1.0707
  173MOL   H12221106   5.226   2.188   0.632  0.5609 -0.1232 -0.9142
  174MOL     C121107   2.132   0.222   7.396  0.3119 -0.4620  0.5214
  174MOL     C221108   2.172   0.252   7.245  0.2580 -0.3500  0.1329
  174MOL     F321109   2.096   0.342   7.184  0.6272 -0.3140 -0.1648
  174MOL     H421110   2.214   0.180   7.454 -0.0118 -1.1826  0.4677
  174MOL     H521111   2.053   0.146   7.396  1.5197 -1.7392 -0.5787
  174MOL     H621112   2.163   0.171   7.172 -1.1829 -0.9086  0.8919
  174MOL     H721113   2.099   0.312   7.446  0.2850 -0.7669  1.0562
  174MOL     C821114   2.319   0.319   7.242  0.1961  0.1343  0.1268
  174MOL     C921115   2.325   0.472   7.271 -0.0473 -0.2976 -0.4230
  174MOL    F1021116   2.323   0.483   7.403  0.0311 -0.3933  0.1686
  174MOL    H1121117   2.375   0.267   7.320  0.1478  2.0959  1.5139
  174MOL    H1221118   2.373   0.302   7.149 -0.2395 -1.8648  0.2258
  174MOL    H1321119   2.243   0.536   7.239  0.7875  2.1558  2.2298
  174MOL    C1421120   2.457   0.533   7.220  0.2114  0.3559 -0.0016
  174MOL    C1521121   2.441   0.591   7.083 -0.6922  0.0729 -0.0671
  174MOL    F1621122   2.340   0.675   7.069 -0.2425  0.2785 -0.0749
  174MOL    H1721123   2.481   0.620   7.281 -1.0774  0.9006 -0.2564
  174MOL    H1821124   2.545   0.469   7.214  0.3314  0.6544 -1.5140
  174MOL    H1921125   2.420   0.501   7.025  0.2203 -0.8075  0.9403
  174MOL    C2021126   2.571   0.653   7.028 -0.5129  0.9409  0.1562
  174MOL    C2121127   2.645   0.744   7.124  0.4235 -0.2389 -0.6795
  174MOL    F2221128   2.711   0.688   7.216 -0.2686  0.4604 -0.2507
  174MOL    H2321129   2.637   0.567   7.015 -1.6505 -0.1595  1.4682
  174MOL    H2421130   2.552   0.688   6.927  0.5824  1.1987  0.0330
  174MOL    H2521131   2.569   0.812   7.163 -0.1441 -1.4433  0.3510
  174MOL    C2621132   2.745   0.825   7.043  0.1573 -0.3351 -0.5886
  174MOL    C2721133   2.688   0.945   6.960 -0.4658  0.0366 -0.0050
  174MOL    F2821134   2.634   1.021   7.051 -0.5697 -0.3638 -0.1407
  174MOL    H2921135   2.821   0.871   7.106 -1.3405 -2.0987  2.6556
  174MOL    H3021136   2.801   0.762   6.973  1.7960  1.1296 -0.6182
  174MOL    H3121137   2.611   0.913   6.890 -1.8718 -0.1618  1.6103
  174MOL    C3221138   2.804   1.016   6.879 -0.0495  0.2149  0.0287
  174MOL    C3321139   2.767   1.152   6.814 -0.0265 -1.0915  0.7241
  174MOL    F3421140   2.757   1.231   6.916 -0.5747  0.0116  0.0207
  174MOL    H3521141   2.882   1.032   6.953  1.3758 -3.1528 -0.6486
  174MOL    H3621142   2.839   0.937   6.812 -0.6947 -0.8461  0.9345
  174MOL    H3721143   2.665   1.129   6.782  0.0517 -2.5323  1.5018
  174MOL    C3821144   2.862   1.209   6.703 -0.5871 -0.3186  0.0861
  174MOL    C3921145   2.863   1.121   6.579  0.0001 -0.5082  0.5755
  174MOL    F4021146   2.740   1.110   6.520  0.0203  0.3082  0.1478
  174MOL    H4121147   2.832   1.311   6.679 -3.9561 -0.8336  1.9015
  174MOL    H4221148   2.963   1.218   6.744 -0.0548  1.6419 -1.5771
  174MOL    H4321149   2.888   1.019   6.607  1.2884  0.1264  1.7718
  174MOL    C4421150   2.950   1.181   6.460 -0.4092  0.3564 -0.5233
  174MOL    C4521151   3.095   1.201   6.484  1.0304 -0.2641 -0.0747
  174MOL    F4621152   3.141   1.079   6.523  0.2679 -0.3415  0.1697
  174MOL    H4721153   2.935   1.111   6.378  0.2659 -1.1859  0.6498
  174MOL    H4821154   2.901   1.272   6.426 -0.5402 -0.0556 -1.4533
  174MOL    H4921155   3.128   1.273   6.559  1.1380 -1.0654  0.6514
  174MOL    C5021156   3.170   1.248   6.367 -0.1418 -0.6119 -0.2028
  174MOL    C5121157   3.163   1.396   6.339 -0.1147  0.2418 -0.5242
  174MOL    F5221158   3.176   1.473   6.448  0.3379  0.1560  0.1384
  174MOL    H5321159   3.274   1.216   6.372 -0.5663 -2.1172 -0.7497
  174MOL    H5421160   3.130   1.201   6.277 -0.2879 -0.3224 -0.2890
  174MOL    H5521161   3.066   1.421   6.294 -0.3563 -2.0245 -1.3242
  174MOL    C5621162   3.279   1.438   6.242  0.0902 -0.1009 -0.7467
  174MOL    C5721163   3.267   1.591   6.203  0.3294 -0.1519 -0.1471
  174MOL    F5821164   3.245   1.667   6.313 -0.0330 -0.5145  0.2317
  174MOL    H5921165   3.373   1.414   6.293 -1.2871  0.1395  1.9792
  174MOL    H6021166   3.284   1.379   6.150 -0.0837 -0.2739 -0.6449
  174MOL    H6121167   3.174   1.598   6.147  0.8545 -1.0089 -1.1579
  174MOL    C6221168   3.394   1.641   6.139 -0.1479  0.3610  0.6419
  174MOL    C6321169   3.394   1.797   6.129 -0.5430 -0.3593  0.2247
  174MOL    F6421170   3.511   1.830   6.065 -0.7118  0.7196 -0.3436
  174MOL    H6521171   3.477   1.596   6.193 -0.3587 -0.6775  0.1150
  174MOL    H6621172   3.394   1.617   6.032 -0.7659 -0.0377  0.7290
  174MOL    H6721173   3.403   1.844   6.227  2.0095 -2.1975  0.9048
  174MOL    C6821174   3.274   1.859   6.055 -0.6857 -0.4746 -0.5608
  174MOL    C6921175   3.288   2.007   6.023  0.0145  0.7657 -0.1492
  174MOL    F7021176   3.188   2.034   5.935  0.0507 -0.4972 -0.1007
  174MOL    H7121177   3.272   1.812   5.957  3.8015 -1.4354 -0.3247
  174MOL    H7221178   3.185   1.843   6.115 -0.6018  1.0436 -0.0298
  174MOL    H7321179   3.383   2.027   5.973 -0.0327 -1.9412 -1.4196
  174MOL    C7421180   3.280   2.109   6.140 -0.5522 -0.5076 -0.1559
  174MOL    C7521181   3.280   2.260   6.096  0.2434 -0.1021 -0.7628
  174MOL    F7621182   3.159   2.281   6.044 -0.3447 -0.1249  0.1140
  174MOL    H7721183   3.191   2.087   6.199 -0.4386  0.9410  0.5838
  174MOL    H7821184   3.361   2.098   6.212  1.4616 -1.3858 -2.5027
  174MOL    H7921185   3.353   2.277   6.017  0.1591  1.5771 -0.5108
  174MOL    C8021186   3.287   2.367   6.212  0.2584  0.1788 -0.1341
  174MOL    C8121187   3.422   2.369   6.297  0.1521  0.6222 -0.1514
  174MOL    F8221188   3.514   2.462   6.259 -0.6444 -0.1147 -0.2866
  174MOL    H8321189   3.270   2.466   6.168  1.0597  0.6878  0.6681
  174MOL    H8421190   3.203   2.351   6.280  0.0008  1.6281 -0.0898
  174MOL    H8521191   3.481   2.278   6.288  0.7169  1.0752 -1.1106
  174MOL    C8621192   3.397   2.399   6.445 -0.0215  0.1455  0.1557
  174MOL    C8721193   3.522   2.385   6.535 -0.5696  0.8591 -0.1484
  174MOL    F8821194   3.592   2.491   6.511 -0.2239 -0.2104  0.1831
  174MOL    H8921195   3.347   2.495   6.459  0.0547  0.2437 -0.2401
  174MOL    H9021196   3.324   2.329   6.486 -0.3204 -0.4765 -1.3941
  174MOL    H9121197   3.581   2.301   6.499 -0.9020  0.9749 -0.9590
  174MOL    C9221198   3.500   2.373   6.691 -0.2013  0.3100  0.6084
  174MOL    C9321199   3.434   2.488   6.760 -0.2571  0.1552  0.0336
  174MOL    F9421200   3.306   2.490   6.716 -0.2653 -0.2088  0.8008
  174MOL    H9521201   3.434   2.293   6.725 -3.6952  3.0349  0.5758
  174MOL    H9621202   3.595   2.354   6.740  0.0416  1.4596  0.5933
  174MOL    H9721203   3.480   2.583   6.731 -1.0018  1.6234  3.4137
  174MOL    C9821204   3.426   2.485   6.916 -0.4356  0.3811  0.5580
  174MOL    C9921205   3.312   2.564   6.976 -0.3247  0.0342 -0.7436
  174MOL   F10021206   3.314   2.539   7.106  0.2210 -0.0018  0.6127
  174MOL   H10121207   3.407   2.381   6.943 -0.9801  0.4085  0.2853
  174MOL   H10221208   3.521   2.519   6.959 -0.9277  2.6242 -0.0663
  174MOL   H10321209   3.221   2.517   6.939  0.7594 -1.7710 -1.1726
  174MOL   C10421210   3.309   2.712   6.930 -0.2199 -0.1779 -0.4695
  174MOL   C10521211   3.188   2.801   6.975  0.0843 -0.1958  0.0988
  174MOL   F10621212   3.228   2.930   6.946 -0.2994 -0.4248  0.0996
  174MOL   H10721213   3.400   2.766   6.958 -0.3214  0.4000 -1.2683
  174MOL   H10821214   3.315   2.725   6.822  1.7331 -0.3743 -0.4109
  174MOL   H10921215   3.171   2.810   7.082  0.3153  2.6579 -0.0671
  174MOL   C11021216   3.054   2.775   6.904 -0.3451 -0.6375  0.5877
  174MOL   C11121217   2.953   2.678   6.976 -0.4110  0.2434 -0.0894
  174MOL   F11221218   2.995   2.553   6.952 -0.0612 -0.4175 -0.2504
  174MOL   H11321219   3.009   2.874   6.899  0.3892 -0.3262  0.0357
  174MOL   H11421220   3.070   2.734   6.804  1.0088  0.5258  0.3105
  174MOL   H11521221   2.856   2.683   6.927 -0.0169 -0.4335 -0.9614
  174MOL   C11621222   2.918   2.694   7.122  0.2429  0.3174 -0.0923
  174MOL   C11721223   2.865   2.833   7.163 -0.0223 -0.3392  0.2918
  174MOL   F11821224   2.818   2.827   7.284  0.0504 -0.0624 -0.0621
  174MOL   H11921225   2.837   2.629   7.153  0.5482 -0.7226 -1.4204
  174MOL   H12021226   3.003   2.662   7.183  0.4048 -0.4674 -0.7216
  174MOL   H12121227   2.786   2.866   7.095 -0.4569  1.0216  1.4127
  174MOL   H12221228   2.944   2.909   7.159  0.7852 -1.2094 -0.4629
  175MOL     C121229   6.876   6.895   0.532 -0.2408 -0.1521 -0.2944
  175MOL     C221230   6.940   7.018   0.473 -0.4146 -0.5998 -0.3014
  175MOL     F321231   6.879   7.040   0.356  0.5421 -0.0159  0.0708
  175MOL     H421232   6.786   6.915   0.590  0.1246 -1.1493  0.6331
  175MOL     H521233   6.950   6.843   0.593 -0.6003  0.1326  0.3880
  175MOL     H621234   7.039   7.020   0.427 -0.0470 -1.2064  0.4697
  175MOL     H721235   6.849   6.830   0.449  0.5518 -0.7235 -0.1050
  175MOL     C821236   6.913   7.139   0.559  0.4726  0.1841  0.6125
  175MOL     C921237   6.969   7.140   0.706  0.4449  0.2060 -0.4221
  175MOL    F1021238   7.102   7.127   0.684  0.0206  0.7869 -0.0608
  175MOL    H1121239   6.948   7.225   0.501  0.8309 -1.4472 -1.6457
  175MOL    H1221240   6.807   7.164   0.567  0.9079  1.7273  1.8364
  175MOL    H1321241   6.923   7.059   0.763  0.1496 -0.9157 -2.2286
  175MOL    C1421242   6.936   7.279   0.775  0.2004 -0.3111  0.3386
  175MOL    C1521243   6.985   7.297   0.918  0.0532 -0.3313 -0.1947
  175MOL    F1621244   7.023   7.425   0.937 -0.1108  0.4395  0.2730
  175MOL    H1721245   6.998   7.356   0.728  0.0479  0.7663  1.8805
  175MOL    H1821246   6.829   7.298   0.779  0.0101 -1.3072  0.2033
  175MOL    H1921247   7.082   7.248   0.905  0.7289  1.3861 -2.0002
  175MOL    C2021248   6.901   7.249   1.039  0.4929  0.6375 -0.0610
  175MOL    C2121249   6.992   7.209   1.152 -0.3285 -0.1515  0.2650
  175MOL    F2221250   7.021   7.305   1.235  0.1328 -0.2320  0.0598
  175MOL    H2321251   6.842   7.335   1.071  0.9671  1.6333 -1.7789
  175MOL    H2421252   6.827   7.171   1.018  0.9052  0.4640 -0.9101
  175MOL    H2521253   7.085   7.170   1.111 -1.6612 -3.7155  0.4797
  175MOL    C2621254   6.943   7.094   1.240 -0.1872 -0.3094  0.3481
  175MOL    C2721255   6.925   6.968   1.156  0.5229  0.9201 -0.4516
  175MOL    F2821256   7.045   6.946   1.099  0.0348 -0.2177 -0.2669
  175MOL    H2921257   7.017   7.085   1.320  0.4311  0.0014 -0.1873
  175MOL    H3021258   6.848   7.119   1.286 -0.9775  0.6958 -1.7605
  175MOL    H3121259   6.858   6.973   1.070 -1.6443  1.3939  1.2386
  175MOL    C3221260   6.884   6.854   1.250 -0.1799 -0.8765 -0.3551
  175MOL    C3321261   6.864   6.722   1.189  0.0267 -0.6010  0.1068
  175MOL    F3421262   6.789   6.731   1.085  0.0984 -0.0353  0.0793
  175MOL    H3521263   6.958   6.846   1.329 -0.6315 -1.8312 -0.0221
  175MOL    H3621264   6.785   6.880   1.289  0.4672  1.4210 -0.2100
  175MOL    H3721265   6.806   6.658   1.256 -1.9578  0.0713 -0.9546
  175MOL    C3821266   6.999   6.655   1.150 -0.0077  0.2018  0.3057
  175MOL    C3921267   6.981   6.523   1.072 -1.2548 -0.2187  0.0565
  175MOL    F4021268   7.102   6.498   1.015 -0.6189 -0.1634  0.6530
  175MOL    H4121269   7.060   6.719   1.087 -0.7531  0.5474 -0.0777
  175MOL    H4221270   7.050   6.631   1.243  1.9025  0.4396 -0.6588
  175MOL    H4321271   6.910   6.531   0.989 -1.5123 -1.3166  0.1610
  175MOL    C4421272   6.960   6.391   1.154  0.0136  0.4151  0.3616
  175MOL    C4521273   6.961   6.265   1.077 -0.3782  0.1113 -0.4944
  175MOL    F4621274   6.844   6.268   1.004 -0.0771 -0.1237  0.3508
  175MOL    H4721275   7.042   6.386   1.226 -1.4439 -1.3912  1.9495
  175MOL    H4821276   6.867   6.390   1.211 -0.1752  0.9144  0.0689
  175MOL    H4921277   6.959   6.177   1.141  3.0103 -0.2903 -0.8284
  175MOL    C5021278   7.079   6.233   0.983 -0.0690 -0.2251 -0.3073
  175MOL    C5121279   7.214   6.228   1.048  0.5211 -0.3330 -0.4203
  175MOL    F5221280   7.218   6.130   1.131 -0.4642 -0.2175  0.2146
  175MOL    H5321281   7.062   6.139   0.932 -2.1483 -0.7772  1.3453
  175MOL    H5421282   7.082   6.307   0.903 -1.0326 -0.7065 -0.7874
  175MOL    H5521283   7.234   6.314   1.112  0.8469  1.2008 -2.5633
  175MOL    C5621284   7.320   6.208   0.939 -0.0782  0.6039  0.9812
  175MOL    C5721285   7.347   6.340   0.861  0.4758 -0.0779  0.0776
  175MOL    F5821286   7.388   6.434   0.951 -0.2886  0.4130 -0.3837
  175MOL    H5921287   7.412   6.179   0.988  0.4418 -1.6940 -1.2846
  175MOL    H6021288   7.289   6.123   0.879 -2.2611  0.7073  1.8946
  175MOL    H6121289   7.257   6.391   0.827 -1.8043 -3.0140  1.4268
  175MOL    C6221290   7.451   6.334   0.745 -0.2177  0.3826  0.7947
  175MOL    C6321291   7.426   6.225   0.638  0.4432  0.4145  0.9492
  175MOL    F6421292   7.307   6.238   0.594  0.1178 -0.1083  0.1894
  175MOL    H6521293   7.470   6.432   0.701 -1.7358  1.3072  2.1290
  175MOL    H6621294   7.540   6.297   0.796  0.2031  2.3769  1.5375
  175MOL    H6721295   7.436   6.123   0.675  0.5122  1.1659  3.0271
  175MOL    C6821296   7.523   6.245   0.525  0.5650 -0.8705  0.3924
  175MOL    C6921297   7.505   6.160   0.401 -0.1054  0.4338 -0.7518
  175MOL    F7021298   7.593   6.205   0.308  0.3088  0.5529 -0.3624
  175MOL    H7121299   7.525   6.349   0.493  0.7454 -1.3258 -1.1010
  175MOL    H7221300   7.621   6.215   0.562 -0.4796 -3.1192  1.4711
  175MOL    H7321301   7.412   6.185   0.351 -0.5408  1.0835  0.3574
  175MOL    C7421302   7.504   6.012   0.417 -0.7690  0.2355  0.2095
  175MOL    C7521303   7.653   5.957   0.450 -0.4537 -0.1647  0.0930
  175MOL    F7621304   7.682   5.986   0.581  0.0631  0.3624  0.2972
  175MOL    H7721305   7.435   5.983   0.496  0.6183  0.2508  1.4599
  175MOL    H7821306   7.462   5.972   0.325  1.8008  0.0370 -0.9276
  175MOL    H7921307   7.730   6.012   0.396 -1.8246  2.8493  1.1126
  175MOL    C8021308   7.676   5.810   0.434  0.2086 -0.1223 -0.2046
  175MOL    C8121309   7.671   5.763   0.283 -0.1569 -0.1767  0.1395
  175MOL    F8221310   7.548   5.773   0.231 -0.1987  0.0288  0.0866
  175MOL    H8321311   7.768   5.775   0.482 -0.5190 -0.5512  0.8817
  175MOL    H8421312   7.599   5.754   0.486 -0.2790  1.1873  0.4955
  175MOL    H8521313   7.686   5.655   0.279 -1.4470 -0.3134 -2.2835
  175MOL    C8621314   7.772   5.829   0.198  0.2223  0.4317 -0.1219
  175MOL    C8721315   7.789   5.783   0.047  0.2507  0.0915  0.2953
  175MOL    F8821316   7.834   5.661   0.048 -0.0604  0.5983 -0.2991
  175MOL    H8921317   7.733   5.930   0.196 -2.0272 -0.3827  0.9279
  175MOL    H9021318   7.869   5.831   0.248 -0.2581  0.7642  0.8146
  175MOL    H9121319   7.872   5.836   0.000 -0.2705  0.9944  0.3756
  175MOL    C9221320   7.663   5.780   7.961  0.0846  0.4121  0.2439
  175MOL    C9321321   7.609   5.919   7.939 -0.2143  0.3664 -1.0336
  175MOL    F9421322   7.702   5.984   7.869 -0.0170  0.2924 -0.0512
  175MOL    H9521323   7.693   5.754   7.859  0.4543  0.0886  0.4313
  175MOL    H9621324   7.582   5.714   7.994  0.6805 -0.0459  0.8149
  175MOL    H9721325   7.591   5.967   0.032 -0.2138  0.7524 -1.2274
  175MOL    C9821326   7.480   5.919   7.861 -0.3297 -0.2346 -0.4759
  175MOL    C9921327   7.426   6.061   7.845  0.3222 -0.2453 -0.2923
  175MOL   F10021328   7.327   6.053   7.751  0.1555  0.0292 -0.4670
  175MOL   H10121329   7.494   5.872   7.763 -0.9103 -1.9990  0.2731
  175MOL   H10221330   7.412   5.857   7.919  1.6897 -1.7766  0.3188
  175MOL   H10321331   7.497   6.123   7.791  0.8970 -0.5736  0.0812
  175MOL   C10421332   7.371   6.133   7.970  0.5736 -0.3954 -0.5545
  175MOL   C10521333   7.408   6.286   7.982  0.4859 -0.2658 -0.0311
  175MOL   F10621334   7.542   6.293   7.987  0.2096  0.3468  0.8696
  175MOL   H10721335   7.263   6.114   7.966  0.5423 -0.8943  1.8144
  175MOL   H10821336   7.404   6.079   0.055 -1.6268 -0.2075  0.4419
  175MOL   H10921337   7.365   6.317   0.075  0.4875 -3.1535  0.9553
  175MOL   C11021338   7.357   6.379   7.878 -0.1299  0.5649 -0.3746
  175MOL   C11121339   7.206   6.364   7.852  0.5405 -0.0981 -0.2887
  175MOL   F11221340   7.148   6.392   7.962  0.2131 -0.0386  0.1372
  175MOL   H11321341   7.380   6.479   7.916  1.0792 -0.9281  3.0382
  175MOL   H11421342   7.403   6.368   7.780  0.5092 -0.7534  0.0705
  175MOL   H11521343   7.189   6.259   7.831 -0.1242  0.2143 -1.3793
  175MOL   C11621344   7.155   6.435   7.734 -0.1120 -0.2975  0.1530
  175MOL   C11721345   7.007   6.407   7.695 -0.6567 -0.3881  0.0682
  175MOL   F11821346   7.003   6.446   7.571 -0.1950 -0.3730  0.6219
  175MOL   H11921347   7.160   6.543   7.744  0.1988 -0.2737 -0.2701
  175MOL   H12021348   7.209   6.404   7.645 -0.7351  0.9852 -0.6835
  175MOL   H12121349   6.924   6.453   7.750  1.3682  3.4946  0.0665
  175MOL   H12221350   6.991   6.300   7.693  2.2071 -0.8483 -1.6223
  176MOL     C121351   7.091   5.111   6.272 -0.0914 -0.4706 -0.0030
  176MOL     C221352   7.110   5.154   6.413  0.9167  0.3589  0.1325
  176MOL     F321353   7.024   5.092   6.495  0.0308 -0.1066 -0.3477
  176MOL     H421354   7.118   5.005   6.276 -0.3468 -0.5307  0.1209
  176MOL     H521355   7.154   5.156   6.195 -2.0183 -0.1601 -1.4502
  176MOL     H621356   7.078   5.258   6.409 -2.3837 -0.6341 -0.7091
  176MOL     H721357   6.990   5.130   6.236  0.0547 -2.5114 -1.6158
  176MOL     C821358   7.255   5.161   6.471 -0.8230 -0.4291  0.3547
  176MOL     C921359   7.328   5.029   6.496 -0.1502 -0.0943  0.2361
  176MOL    F1021360   7.354   4.983   6.370 -0.1459 -0.0032  0.7370
  176MOL    H1121361   7.311   5.238   6.418 -1.7363  0.4844  0.6864
  176MOL    H1221362   7.243   5.204   6.571 -0.4807 -0.8254  0.5660
  176MOL    H1321363   7.263   4.957   6.545  0.3129 -1.1333 -0.6460
  176MOL    C1421364   7.466   5.050   6.568  0.4093 -0.3530 -0.6599
  176MOL    C1521365   7.467   5.054   6.718  0.6683 -0.1940  0.1585
  176MOL    F1621366   7.424   4.941   6.764  0.0338  0.5094  0.6597
  176MOL    H1721367   7.529   4.965   6.540  0.4364 -0.2997 -0.7614
  176MOL    H1821368   7.510   5.142   6.529  1.9900 -0.5679  0.5459
  176MOL    H1921369   7.384   5.117   6.750  1.4439  0.0465  1.7460
  176MOL    C2021370   7.598   5.100   6.784  0.1150  0.3410 -0.1960
  176MOL    C2121371   7.587   5.116   6.932  0.5783 -0.1175  0.2035
  176MOL    F2221372   7.558   4.994   6.976 -0.3969 -0.2962 -0.7939
  176MOL    H2321373   7.678   5.029   6.767  1.5556  1.9472 -0.2953
  176MOL    H2421374   7.633   5.198   6.749  1.5060  0.3639  1.2076
  176MOL    H2521375   7.508   5.186   6.956  2.1920  1.5167  0.8850
  176MOL    C2621376   7.712   5.174   7.000 -0.0550  0.2169  0.2243
  176MOL    C2721377   7.756   5.313   6.953  0.5099  0.4193 -0.1911
  176MOL    F2821378   7.661   5.401   6.992  0.1119  0.0477  0.1140
  176MOL    H2921379   7.687   5.192   7.104 -2.4432 -1.1872 -0.0647
  176MOL    H3021380   7.792   5.101   6.985 -0.9727 -0.8022  0.1672
  176MOL    H3121381   7.780   5.324   6.847  0.1851 -0.9479 -0.4154
  176MOL    C3221382   7.895   5.354   7.025 -0.4798 -0.0524 -0.1171
  176MOL    C3321383   0.014   5.290   6.968  0.0626  0.1256  0.5959
  176MOL    F3421384   0.042   5.349   6.850 -0.0930  0.0638  0.4946
  176MOL    H3521385   7.907   5.462   7.014  2.4028 -0.3588 -0.2981
  176MOL    H3621386   7.872   5.334   7.130 -0.1269  3.5964  0.7501
  176MOL    H3721387   7.992   5.185   6.954 -0.4757  0.2910  0.3258
  176MOL    C3821388   0.141   5.307   7.055  0.3995 -0.1124  0.3421
  176MOL    C3921389   0.137   5.239   7.202 -0.0928 -0.4370  0.6094
  176MOL    F4021390   0.131   5.106   7.183 -0.3172 -0.0038  0.3179
  176MOL    H4121391   0.236   5.280   7.007  0.7378  0.6257  0.5986
  176MOL    H4221392   0.156   5.414   7.064 -1.7922  0.0561  2.4086
  176MOL    H4321393   0.052   5.275   7.260 -0.1915  0.5170 -0.1050
  176MOL    C4421394   0.272   5.264   7.271 -0.5916 -0.2734 -0.7136
  176MOL    C4521395   0.291   5.176   7.401 -0.1475 -0.4624  0.1096
  176MOL    F4621396   0.409   5.209   7.464 -0.0165 -0.5707 -0.0881
  176MOL    H4721397   0.358   5.243   7.208 -0.7929 -2.6863 -0.2285
  176MOL    H4821398   0.279   5.372   7.281  0.5175 -0.2122 -2.0310
  176MOL    H4921399   0.312   5.076   7.362 -1.7555 -0.7523 -0.0606
  176MOL    C5021400   0.164   5.181   7.505 -0.1935  0.1369 -0.4996
  176MOL    C5121401   0.188   5.088   7.625  0.1429 -0.0414 -0.1676
  176MOL    F5221402   0.107   5.120   7.730 -0.1893 -0.0996  0.3579
  176MOL    H5321403   0.164   5.286   7.537 -0.1427  0.1280 -0.4740
  176MOL    H5421404   0.070   5.151   7.459  0.5412 -0.3612 -1.6700
  176MOL    H5521405   0.289   5.105   7.662  0.8786 -1.7221 -1.3377
  176MOL    C5621406   0.168   4.938   7.593 -0.2604 -0.0214 -0.6740
  176MOL    C5721407   0.165   4.847   7.714  0.5462  0.8046  0.2211
  176MOL    F5821408   0.125   4.730   7.660  0.3946 -0.4385  0.1282
  176MOL    H5921409   0.083   4.922   7.526 -0.3043  0.3630 -0.7125
  176MOL    H6021410   0.252   4.903   7.533 -0.5357 -0.2947 -0.9019
  176MOL    H6121411   0.081   4.880   7.774  2.0188  2.5079  1.4166
  176MOL    C6221412   0.302   4.839   7.791 -0.1158 -0.3936  0.2756
  176MOL    C6321413   0.324   4.708   7.873  0.5879 -0.2904  0.0555
  176MOL    F6421414   0.458   4.705   7.894  0.4064  0.0705 -0.2272
  176MOL    H6521415   0.377   4.841   7.712 -0.5205  1.5434 -0.0776
  176MOL    H6621416   0.308   4.933   7.844 -0.3374 -0.4256  0.3585
  176MOL    H6721417   0.306   4.623   7.807 -3.9690  1.6637 -1.4683
  176MOL    C6821418   0.259   4.699   0.006  0.1006  0.0835  0.1211
  176MOL    C6921419   0.306   4.567   0.083  0.3792 -0.3481 -0.6178
  176MOL    F7021420   0.250   4.562   0.207 -0.1091  0.3681  0.3492
  176MOL    H7121421   0.287   4.789   0.061 -1.3137  1.1119 -0.8111
  176MOL    H7221422   0.151   4.706   0.003  0.1089 -0.3419 -1.5888
  176MOL    H7321423   0.412   4.568   0.106  0.0716  1.0377  0.8717
  176MOL    C7421424   0.264   4.432   0.022  1.0383  0.0522 -0.4559
  176MOL    C7521425   0.126   4.415   7.974  0.1057  0.1114 -0.5816
  176MOL    F7621426   0.108   4.477   7.853 -0.2691 -0.0613 -0.1119
  176MOL    H7721427   0.332   4.422   7.940  1.2149  0.3657 -0.3566
  176MOL    H7821428   0.295   4.351   0.088  1.2293  1.2031  0.8951
  176MOL    H7921429   0.060   4.475   0.034 -1.1747 -0.3931 -1.4240
  176MOL    C8021430   0.082   4.274   7.938  0.8659 -0.0163 -0.3212
  176MOL    C8121431   0.069   4.169   0.044 -0.0609  0.1149  0.0580
  176MOL    F8221432   7.962   4.194   0.115 -0.0119 -0.3336  0.6289
  176MOL    H8321433   7.987   4.298   7.897  1.2116 -1.4057 -2.0470
  176MOL    H8421434   0.135   4.236   7.850 -0.1542  0.2817 -1.0788
  176MOL    H8521435   0.152   4.187   0.112  0.7313 -0.0705 -0.8426
  176MOL    C8621436   0.052   4.028   7.995  0.2319  0.0987  0.4228
  176MOL    C8721437   0.177   3.969   7.925  0.3042  0.3432 -0.5888
  176MOL    F8821438   0.245   3.925   0.029  0.2833  0.2342  0.3259
  176MOL    H8921439   0.024   3.967   0.077 -0.4013  0.0167  0.1576
  176MOL    H9021440   7.965   4.031   7.933  0.1278  2.5294  0.6211
  176MOL    H9121441   0.247   4.041   7.884  1.0137 -0.6293 -1.1006
  176MOL    C9221442   0.152   3.846   7.843 -0.6765 -0.0484 -0.3044
  176MOL    C9321443   0.277   3.801   7.758  0.3137 -1.0425  0.2377
  176MOL    F9421444   0.378   3.770   7.844 -0.4327 -0.2792  0.1342
  176MOL    H9521445   0.112   3.772   7.912  2.4206 -0.2006  1.4605
  176MOL    H9621446   0.066   3.875   7.783 -0.8069  2.9591  1.2588
  176MOL    H9721447   0.304   3.887   7.697 -1.4191 -1.1453 -0.6999
  176MOL    C9821448   0.255   3.673   7.665  0.4765  0.6943 -0.3586
  176MOL    C9921449   0.149   3.697   7.556  0.2201 -0.3268 -0.1153
  176MOL   F10021450   0.202   3.791   7.480 -0.3532  0.0867  0.0343
  176MOL   H10121451   0.350   3.645   7.620 -0.1960 -0.4842 -1.0806
  176MOL   H10221452   0.222   3.598   7.737 -0.6750  1.1516 -0.3992
  176MOL   H10321453   0.054   3.736   7.593 -0.3483 -0.2119 -1.6604
  176MOL   C10421454   0.120   3.572   7.470  0.3232 -0.7100 -0.1953
  176MOL   C10521455   0.030   3.473   7.538  0.0646 -0.0409 -0.2464
  176MOL   F10621456   7.916   3.535   7.545  0.3898  0.4452 -0.1600
  176MOL   H10721457   0.071   3.591   7.375 -1.5023 -0.6445  0.7429
  176MOL   H10821458   0.215   3.527   7.442  0.3136 -0.2480 -0.9743
  176MOL   H10921459   0.065   3.459   7.640 -0.0446  0.2429 -0.1676
  176MOL   C11021460   0.006   3.335   7.478  0.7028 -0.1108 -0.1319
  176MOL   C11121461   7.923   3.232   7.556  0.6227 -0.7015 -0.0413
  176MOL   F11221462   7.796   3.286   7.548  0.2805 -0.4916  0.0669
  176MOL   H11321463   7.978   3.343   7.374 -0.4750  2.3488  0.3802
  176MOL   H11421464   0.102   3.283   7.479  0.7939  0.0612  1.2605
  176MOL   H11521465   7.946   3.218   7.661  0.7698 -1.2867 -0.1484
  176MOL   C11621466   7.913   3.091   7.494  0.1335 -0.5187  0.4579
  176MOL   C11721467   7.843   2.995   7.592 -0.0637  0.1214  0.3502
  176MOL   F11821468   7.821   2.885   7.513 -0.1414 -0.4209 -0.3357
  176MOL   H11921469   7.870   3.092   7.394  0.5261 -0.0684  0.2915
  176MOL   H12021470   0.012   3.053   7.487 -0.2581 -1.7483  1.3036
  176MOL   H12121471   7.750   3.040   7.627 -0.9538 -0.7894 -0.8099
  176MOL   H12221472   7.911   2.971   7.674  1.6570  0.3096 -0.9798
  177MOL     C121473   6.431   4.943   1.050 -0.3627  0.6685  0.6149
  177MOL     C221474   6.507   4.876   1.168 -0.0780 -0.0600  0.0273
  177MOL     F321475   6.619   4.824   1.116  0.3733  0.0821 -0.2938
  177MOL     H421476   6.481   4.914   0.958 -3.4785 -2.6224 -0.1618
  177MOL     H521477   6.424   5.052   1.056  2.2505  0.8435  1.0062
  177MOL     H621478   6.452   4.792   1.210  0.9344 -0.8567 -0.2296
  177MOL     H721479   6.329   4.911   1.029  0.2206  0.1568 -1.5539
  177MOL     C821480   6.551   4.978   1.281  0.6366  0.1790  0.6468
  177MOL     C921481   6.623   4.919   1.404 -0.3503 -0.3948  0.1488
  177MOL    F1021482   6.680   5.015   1.476  0.6063  0.2168  0.2287
  177MOL    H1121483   6.623   5.049   1.239 -1.6199  1.3492 -1.3110
  177MOL    H1221484   6.469   5.044   1.308  2.5721  2.0226  2.2241
  177MOL    H1321485   6.711   4.866   1.368  0.6199  1.9484 -0.9828
  177MOL    C1421486   6.544   4.824   1.502  0.7624  0.3788  0.3709
  177MOL    C1521487   6.464   4.900   1.611 -0.1855  0.0836 -0.2530
  177MOL    F1621488   6.370   4.972   1.543 -0.1638 -0.3975 -0.2963
  177MOL    H1721489   6.480   4.753   1.450 -0.2744  1.2592  0.4349
  177MOL    H1821490   6.623   4.764   1.549  0.1910 -0.7017 -0.0142
  177MOL    H1921491   6.530   4.964   1.670  0.1653  0.0353 -0.5927
  177MOL    C2021492   6.399   4.803   1.707  0.0827  0.6221 -0.1293
  177MOL    C2121493   6.336   4.875   1.822  0.3294  0.1282 -0.0467
  177MOL    F2221494   6.247   4.795   1.869 -0.5299 -0.2238 -0.0600
  177MOL    H2321495   6.319   4.755   1.650  0.7364  0.7762 -1.1900
  177MOL    H2421496   6.469   4.731   1.747 -0.3263 -0.0925 -0.6964
  177MOL    H2521497   6.274   4.958   1.788  0.4705 -0.9398 -3.1137
  177MOL    C2621498   6.440   4.910   1.929  0.7715  0.3060  0.3876
  177MOL    C2721499   6.379   4.983   2.051  0.4154  0.1478  0.0709
  177MOL    F2821500   6.484   5.007   2.133 -0.2055 -0.4640 -1.0863
  177MOL    H2921501   6.498   4.823   1.958 -1.7720 -1.5042  0.2991
  177MOL    H3021502   6.517   4.965   1.877 -0.9386 -1.6519 -4.5594
  177MOL    H3121503   6.322   4.915   2.115 -1.1316  0.0924 -1.3299
  177MOL    C3221504   6.303   5.125   2.034  0.8037  0.2822 -0.1695
  177MOL    C3321505   6.387   5.234   1.971  0.5717 -0.0416 -0.3535
  177MOL    F3421506   6.407   5.212   1.845 -0.5702  0.0152 -0.3500
  177MOL    H3521507   6.217   5.119   1.967  1.1355 -2.3056 -0.3791
  177MOL    H3621508   6.270   5.164   2.130  0.7984  3.0737 -1.2573
  177MOL    H3721509   6.487   5.228   2.014  0.4746 -0.4108 -0.1846
  177MOL    C3821510   6.322   5.373   1.991  0.3269 -0.0159 -0.7977
  177MOL    C3921511   6.420   5.490   1.978  0.1924 -0.0225 -0.1178
  177MOL    F4021512   6.472   5.503   1.859 -0.3201  0.0902  0.3753
  177MOL    H4121513   6.242   5.380   1.917  0.4961  0.3783 -0.9421
  177MOL    H4221514   6.284   5.371   2.093  0.9798 -1.0289 -0.5595
  177MOL    H4321515   6.513   5.468   2.030  0.0099  0.0566  0.2450
  177MOL    C4421516   6.369   5.628   2.018  0.7561  0.4261 -0.5955
  177MOL    C4521517   6.308   5.637   2.162  0.3088 -0.1845  0.3199
  177MOL    F4621518   6.405   5.622   2.246  0.2549 -0.0940 -0.3853
  177MOL    H4721519   6.449   5.698   1.998  0.7051  0.8872  0.7463
  177MOL    H4821520   6.291   5.652   1.945  2.2405  1.7941 -1.7606
  177MOL    H4921521   6.246   5.551   2.185  1.3729 -0.5823  1.7712
  177MOL    C5021522   6.233   5.768   2.182 -0.0534  0.4770 -0.9508
  177MOL    C5121523   6.152   5.785   2.312  0.2358  0.1324 -0.0965
  177MOL    F5221524   6.104   5.905   2.316  0.4689 -0.5012  0.0603
  177MOL    H5321525   6.305   5.848   2.167 -1.1482  1.1808 -2.6137
  177MOL    H5421526   6.171   5.798   2.098 -0.1940  1.0097 -0.6619
  177MOL    H5521527   6.221   5.775   2.396 -0.5309 -1.5377  0.3609
  177MOL    C5621528   6.047   5.678   2.333  0.0134  0.3873  0.1807
  177MOL    C5721529   5.959   5.703   2.454 -0.4916  0.2036  0.4946
  177MOL    F5821530   5.871   5.611   2.451  0.0054  0.2217 -0.5951
  177MOL    H5921531   5.981   5.677   2.247 -1.0331 -0.8201  0.9809
  177MOL    H6021532   6.097   5.582   2.344  0.1025  0.5285  1.0252
  177MOL    H6121533   5.902   5.796   2.444  2.2010  2.1324  2.5926
  177MOL    C6221534   6.019   5.726   2.593  0.1211 -0.4503 -0.4446
  177MOL    C6321535   6.076   5.596   2.657  0.2549 -0.3267  0.6401
  177MOL    F6421536   6.183   5.555   2.591  0.2099 -0.0660 -0.3871
  177MOL    H6521537   6.094   5.805   2.604  0.8159 -1.2515  0.7238
  177MOL    H6621538   5.935   5.755   2.657 -0.0500  0.1667 -0.9378
  177MOL    H6721539   5.997   5.523   2.641  0.2565 -0.2504  0.2652
  177MOL    C6821540   6.112   5.608   2.809 -0.1376  0.2516  0.5473
  177MOL    C6921541   6.119   5.465   2.872 -0.8251 -0.3679  0.2309
  177MOL    F7021542   6.209   5.385   2.812 -0.1791 -0.2046 -0.4248
  177MOL    H7121543   6.195   5.674   2.838 -0.5001  0.8063  0.3301
  177MOL    H7221544   6.024   5.652   2.856 -0.8549  0.8392 -1.3066
  177MOL    H7321545   6.029   5.410   2.845  0.1799 -2.6548  1.3874
  177MOL    C7421546   6.155   5.459   3.017 -0.4115  0.3208 -0.4967
  177MOL    C7521547   6.039   5.502   3.110  0.6045 -0.1711  0.6882
  177MOL    F7621548   5.927   5.431   3.077 -0.2718  0.9784 -0.4595
  177MOL    H7721549   6.191   5.359   3.041  1.5576  1.1926  0.2916
  177MOL    H7821550   6.241   5.526   3.029 -0.4200 -0.0158  1.5672
  177MOL    H7921551   6.022   5.606   3.084 -1.7908 -0.0711  2.4777
  177MOL    C8021552   6.073   5.476   3.261 -0.4129  0.7221 -1.3248
  177MOL    C8121553   5.984   5.563   3.356  0.2534  0.6204  0.1934
  177MOL    F8221554   6.026   5.687   3.344 -0.0444 -0.4650 -0.3402
  177MOL    H8321555   6.053   5.377   3.301  2.1691  0.3855 -0.8090
  177MOL    H8421556   6.174   5.496   3.295 -2.0358  2.2535  2.8903
  177MOL    H8521557   5.983   5.536   3.462 -1.7478  1.4936  0.4086
  177MOL    C8621558   5.829   5.565   3.326 -0.5498 -0.0666 -0.4792
  177MOL    C8721559   5.757   5.435   3.353  0.1917  0.3584  0.3455
  177MOL    F8821560   5.785   5.393   3.475  0.2108  0.7629 -0.3160
  177MOL    H8921561   5.778   5.647   3.376 -1.1760 -0.6557 -0.1360
  177MOL    H9021562   5.818   5.593   3.221 -0.1016  1.8100 -0.0328
  177MOL    H9121563   5.786   5.358   3.281  1.2218  1.7524 -0.7467
  177MOL    C9221564   5.601   5.440   3.331 -0.6838  0.1966  0.4420
  177MOL    C9321565   5.563   5.484   3.184 -0.1538 -0.0033  0.2794
  177MOL    F9421566   5.615   5.398   3.096 -0.2514 -0.2919  0.0068
  177MOL    H9521567   5.562   5.341   3.356 -2.3503  0.7676  0.1586
  177MOL    H9621568   5.552   5.507   3.401  1.8079  2.3062  0.2122
  177MOL    H9721569   5.599   5.583   3.155  0.3455 -0.5386 -0.9570
  177MOL    C9821570   5.408   5.491   3.162  0.2684 -0.3056  0.0864
  177MOL    C9921571   5.320   5.591   3.243 -0.1236 -0.0704  0.1575
  177MOL   F10021572   5.376   5.713   3.247  0.2202 -0.0176 -0.2792
  177MOL   H10121573   5.395   5.515   3.057  1.4946 -0.2036 -0.0534
  177MOL   H10221574   5.376   5.389   3.183  0.1377 -0.2356  0.2264
  177MOL   H10321575   5.318   5.554   3.346  2.5926 -2.1963 -0.4937
  177MOL   C10421576   5.169   5.609   3.197 -0.3357 -0.5783 -0.7781
  177MOL   C10521577   5.070   5.496   3.232 -0.2936  0.7221  0.5153
  177MOL   F10621578   5.061   5.492   3.366 -0.0950 -0.3085 -0.5174
  177MOL   H10721579   5.130   5.696   3.250 -1.2469 -0.9253 -0.8525
  177MOL   H10821580   5.157   5.648   3.096 -1.8436  0.4223 -0.2289
  177MOL   H10921581   5.111   5.399   3.205  0.0725  2.0740 -4.2960
  177MOL   C11021582   4.926   5.515   3.171  0.2654 -0.3735 -0.6062
  177MOL   C11121583   4.868   5.408   3.087  0.2483 -1.0928  0.3798
  177MOL   F11221584   4.934   5.391   2.974 -0.3296 -0.1906 -0.5786
  177MOL   H11321585   4.854   5.533   3.251  1.3342  1.4908 -0.0328
  177MOL   H11421586   4.921   5.610   3.116 -2.3886  0.7683  1.4873
  177MOL   H11521587   4.772   5.443   3.049  1.5093  0.9292 -0.9758
  177MOL   C11621588   4.836   5.278   3.164 -0.1757  0.5896 -0.0694
  177MOL   C11721589   4.763   5.165   3.094  0.2010 -0.1585  0.0931
  177MOL   F11821590   4.732   5.073   3.181 -0.0517 -0.0758 -0.4398
  177MOL   H11921591   4.920   5.242   3.223 -0.6736  1.9122  1.5092
  177MOL   H12021592   4.773   5.304   3.249  1.3008  3.6769  0.1428
  177MOL   H12121593   4.827   5.111   3.024 -0.1211 -0.8523  0.3311
  177MOL   H12221594   4.665   5.193   3.055 -0.7077 -1.6620  1.2101
  178MOL     C121595   6.908   2.534   3.403 -0.2050 -0.0847  0.1874
  178MOL     C221596   6.788   2.447   3.452  0.5095 -0.0351  0.1695
  178MOL     F321597   6.696   2.537   3.478 -0.2274 -0.1911  0.3475
  178MOL     H421598   6.901   2.567   3.299  1.7432  1.5450  0.5448
  178MOL     H521599   7.002   2.480   3.418 -0.3324 -0.0263  1.2228
  178MOL     H621600   6.809   2.412   3.553  0.8143 -1.0654 -0.2467
  178MOL     H721601   6.915   2.626   3.461  0.4316  0.0932 -0.1683
  178MOL     C821602   6.761   2.327   3.355  0.3563  0.0794  1.0237
  178MOL     C921603   6.693   2.207   3.422 -0.0605 -0.0114  1.1199
  178MOL    F1021604   6.594   2.259   3.490 -0.2318 -0.5241  0.1889
  178MOL    H1121605   6.688   2.364   3.283 -0.0525  1.4716  2.1294
  178MOL    H1221606   6.853   2.292   3.308  0.7608  0.4822  1.5004
  178MOL    H1321607   6.770   2.175   3.493 -0.3096  1.8672  2.2788
  178MOL    C1421608   6.639   2.104   3.323 -0.8169 -0.5674  0.0247
  178MOL    C1521609   6.736   2.045   3.222  0.1150 -0.0588 -0.5729
  178MOL    F1621610   6.812   1.945   3.276  0.2572 -0.0171  0.8942
  178MOL    H1721611   6.594   2.021   3.379  1.1925 -1.2109  0.7287
  178MOL    H1821612   6.550   2.153   3.283 -0.4997  1.6229  1.8788
  178MOL    H1921613   6.805   2.114   3.174  0.8626 -0.4450 -0.0673
  178MOL    C2021614   6.661   1.962   3.113  0.2773  0.2754 -1.1640
  178MOL    C2121615   6.732   1.931   2.991 -0.3283  0.1900  0.6404
  178MOL    F2221616   6.661   1.837   2.929  0.0099 -0.3284 -0.1200
  178MOL    H2321617   6.615   1.874   3.158 -0.8217  0.4161 -1.9962
  178MOL    H2421618   6.577   2.026   3.086 -1.6899 -1.5576  0.4714
  178MOL    H2521619   6.821   1.874   3.020  0.3999  0.2414 -1.3931
  178MOL    C2621620   6.776   2.052   2.897  0.5895 -0.0627 -0.5546
  178MOL    C2721621   6.842   2.022   2.757  0.0946 -0.4247 -0.1905
  178MOL    F2821622   6.854   2.139   2.690 -0.0921  0.1379 -0.4021
  178MOL    H2921623   6.677   2.093   2.876 -1.5291 -3.7996  1.5582
  178MOL    H3021624   6.825   2.136   2.945 -0.4909  0.4289 -0.2995
  178MOL    H3121625   6.783   1.956   2.693  1.6050  0.1591 -2.2314
  178MOL    C3221626   6.979   1.976   2.768  0.4373 -0.1297 -0.2638
  178MOL    C3321627   7.058   1.938   2.644 -0.8352 -0.1554 -0.2856
  178MOL    F3421628   7.186   1.922   2.686  0.0973 -0.1950  0.9969
  178MOL    H3521629   7.035   2.052   2.822 -2.1925  1.8103 -0.1573
  178MOL    H3621630   6.971   1.889   2.833  0.5932 -0.7763 -1.0916
  178MOL    H3721631   7.064   2.028   2.583 -3.1128  0.2840  0.0777
  178MOL    C3821632   6.998   1.820   2.574  0.6292  0.6350  0.1282
  178MOL    C3921633   7.047   1.799   2.429  0.0584  0.0654  0.2279
  178MOL    F4021634   7.178   1.781   2.449  0.1903  0.3806  0.2823
  178MOL    H4121635   7.002   1.727   2.631  1.4202 -0.5025 -1.7498
  178MOL    H4221636   6.894   1.848   2.559  0.4246 -0.8923 -1.5652
  178MOL    H4321637   7.024   1.889   2.371 -0.0093  1.1774  1.9378
  178MOL    C4421638   6.997   1.672   2.353  0.3013  0.7731 -0.1492
  178MOL    C4521639   7.013   1.668   2.199 -0.4083  0.1374 -0.3948
  178MOL    F4621640   6.936   1.767   2.149 -0.0260  0.0480  0.4451
  178MOL    H4721641   7.036   1.576   2.387  1.0173  1.1491  0.0977
  178MOL    H4821642   6.891   1.672   2.376  0.2546 -1.2607 -0.3211
  178MOL    H4921643   6.970   1.578   2.155  1.0103 -2.1278  2.6471
  178MOL    C5021644   7.155   1.697   2.139  1.2200 -0.3733 -0.6918
  178MOL    C5121645   7.233   1.568   2.146  0.4261 -1.0453 -0.0041
  178MOL    F5221646   7.166   1.480   2.071  0.2620 -0.5844  0.3890
  178MOL    H5321647   7.152   1.725   2.034 -0.3907  1.2245 -0.2354
  178MOL    H5421648   7.195   1.781   2.196  0.0111 -0.0122 -0.3664
  178MOL    H5521649   7.240   1.527   2.246 -1.2923  0.5725  0.8219
  178MOL    C5621650   7.371   1.573   2.075 -0.1664  0.9018  0.0843
  178MOL    C5721651   7.477   1.615   2.182 -0.6571  0.0498  1.0899
  178MOL    F5821652   7.523   1.498   2.233  1.1939 -0.1142  0.3434
  178MOL    H5921653   7.382   1.470   2.042 -1.2226  0.4084  1.2121
  178MOL    H6021654   7.382   1.636   1.987 -1.8198  2.5129  0.9857
  178MOL    H6121655   7.426   1.671   2.260  0.4735  0.2105  1.7250
  178MOL    C6221656   7.594   1.703   2.136 -0.8442  0.4975  0.5940
  178MOL    C6321657   7.694   1.743   2.244 -0.1906 -0.3627 -0.2375
  178MOL    F6421658   7.792   1.814   2.192 -0.4017 -0.0498  0.3196
  178MOL    H6521659   7.644   1.652   2.053 -2.7511  0.5934 -0.6526
  178MOL    H6621660   7.560   1.794   2.087  2.2188  1.1222 -0.4412
  178MOL    H6721661   7.738   1.645   2.263  0.2566 -0.0975  0.0856
  178MOL    C6821662   7.638   1.814   2.366 -0.1024 -0.6405 -0.2767
  178MOL    C6921663   7.740   1.827   2.482 -0.0665 -0.2207  0.9788
  178MOL    F7021664   7.702   1.922   2.572  0.4022  0.3266  0.0171
  178MOL    H7121665   7.588   1.905   2.334 -2.1121 -1.5435  0.1967
  178MOL    H7221666   7.547   1.764   2.401 -0.2971 -1.3059 -1.7056
  178MOL    H7321667   7.819   1.875   2.425 -1.1046 -0.5686 -0.7687
  178MOL    C7421668   7.778   1.692   2.554  0.4042 -0.0522  0.5308
  178MOL    C7521669   7.886   1.717   2.664 -0.3391 -0.2452 -0.2374
  178MOL    F7621670   7.969   1.810   2.613 -0.7699  0.0316  0.2267
  178MOL    H7721671   7.693   1.641   2.600 -1.3880  1.3503 -1.1292
  178MOL    H7821672   7.828   1.637   2.475  1.0206 -0.5789  1.2889
  178MOL    H7921673   7.947   1.626   2.666 -1.1398 -0.7761  1.1879
  178MOL    C8021674   7.828   1.746   2.803  0.1826  0.2139 -0.3328
  178MOL    C8121675   7.923   1.763   2.920 -0.2574  0.0529 -0.4705
  178MOL    F8221676   0.024   1.845   2.891 -0.8140  0.0999 -0.3536
  178MOL    H8321677   7.781   1.842   2.781 -0.7974  0.0679  1.0802
  178MOL    H8421678   7.747   1.677   2.823 -0.2717  1.4788  2.4031
  178MOL    H8521679   7.952   1.660   2.937  1.1163  0.9555  3.0705
  178MOL    C8621680   7.856   1.821   3.049 -0.0653  0.3289 -0.6760
  178MOL    C8721681   7.807   1.968   3.046 -0.6018  0.3249  0.1660
  178MOL    F8821682   7.721   1.988   2.951  0.2916 -0.1143 -0.2191
  178MOL    H8921683   7.777   1.753   3.080  1.7134 -2.3354 -1.8139
  178MOL    H9021684   7.932   1.806   3.125 -0.2995 -0.4460 -0.5982
  178MOL    H9121685   7.893   2.033   3.028  1.2624 -1.8583  0.8978
  178MOL    C9221686   7.734   1.996   3.182 -0.4941  0.0052 -0.0871
  178MOL    C9321687   7.674   2.144   3.208 -0.1824 -0.4276  0.1622
  178MOL    F9421688   7.760   2.226   3.146  0.1047 -0.0181 -0.2673
  178MOL    H9521689   7.658   1.920   3.199  1.4326 -2.0058 -0.1961
  178MOL    H9621690   7.801   1.968   3.264 -0.4744 -2.3794 -0.8789
  178MOL    H9721691   7.668   2.163   3.315 -4.8204 -0.0028 -0.0496
  178MOL    C9821692   7.527   2.166   3.153 -0.4989 -0.4576 -0.1365
  178MOL    C9921693   7.458   2.306   3.171  0.0072  0.5150 -0.0322
  178MOL   F10021694   7.450   2.334   3.298 -0.4234 -0.1337  0.7866
  178MOL   H10121695   7.538   2.132   3.050 -4.2668  1.4238 -1.2569
  178MOL   H10221696   7.469   2.085   3.196  0.7491 -0.7472  1.0313
  178MOL   H10321697   7.355   2.300   3.135 -0.2856 -0.4967  0.9203
  178MOL   C10421698   7.533   2.416   3.101 -0.4203  0.3148 -0.3172
  178MOL   C10521699   7.565   2.397   2.947 -0.9531 -0.5198 -0.0254
  178MOL   F10621700   7.448   2.366   2.892  0.1676  0.2047 -0.4687
  178MOL   H10721701   7.473   2.507   3.109 -0.0632  0.6196 -1.0352
  178MOL   H10821702   7.620   2.448   3.159 -1.0988  0.5141  0.5985
  178MOL   H10921703   7.639   2.321   2.924 -0.2760  0.0082  0.3802
  178MOL   C11021704   7.620   2.528   2.885 -0.0613  0.5149 -0.2843
  178MOL   C11121705   7.672   2.509   2.742  0.1081  0.1971 -0.3581
  178MOL   F11221706   7.573   2.463   2.667  0.2451 -0.1734  0.2675
  178MOL   H11321707   7.544   2.605   2.898  0.4910  1.0209 -0.0406
  178MOL   H11421708   7.698   2.573   2.946  0.9858 -1.8072  0.1745
  178MOL   H11521709   7.743   2.427   2.741 -0.7813 -0.5890 -0.5962
  178MOL   C11621710   7.740   2.639   2.680  0.5235  0.3743  0.0418
  178MOL   C11721711   7.797   2.620   2.545  0.0526  0.6609 -0.0065
  178MOL   F11821712   7.817   2.736   2.491  0.0558 -0.1698 -0.1015
  178MOL   H11921713   7.671   2.723   2.678  0.2138  0.1869  2.0832
  178MOL   H12021714   7.817   2.677   2.748  1.1002  1.0487 -0.9634
  178MOL   H12121715   7.737   2.559   2.477 -1.5491  1.5630  0.5667
  178MOL   H12221716   7.896   2.578   2.560 -0.8983 -1.2682  1.1476
  179MOL     C121717   5.787   1.099   5.695 -0.5345 -0.1120  0.9100
  179MOL     C221718   5.912   1.023   5.750 -0.4804 -0.1709  0.2343
  179MOL     F321719   5.939   1.067   5.871 -0.2184 -0.6945 -0.0883
  179MOL     H421720   5.820   1.201   5.677  0.6138 -0.7452 -0.6919
  179MOL     H521721   5.705   1.091   5.766 -1.2460  0.4884  0.1575
  179MOL     H621722   6.006   1.045   5.701 -0.1690  0.7533  1.2146
  179MOL     H721723   5.757   1.049   5.602 -1.7405  0.8401  0.7825
  179MOL     C821724   5.884   0.876   5.758 -0.5651 -0.4092 -0.0554
  179MOL     C921725   5.997   0.797   5.838 -0.0931  0.0861  0.7666
  179MOL    F1021726   5.939   0.685   5.891  0.4079 -0.2374 -0.5016
  179MOL    H1121727   5.787   0.854   5.802  0.1932 -0.2411  1.7490
  179MOL    H1221728   5.878   0.832   5.659 -1.0427  0.7627 -0.5597
  179MOL    H1321729   6.031   0.853   5.926  0.8259 -0.5189  0.7972
  179MOL    C1421730   6.109   0.743   5.747  1.0408  0.3988 -0.1203
  179MOL    C1521731   6.216   0.677   5.835  0.4799 -0.4431 -0.8044
  179MOL    F1621732   6.188   0.552   5.854  0.2242  0.4197 -0.0673
  179MOL    H1721733   6.060   0.676   5.677  0.5261  1.7107 -1.0144
  179MOL    H1821734   6.150   0.824   5.687  1.4716  1.0323  1.0036
  179MOL    H1921735   6.218   0.732   5.929 -0.4718  0.8444 -1.5235
  179MOL    C2021736   6.349   0.686   5.771 -0.4357 -1.1000 -0.4278
  179MOL    C2121737   6.470   0.641   5.858 -0.2669  0.2244  0.0618
  179MOL    F2221738   6.548   0.580   5.773 -0.6992 -0.0660 -0.3256
  179MOL    H2321739   6.344   0.619   5.685 -1.4716  0.4778 -1.6152
  179MOL    H2421740   6.360   0.783   5.722 -3.2380 -0.2562  0.5330
  179MOL    H2521741   6.450   0.560   5.928  0.3831  0.1405  0.1593
  179MOL    C2621742   6.551   0.755   5.920  0.4593  0.4024  0.3179
  179MOL    C2721743   6.629   0.704   6.043 -0.3051 -0.1160 -0.1444
  179MOL    F2821744   6.737   0.631   6.004  0.2736 -0.1991  0.3706
  179MOL    H2921745   6.614   0.809   5.849 -2.3907  1.9263 -1.1338
  179MOL    H3021746   6.487   0.837   5.952 -0.2776  0.1206 -0.4135
  179MOL    H3121747   6.577   0.640   6.115  1.5110  0.4495  1.7571
  179MOL    C3221748   6.679   0.817   6.134  0.0143  0.0647  0.2433
  179MOL    C3321749   6.680   0.773   6.283 -0.5191 -0.0083 -0.1373
  179MOL    F3421750   6.774   0.680   6.291 -0.1253 -0.1133  0.1073
  179MOL    H3521751   6.775   0.852   6.098  0.1270 -0.4669  0.0189
  179MOL    H3621752   6.607   0.899   6.127 -0.4786 -0.3835 -0.0784
  179MOL    H3721753   6.594   0.714   6.315  0.3621 -0.5963  1.2218
  179MOL    C3821754   6.707   0.886   6.388  0.4594  0.4733 -0.2282
  179MOL    C3921755   6.597   0.990   6.396  0.1671  0.1611  0.5206
  179MOL    F4021756   6.482   0.925   6.413  0.4742 -0.2243 -0.1286
  179MOL    H4121757   6.721   0.847   6.489  2.9329  2.4744  0.2286
  179MOL    H4221758   6.795   0.947   6.368  0.6221  0.9520  1.8184
  179MOL    H4321759   6.583   1.056   6.310 -1.7828 -1.4078 -0.4062
  179MOL    C4421760   6.606   1.068   6.523 -0.0946  0.4456 -0.1054
  179MOL    C4521761   6.503   1.191   6.542 -0.1256  0.7748 -0.2399
  179MOL    F4621762   6.380   1.157   6.561  0.0589  0.3538  0.7403
  179MOL    H4721763   6.594   1.011   6.616  2.3643  0.1102  0.0570
  179MOL    H4821764   6.703   1.117   6.529  2.0790 -3.7520  1.4747
  179MOL    H4921765   6.489   1.226   6.440 -1.0608 -1.3222 -0.8562
  179MOL    C5021766   6.549   1.308   6.635  0.2261 -0.1294  0.9775
  179MOL    C5121767   6.595   1.264   6.775 -0.2029  0.4669  0.7503
  179MOL    F5221768   6.695   1.186   6.762 -0.0440  0.1654 -0.3443
  179MOL    H5321769   6.624   1.354   6.571  1.0681 -1.4689  0.9799
  179MOL    H5421770   6.469   1.382   6.635 -0.8466 -1.2724  0.5513
  179MOL    H5521771   6.509   1.212   6.817 -0.6002 -1.0551 -1.8582
  179MOL    C5621772   6.635   1.380   6.873  0.5199  0.1204  0.4496
  179MOL    C5721773   6.519   1.459   6.928  0.3246 -0.0581  0.6193
  179MOL    F5821774   6.451   1.374   6.999 -0.0618  0.1050  0.6059
  179MOL    H5921775   6.690   1.336   6.955  1.2662  0.6743  0.2513
  179MOL    H6021776   6.707   1.446   6.824  0.8676 -0.3781  0.2939
  179MOL    H6121777   6.458   1.489   6.842 -1.8007 -2.7085  1.1289
  179MOL    C6221778   6.554   1.587   7.004 -0.0460  0.4793  0.4845
  179MOL    C6321779   6.423   1.658   7.052  0.1135  0.2791 -0.3463
  179MOL    F6421780   6.437   1.703   7.174 -0.0009  0.3635  0.2316
  179MOL    H6521781   6.607   1.553   7.093 -3.0129  0.8472  2.4447
  179MOL    H6621782   6.618   1.661   6.956 -1.0115  1.0635  0.0955
  179MOL    H6721783   6.341   1.587   7.048 -0.3728  0.8181  0.0688
  179MOL    C6821784   6.393   1.784   6.970  0.9623  0.2571 -0.2724
  179MOL    C6921785   6.242   1.826   6.948 -0.3238  0.3647 -0.5426
  179MOL    F7021786   6.194   1.848   7.074 -0.3351 -0.2617 -0.3596
  179MOL    H7121787   6.451   1.863   7.017 -1.0781 -0.7177  4.1425
  179MOL    H7221788   6.419   1.779   6.864 -1.8073 -0.1431 -0.9741
  179MOL    H7321789   6.182   1.741   6.914 -1.2833  0.3686  1.0510
  179MOL    C7421790   6.219   1.953   6.852  0.2781  0.2243 -0.6349
  179MOL    C7521791   6.072   1.993   6.831 -0.0734  0.2544 -0.0373
  179MOL    F7621792   6.027   2.048   6.943  0.4340  0.5540 -0.2488
  179MOL    H7721793   6.277   2.035   6.895 -0.5057  0.5756 -0.2411
  179MOL    H7821794   6.265   1.932   6.756  0.2979  1.3230 -0.8679
  179MOL    H7921795   6.016   1.903   6.806 -1.6385  1.6731 -1.7985
  179MOL    C8021796   6.040   2.085   6.705  0.1668  0.5104 -0.1400
  179MOL    C8121797   6.072   2.011   6.569  0.1144  0.4047 -0.2654
  179MOL    F8221798   6.005   1.896   6.569  0.3996 -0.6996 -0.1422
  179MOL    H8321799   5.938   2.123   6.706 -0.3970 -0.9411 -1.0925
  179MOL    H8421800   6.107   2.170   6.718  1.0235 -0.1448 -0.2464
  179MOL    H8521801   6.178   1.989   6.553 -0.1025 -1.3329  0.5929
  179MOL    C8621802   6.036   2.086   6.441  0.1314  0.0824 -0.0233
  179MOL    C8721803   6.134   2.076   6.325  0.0171  0.4343 -0.3264
  179MOL    F8821804   6.158   1.945   6.313  0.4240  0.5404 -0.2125
  179MOL    H8921805   5.932   2.067   6.418  0.4570 -0.8490 -0.7386
  179MOL    H9021806   6.039   2.193   6.465  1.2340 -0.0629  0.5348
  179MOL    H9121807   6.229   2.126   6.345  1.4410 -2.2609 -0.0756
  179MOL    C9221808   6.068   2.126   6.190 -0.2132  0.3029 -0.4673
  179MOL    C9321809   6.160   2.148   6.066  0.5646 -1.0083 -1.1087
  179MOL    F9421810   6.239   2.250   6.097 -0.2880 -0.0532 -0.3735
  179MOL    H9521811   5.988   2.056   6.167  0.3177  0.3126 -2.3696
  179MOL    H9621812   6.016   2.219   6.211  0.2391  0.0945  1.7579
  179MOL    H9721813   6.104   2.183   5.978 -0.7961 -0.0301  0.1187
  179MOL    C9821814   6.245   2.031   6.033 -0.5097  0.5725  0.3359
  179MOL    C9921815   6.336   2.047   5.903  0.4166  0.4685 -1.3387
  179MOL   F10021816   6.255   2.067   5.797 -0.4059 -0.4643  0.7061
  179MOL   H10121817   6.304   2.010   6.123  0.6051  0.7910 -0.3438
  179MOL   H10221818   6.180   1.943   6.028 -0.3710  0.5384 -1.0410
  179MOL   H10321819   6.384   1.953   5.878  2.0473  0.9049  0.0499
  179MOL   C10421820   6.445   2.155   5.908  0.5077 -0.2692 -0.0844
  179MOL   C10521821   6.551   2.139   6.022  0.2197 -0.2710  1.1070
  179MOL   F10621822   6.601   2.015   6.002  0.5065  0.4645 -0.0632
  179MOL   H10721823   6.496   2.145   5.813 -1.3565  1.4062 -1.2941
  179MOL   H10821824   6.405   2.256   5.912 -2.2789 -1.3489  0.4165
  179MOL   H10921825   6.491   2.144   6.112 -0.3168 -1.0552  0.7996
  179MOL   C11021826   6.664   2.243   6.033 -0.2655  0.6357  0.3283
  179MOL   C11121827   6.765   2.229   6.156 -0.0319 -0.1141  0.3468
  179MOL   F11221828   6.848   2.336   6.149  0.3623  0.0994 -0.4525
  179MOL   H11321829   6.722   2.234   5.941  0.5755  0.7324  0.8459
  179MOL   H11421830   6.629   2.346   6.033 -0.3184  0.6418 -2.0763
  179MOL   H11521831   6.831   2.142   6.149 -0.7114 -0.5273 -1.0231
  179MOL   C11621832   6.698   2.225   6.293  0.5715 -0.0739 -0.9135
  179MOL   C11721833   6.803   2.237   6.403  0.3001 -0.4818  0.1834
  179MOL   F11821834   6.827   2.370   6.417 -0.1788 -0.3810 -0.6139
  179MOL   H11921835   6.617   2.296   6.311  1.1943  0.6845 -1.0918
  179MOL   H12021836   6.637   2.135   6.298  0.8208 -0.1132  2.5198
  179MOL   H12121837   6.898   2.188   6.383  0.5171 -0.8014  1.9000
  179MOL   H12221838   6.764   2.194   6.495 -1.5628 -3.0886 -1.7609
  180MOL     C121839   6.928   4.542   7.094 -0.6584  0.2592 -0.1685
  180MOL     C221840   6.874   4.637   7.204  0.6541 -0.1024  0.0802
  180MOL     F321841   6.981   4.708   7.244  0.5529 -0.0560  0.4183
  180MOL     H421842   6.979   4.601   7.018  0.2549  0.7355  0.7964
  180MOL     H521843   6.845   4.486   7.053 -0.2053 -0.9239  0.5145
  180MOL     H621844   6.822   4.601   7.293 -3.0605  1.0817 -1.5126
  180MOL     H721845   6.994   4.475   7.150  0.5589  0.1317 -1.7286
  180MOL     C821846   6.767   4.738   7.142 -0.8501 -0.0869  0.0063
  180MOL     C921847   6.628   4.671   7.131  0.1266 -0.0158 -0.6235
  180MOL    F1021848   6.592   4.635   7.256 -0.4473  0.5650 -0.4910
  180MOL    H1121849   6.751   4.829   7.201 -0.9312 -0.2267  0.1952
  180MOL    H1221850   6.800   4.771   7.043 -0.7474  0.1158  0.1052
  180MOL    H1321851   6.632   4.573   7.084 -2.0969  0.2068 -1.3134
  180MOL    C1421852   6.520   4.754   7.059  0.6490 -0.2292 -0.2314
  180MOL    C1521853   6.374   4.690   7.073  0.0137  0.0693 -0.6235
  180MOL    F1621854   6.298   4.773   7.003  0.3349 -0.2676  0.2488
  180MOL    H1721855   6.521   4.857   7.094  1.6885  0.0049 -0.9034
  180MOL    H1821856   6.552   4.766   6.956  1.7609  0.8425  0.2309
  180MOL    H1921857   6.346   4.697   7.178  1.1163 -1.7470 -0.1873
  180MOL    C2021858   6.350   4.545   7.013 -0.6457 -0.1009  0.1148
  180MOL    C2121859   6.403   4.531   6.864  0.8774  0.2211 -0.6635
  180MOL    F2221860   6.539   4.514   6.859  0.0222 -0.1202  0.0147
  180MOL    H2321861   6.403   4.477   7.080 -1.2028  0.5089  1.1841
  180MOL    H2421862   6.243   4.528   7.011 -0.8615  0.9812  2.0467
  180MOL    H2521863   6.389   4.621   6.804  1.6589 -1.1794 -3.0222
  180MOL    C2621864   6.339   4.419   6.784 -0.4033 -0.2707  0.1492
  180MOL    C2721865   6.370   4.281   6.841  0.3342  0.4174 -0.2138
  180MOL    F2821866   6.315   4.268   6.962  0.0946 -0.2040  0.1889
  180MOL    H2921867   6.231   4.435   6.779 -0.2807  0.1723 -1.3730
  180MOL    H3021868   6.374   4.430   6.682  2.4130 -0.6455  1.0352
  180MOL    H3121869   6.477   4.278   6.860  0.2056  0.5391  0.5459
  180MOL    C3221870   6.309   4.165   6.760  0.5187 -0.5876  0.1891
  180MOL    C3321871   6.377   4.127   6.632 -0.2032  0.1751 -1.0412
  180MOL    F3421872   6.482   4.053   6.668 -0.2602 -0.7035 -0.9001
  180MOL    H3521873   6.303   4.080   6.829 -1.0940  2.2679  3.7807
  180MOL    H3621874   6.204   4.190   6.748  0.6476  0.5037  1.2494
  180MOL    H3721875   6.417   4.208   6.571  2.2654 -0.0158  0.2392
  180MOL    C3821876   6.306   4.025   6.540 -0.2111  0.3622 -0.0142
  180MOL    C3921877   6.184   4.080   6.467 -0.5483 -0.3797 -0.2577
  180MOL    F4021878   6.237   4.183   6.399 -0.2657  0.2984  0.1895
  180MOL    H4121879   6.375   3.998   6.460  0.0034 -0.3771  0.4138
  180MOL    H4221880   6.275   3.939   6.599  2.3681 -0.2703  0.4875
  180MOL    H4321881   6.110   4.127   6.532  0.4232  0.7502  0.0601
  180MOL    C4421882   6.130   3.984   6.364  0.1118  0.5838  0.1033
  180MOL    C4521883   6.024   3.879   6.415  0.4491 -0.9401 -1.0333
  180MOL    F4621884   5.948   3.942   6.512 -0.6997 -0.1148  0.0708
  180MOL    H4721885   6.080   4.046   6.290 -2.2104 -1.9280 -0.5116
  180MOL    H4821886   6.209   3.930   6.312  0.0597  0.2944  0.3203
  180MOL    H4921887   6.081   3.797   6.458  1.6710  0.9557  1.0578
  180MOL    C5021888   5.935   3.808   6.312  0.7227 -0.0779  0.3148
  180MOL    C5121889   5.844   3.696   6.370  0.5129  0.0237 -0.7994
  180MOL    F5221890   5.755   3.667   6.279  0.3063  0.0262 -0.3208
  180MOL    H5321891   5.883   3.881   6.250  3.0597  1.3323 -0.0521
  180MOL    H5421892   5.994   3.762   6.233 -0.7208 -0.6164 -0.4828
  180MOL    H5521893   5.791   3.749   6.449 -0.5568 -0.6238 -1.0740
  180MOL    C5621894   5.914   3.569   6.416 -0.1256  0.5623  0.0924
  180MOL    C5721895   5.961   3.458   6.302  0.7625  0.3301 -0.5150
  180MOL    F5821896   6.063   3.512   6.237  0.6866 -0.5391 -0.0503
  180MOL    H5921897   5.998   3.585   6.485 -0.3927 -1.0994  0.8272
  180MOL    H6021898   5.832   3.525   6.472 -1.5845  3.4414  0.2930
  180MOL    H6121899   5.875   3.437   6.239 -0.2368 -1.2496  1.3307
  180MOL    C6221900   6.009   3.335   6.366 -0.2501  0.6661  0.7188
  180MOL    C6321901   5.904   3.249   6.455  0.2038 -0.5682  0.2748
  180MOL    F6421902   5.810   3.196   6.376 -0.1196 -0.0803  0.0086
  180MOL    H6521903   6.036   3.276   6.278  0.5662  1.2017  0.6071
  180MOL    H6621904   6.105   3.355   6.414  0.3446  1.3697 -0.7425
  180MOL    H6721905   5.860   3.302   6.540  2.0675 -0.2711  1.0976
  180MOL    C6821906   5.987   3.126   6.499 -0.4501  0.4178 -0.5202
  180MOL    C6921907   5.913   2.996   6.540  0.0410  0.4808  0.1379
  180MOL    F7021908   5.878   2.935   6.422  0.2417 -0.0365 -0.3082
  180MOL    H7121909   6.054   3.098   6.418 -0.1365 -0.3383 -0.0093
  180MOL    H7221910   6.050   3.153   6.583 -1.4995 -0.2986  0.5079
  180MOL    H7321911   5.819   3.013   6.592 -0.9371 -0.0519 -1.4191
  180MOL    C7421912   5.997   2.897   6.625  0.7937 -0.0713  0.8844
  180MOL    C7521913   5.905   2.808   6.711  1.1488  0.0534 -0.9783
  180MOL    F7621914   5.810   2.740   6.642 -0.2730  0.0511 -0.2529
  180MOL    H7721915   6.058   2.829   6.565  0.0208 -0.5646  0.6447
  180MOL    H7821916   6.069   2.944   6.691 -0.8519  2.8218  0.7205
  180MOL    H7921917   5.854   2.874   6.781 -0.5968  0.9843 -3.0565
  180MOL    C8021918   5.994   2.707   6.793 -0.1984  0.5874 -0.4240
  180MOL    C8121919   5.915   2.608   6.889  0.0738  0.2258 -0.1486
  180MOL    F8221920   6.019   2.533   6.934 -0.5999 -0.4020 -0.3323
  180MOL    H8321921   6.054   2.651   6.721  0.4938 -0.2912  0.8228
  180MOL    H8421922   6.070   2.758   6.851  0.0514 -1.5191  1.1611
  180MOL    H8521923   5.865   2.530   6.831  0.0670  0.1994 -0.1074
  180MOL    C8621924   5.828   2.665   7.003 -0.3152  0.2604 -0.0917
  180MOL    C8721925   5.756   2.556   7.089  1.0906  0.2653  0.0639
  180MOL    F8821926   5.666   2.493   7.010 -0.4696  0.1514  0.1694
  180MOL    H8921927   5.890   2.725   7.069 -0.3719 -1.2916  1.3932
  180MOL    H9021928   5.753   2.734   6.964 -0.4287  0.2149  0.0492
  180MOL    H9121929   5.690   2.603   7.161 -1.7181  0.2185 -2.3840
  180MOL    C9221930   5.850   2.446   7.154  0.9241 -0.6111 -0.1077
  180MOL    C9321931   5.783   2.374   7.280  0.4123  0.7002  0.1294
  180MOL    F9421932   5.770   2.465   7.373  0.1483 -0.1725  0.5117
  180MOL    H9521933   5.881   2.369   7.083  1.4508 -0.2338 -0.2919
  180MOL    H9621934   5.946   2.491   7.179 -0.6498  2.8657 -0.0175
  180MOL    H9721935   5.847   2.296   7.321  0.5114  1.6688  1.8333
  180MOL    C9821936   5.649   2.303   7.257  0.1799 -0.3805 -0.0438
  180MOL    C9921937   5.646   2.189   7.155  0.1509  0.1095 -0.7068
  180MOL   F10021938   5.728   2.098   7.198  0.2563 -0.2950  0.1125
  180MOL   H10121939   5.615   2.260   7.351  0.0291 -1.1731 -0.4654
  180MOL   H10221940   5.570   2.377   7.240  1.4472  0.7130 -1.2497
  180MOL   H10321941   5.691   2.230   7.064 -1.1584  0.3955 -1.2460
  180MOL   C10421942   5.507   2.123   7.141  0.3671  0.5416 -0.7208
  180MOL   C10521943   5.490   2.023   7.032 -0.0296  0.0174  0.7496
  180MOL   F10621944   5.364   1.987   7.029  0.2302 -0.1838  0.4189
  180MOL   H10721945   5.498   2.066   7.234 -1.4854 -1.0996 -1.8565
  180MOL   H10821946   5.418   2.186   7.139 -0.3268 -0.4041 -0.6882
  180MOL   H10921947   5.537   1.928   7.060 -0.1010 -0.0721  0.5703
  180MOL   C11021948   5.538   2.056   6.886  0.0955  0.4165 -0.0287
  180MOL   C11121949   5.523   1.940   6.784  0.9449 -0.0608 -0.4768
  180MOL   F11221950   5.559   1.978   6.663 -0.0860 -0.0480 -0.1277
  180MOL   H11321951   5.492   2.147   6.848  0.1114  1.4703  2.3491
  180MOL   H11421952   5.645   2.077   6.890  0.3107 -0.5859 -0.3549
  180MOL   H11521953   5.416   1.917   6.782  1.2668 -1.7938  0.8935
  180MOL   C11621954   5.588   1.817   6.822  0.3953  0.6608 -0.0224
  180MOL   C11721955   5.738   1.830   6.864  0.0674 -0.1141 -0.3358
  180MOL   F11821956   5.802   1.721   6.894  0.0229 -0.2581  0.2327
  180MOL   H11921957   5.539   1.788   6.915  0.4057  1.8704  0.3691
  180MOL   H12021958   5.568   1.755   6.734  2.4107 -1.2925  0.8452
  180MOL   H12121959   5.744   1.896   6.950 -0.7792 -0.0527 -0.3255
  180MOL   H12221960   5.798   1.878   6.786 -0.7903 -0.1791 -1.0413
  181MOL     C121961   6.786   7.089   2.745 -0.1913  0.4576  0.5311
  181MOL     C221962   6.817   7.127   2.894 -0.8117 -0.0992  0.4485
  181MOL     F321963   6.949   7.101   2.911  0.0622  0.1317  0.1918
  181MOL     H421964   6.840   7.159   2.681  0.4623  0.1469  0.7378
  181MOL     H521965   6.680   7.084   2.718 -0.1689 -1.2296  0.6738
  181MOL     H621966   6.768   7.064   2.968 -2.8929 -0.1793 -0.9544
  181MOL     H721967   6.823   6.989   2.723 -5.0047 -0.9490 -1.8117
  181MOL     C821968   6.781   7.277   2.924 -0.2887 -0.8326 -0.2838
  181MOL     C921969   6.753   7.293   3.072 -0.6681 -0.1421  0.0190
  181MOL    F1021970   6.651   7.216   3.096 -1.0427  0.4588  0.5181
  181MOL    H1121971   6.853   7.343   2.876  0.5375 -3.1565 -2.3290
  181MOL    H1221972   6.691   7.307   2.871  1.1065  3.1240 -0.6047
  181MOL    H1321973   6.709   7.388   3.102 -1.2759 -0.5590  0.4428
  181MOL    C1421974   6.874   7.268   3.168  0.3440  0.1434 -0.6144
  181MOL    C1521975   6.852   7.284   3.316  0.3187 -0.6545 -0.5333
  181MOL    F1621976   6.817   7.413   3.341 -0.4575  0.5366 -0.1748
  181MOL    H1721977   6.907   7.164   3.155 -1.9307 -1.0192  2.4789
  181MOL    H1821978   6.956   7.325   3.123  1.0494 -0.9995 -0.8112
  181MOL    H1921979   6.934   7.250   3.379  1.0994 -0.1150 -1.2395
  181MOL    C2021980   6.751   7.186   3.367 -0.9575  0.1337  0.1957
  181MOL    C2121981   6.776   7.140   3.516 -0.4738  0.0414 -0.0841
  181MOL    F2221982   6.763   7.239   3.598 -0.1465  0.0289  0.0316
  181MOL    H2321983   6.648   7.223   3.374 -0.9601  0.0366  0.7454
  181MOL    H2421984   6.752   7.096   3.305 -0.5159 -0.2064  0.6888
  181MOL    H2521985   6.881   7.111   3.516 -0.0739  1.3264  2.5478
  181MOL    C2621986   6.695   7.032   3.578  0.1883 -0.3283 -0.0329
  181MOL    C2721987   6.707   6.894   3.506  0.3269 -0.4054  0.6935
  181MOL    F2821988   6.837   6.865   3.501 -0.9038  0.0131 -0.0519
  181MOL    H2921989   6.741   7.024   3.676  1.6511  0.1017 -0.6696
  181MOL    H3021990   6.589   7.051   3.591 -0.2606 -2.2292 -0.7741
  181MOL    H3121991   6.674   6.886   3.402  1.1384  0.6493  0.3499
  181MOL    C3221992   6.634   6.784   3.577 -0.2912  0.4275  0.6698
  181MOL    C3321993   6.482   6.804   3.574  0.7981 -0.3560  0.0287
  181MOL    F3421994   6.443   6.757   3.458  0.4177 -0.1154  0.3288
  181MOL    H3521995   6.655   6.679   3.557 -2.1550  0.2829 -0.6198
  181MOL    H3621996   6.662   6.798   3.682  0.0109 -0.3073  0.6903
  181MOL    H3721997   6.451   6.907   3.588 -1.1978 -1.0827  1.1776
  181MOL    C3821998   6.402   6.723   3.679  0.0089  0.1530 -0.5163
  181MOL    C3921999   6.452   6.732   3.829  0.5452 -0.2693 -0.2707
  181MOL    F4022000   6.437   6.854   3.875  0.4612 -0.3270  0.2576
  181MOL    H4122001   6.296   6.741   3.667 -0.1613 -0.7120 -0.3467
  181MOL    H4222002   6.416   6.619   3.651 -0.3847 -0.1864  0.5100
  181MOL    H4322003   6.554   6.697   3.845  0.7945  0.9476  0.8902
  181MOL    C4422004   6.361   6.663   3.923 -0.7938  0.4177 -0.4692
  181MOL    C4522005   6.377   6.508   3.923 -0.1571 -0.3004  0.4880
  181MOL    F4622006   6.504   6.486   3.960 -0.3767 -0.0808 -0.3451
  181MOL    H4722007   6.390   6.698   4.022 -1.9627  0.5383 -0.1616
  181MOL    H4822008   6.256   6.684   3.901 -0.8482 -2.1391 -2.9596
  181MOL    H4922009   6.364   6.467   3.823  2.2542 -2.5091  1.0216
  181MOL    C5022010   6.285   6.417   4.011 -0.1942  0.3662  0.0470
  181MOL    C5122011   6.136   6.402   3.971  0.7483  0.4646 -1.0602
  181MOL    F5222012   6.131   6.377   3.847 -0.0093 -0.0268  0.0348
  181MOL    H5322013   6.330   6.318   4.020 -2.1692 -0.4429  1.3889
  181MOL    H5422014   6.286   6.451   4.115 -0.7967  0.2590  0.0885
  181MOL    H5522015   6.083   6.497   3.979  1.1004  0.7203 -1.7355
  181MOL    C5622016   6.043   6.310   4.052  0.0326  0.9445 -0.3508
  181MOL    C5722017   6.084   6.161   4.036  0.2424 -0.3896 -0.0116
  181MOL    F5822018   6.207   6.146   4.090  0.1737 -0.4220  0.2952
  181MOL    H5922019   6.042   6.335   4.158  1.5782 -0.7806  0.1041
  181MOL    H6022020   5.939   6.311   4.018  0.4582  0.2668 -1.7054
  181MOL    H6122021   6.100   6.125   3.934  1.2050 -1.0500  0.3649
  181MOL    C6222022   5.994   6.066   4.100  0.8126  0.2097  0.6487
  181MOL    C6322023   6.002   5.927   4.032  0.0465 -0.0112  0.5648
  181MOL    F6422024   6.128   5.888   4.038 -0.1743 -0.0070  0.0614
  181MOL    H6522025   6.009   6.057   4.208  0.0495  1.8268  0.9074
  181MOL    H6622026   5.888   6.094   4.094  1.1128  1.2894  0.2976
  181MOL    H6722027   5.970   5.942   3.929  1.0477  1.4304  0.4461
  181MOL    C6822028   5.919   5.811   4.092 -0.1378  0.1196  0.3294
  181MOL    C6922029   5.931   5.667   4.015  0.0269  0.3062  0.1285
  181MOL    F7022030   5.884   5.577   4.105 -0.3508 -0.0985 -0.9166
  181MOL    H7122031   5.941   5.797   4.198  2.1222 -2.5760 -0.4189
  181MOL    H7222032   5.814   5.837   4.101 -0.0940  0.6839 -0.6177
  181MOL    H7322033   6.035   5.647   3.989  0.6327  0.1954  2.5172
  181MOL    C7422034   5.847   5.670   3.881  0.3880 -0.5152 -0.1130
  181MOL    C7522035   5.696   5.649   3.895 -0.4104  0.0041 -0.2321
  181MOL    F7622036   5.634   5.742   3.967  0.4083  0.0335  0.0675
  181MOL    H7722037   5.860   5.765   3.829  2.1335 -0.4955  0.3407
  181MOL    H7822038   5.895   5.595   3.819 -2.2455 -0.6792 -2.0707
  181MOL    H7922039   5.680   5.557   3.952 -0.1008  0.5786  0.7937
  181MOL    C8022040   5.621   5.639   3.755  0.6456  0.2842 -0.4447
  181MOL    C8122041   5.584   5.766   3.673  0.0338  0.8439 -0.4552
  181MOL    F8222042   5.697   5.799   3.610  0.4159  0.5947  0.5415
  181MOL    H8322043   5.666   5.556   3.701 -0.9882 -0.1353 -1.2063
  181MOL    H8422044   5.538   5.583   3.799  0.4517 -1.0405 -2.3960
  181MOL    H8522045   5.557   5.846   3.743  1.5460  0.2566  0.8446
  181MOL    C8622046   5.466   5.750   3.570 -0.3476  0.1903 -0.4208
  181MOL    C8722047   5.397   5.881   3.541  0.0711 -0.0385 -0.1580
  181MOL    F8822048   5.330   5.920   3.651  0.2433 -0.0345  0.1667
  181MOL    H8922049   5.513   5.705   3.483  0.2346  0.5744 -0.3104
  181MOL    H9022050   5.390   5.679   3.603 -1.7361  1.2541 -1.2991
  181MOL    H9122051   5.322   5.859   3.465 -0.4656  2.1177 -0.3083
  181MOL    C9222052   5.482   5.994   3.476 -0.1269  0.9949 -0.1956
  181MOL    C9322053   5.571   5.960   3.349 -0.2603  0.0237 -0.0592
  181MOL    F9422054   5.500   5.927   3.249 -0.4792  0.4137 -0.5352
  181MOL    H9522055   5.416   6.078   3.455 -1.9832 -0.6164 -0.9032
  181MOL    H9622056   5.550   6.024   3.556 -0.0442 -1.9774  0.9116
  181MOL    H9722057   5.639   5.879   3.375  0.1544 -0.1509 -1.6854
  181MOL    C9822058   5.670   6.069   3.308  0.0217 -0.7732 -0.2086
  181MOL    C9922059   5.742   6.035   3.176  0.1044 -0.3272 -0.1456
  181MOL   F10022060   5.679   6.109   3.087 -0.1742 -0.2512  0.4286
  181MOL   H10122061   5.614   6.162   3.294  2.3581  0.7057  0.0519
  181MOL   H10222062   5.743   6.097   3.384  2.6087 -1.8690 -2.2168
  181MOL   H10322063   5.730   5.930   3.153  0.4622  0.2689 -3.1966
  181MOL   C10422064   5.898   6.066   3.162 -0.1520  0.8175  0.4993
  181MOL   C10522065   5.952   5.986   3.041  0.1576  0.1461 -0.1410
  181MOL   F10622066   5.895   6.027   2.927 -0.1307 -0.2862 -0.0067
  181MOL   H10722067   5.914   6.172   3.141  1.7424  0.7260  1.3350
  181MOL   H10822068   5.953   6.031   3.249  1.7039  2.8642  0.2039
  181MOL   H10922069   5.931   5.880   3.058 -0.0649  0.2602  0.3017
  181MOL   C11022070   6.105   6.012   3.011 -0.4822  0.4491 -0.5051
  181MOL   C11122071   6.151   6.154   2.988 -0.3458 -0.5204  0.0921
  181MOL   F11222072   6.157   6.222   3.103 -0.5341  0.4311  0.1094
  181MOL   H11322073   6.179   5.959   3.072  0.3203  2.3597  0.2265
  181MOL   H11422074   6.123   5.972   2.911 -2.0982 -0.2373 -0.5286
  181MOL   H11522075   6.072   6.204   2.933  0.5070  0.0088 -0.6548
  181MOL   C11622076   6.286   6.172   2.920  0.1520 -0.3606  0.3263
  181MOL   C11722077   6.344   6.317   2.905 -0.1027 -0.3368 -0.4108
  181MOL   F11822078   6.473   6.305   2.885  0.5384 -0.1388 -0.3698
  181MOL   H11922079   6.358   6.101   2.961  0.3877  0.3411  1.1399
  181MOL   H12022080   6.266   6.139   2.818  1.0133 -1.1496  0.3969
  181MOL   H12122081   6.328   6.368   2.999 -0.7327 -0.5703 -0.3910
  181MOL   H12222082   6.300   6.369   2.820 -2.4188  1.2012  1.6732
  182MOL     C122083   5.778   3.004   2.901  0.6506 -0.0545 -0.3252
  182MOL     C222084   5.851   2.893   2.971  0.6428  0.4527 -0.2819
  182MOL     F322085   5.763   2.790   2.993  0.0901 -0.4752 -0.5879
  182MOL     H422086   5.680   3.006   2.948  1.7929 -0.3359  2.1396
  182MOL     H522087   5.770   2.992   2.793 -1.5353  1.2189 -0.3236
  182MOL     H622088   5.888   2.932   3.066  0.0055 -1.6264  0.8368
  182MOL     H722089   5.837   3.092   2.927 -0.1404  0.2280  0.5252
  182MOL     C822090   5.973   2.837   2.901 -0.3969  0.7692  0.4253
  182MOL     C922091   6.086   2.945   2.871 -0.0190 -0.0237  0.7160
  182MOL    F1022092   6.119   3.007   2.982  0.1104  0.4219 -0.9507
  182MOL    H1122093   6.027   2.761   2.958  1.4521  1.7931  0.0659
  182MOL    H1222094   5.940   2.784   2.812 -0.4786 -0.3640  1.1172
  182MOL    H1322095   6.047   3.028   2.813  2.7337  1.7408  1.2689
  182MOL    C1422096   6.214   2.885   2.795 -0.4489 -0.2861 -0.6403
  182MOL    C1522097   6.187   2.842   2.653  0.2982  0.1336 -0.1177
  182MOL    F1622098   6.170   2.953   2.583 -0.3997 -0.1539  0.4053
  182MOL    H1722099   6.288   2.965   2.799 -0.6551 -0.1061 -0.3786
  182MOL    H1822100   6.259   2.804   2.851  1.5033  1.7783  0.8606
  182MOL    H1922101   6.113   2.763   2.638  1.1590 -0.5532 -0.7943
  182MOL    C2022102   6.318   2.782   2.595  0.5288  0.5736 -0.0849
  182MOL    C2122103   6.324   2.735   2.445 -0.7419 -0.0302 -0.0833
  182MOL    F2222104   6.455   2.717   2.411  0.6963 -0.5240 -0.0348
  182MOL    H2322105   6.395   2.856   2.613 -0.4961  2.3141 -2.6051
  182MOL    H2422106   6.345   2.687   2.642 -2.1758 -0.7438 -1.1133
  182MOL    H2522107   6.283   2.819   2.389  1.7666  0.1279 -1.7364
  182MOL    C2622108   6.251   2.597   2.406 -0.3403  0.2245  0.1620
  182MOL    C2722109   6.252   2.579   2.253  0.2664  0.2962  0.7911
  182MOL    F2822110   6.204   2.691   2.186  0.3320 -0.3256  0.7064
  182MOL    H2922111   6.306   2.515   2.453 -1.0097  0.2013  0.9092
  182MOL    H3022112   6.150   2.583   2.444  0.0153 -2.5121  0.2094
  182MOL    H3122113   6.178   2.504   2.224  0.3195  0.7483 -0.5467
  182MOL    C3222114   6.383   2.526   2.187 -0.2961  0.3733 -0.3457
  182MOL    C3322115   6.380   2.441   2.055 -0.1360  0.2004  0.5383
  182MOL    F3422116   6.303   2.501   1.970  0.4569  0.2111 -0.1624
  182MOL    H3522117   6.440   2.617   2.169 -0.9226  0.4608 -1.9924
  182MOL    H3622118   6.433   2.466   2.263 -0.2455  1.4091  0.4420
  182MOL    H3722119   6.330   2.348   2.081  0.1604  0.3155  1.5733
  182MOL    C3822120   6.521   2.416   1.994 -0.6699  0.1579  0.4638
  182MOL    C3922121   6.512   2.355   1.857  0.8675 -0.1906  0.2250
  182MOL    F4022122   6.628   2.348   1.803 -0.1336  0.5553 -0.1467
  182MOL    H4122123   6.569   2.513   1.998  0.8749 -0.6165  1.1940
  182MOL    H4222124   6.569   2.350   2.067 -1.3653  0.5760  1.2943
  182MOL    H4322125   6.456   2.427   1.797 -1.6250 -2.3477 -0.1510
  182MOL    C4422126   6.436   2.227   1.832  0.2339 -0.3201 -0.7538
  182MOL    C4522127   6.426   2.166   1.696  0.0826  0.2710  0.5571
  182MOL    F4622128   6.406   2.036   1.704  0.4820 -0.4955  0.6873
  182MOL    H4722129   6.485   2.149   1.891  0.3842  0.1605 -0.2348
  182MOL    H4822130   6.336   2.236   1.875  0.1780  0.4065 -1.0343
  182MOL    H4922131   6.520   2.178   1.643 -0.9565  1.6283 -1.0373
  182MOL    C5022132   6.300   2.227   1.613 -0.1255 -0.0063  0.8594
  182MOL    C5122133   6.316   2.234   1.459 -0.0312  0.6202  1.3047
  182MOL    F5222134   6.422   2.309   1.433  0.3025 -0.6676 -0.0729
  182MOL    H5322135   6.211   2.167   1.633  0.8342 -1.2040  1.6207
  182MOL    H5422136   6.273   2.329   1.642 -0.0419  0.6869 -1.4443
  182MOL    H5522137   6.228   2.284   1.420 -0.3208  0.4385  1.7215
  182MOL    C5622138   6.340   2.101   1.391  0.5220  0.5504  0.1704
  182MOL    C5722139   6.326   2.082   1.239 -0.4388 -0.0471 -0.7728
  182MOL    F5822140   6.196   2.077   1.201  0.0077 -0.3073 -0.1470
  182MOL    H5922141   6.440   2.074   1.426  0.8357  0.1815 -0.9961
  182MOL    H6022142   6.286   2.019   1.439  1.3598 -0.3601 -0.4229
  182MOL    H6122143   6.357   1.981   1.213  0.4701  0.0136  0.0564
  182MOL    C6222144   6.399   2.191   1.156 -0.0314 -1.1424 -0.4764
  182MOL    C6322145   6.553   2.193   1.172 -0.7241  0.0856  0.4563
  182MOL    F6422146   6.594   2.077   1.123  0.0250 -0.4336  0.3437
  182MOL    H6522147   6.380   2.187   1.049  1.4314  0.8887 -0.8315
  182MOL    H6622148   6.361   2.285   1.196 -1.1373 -1.7861  0.0313
  182MOL    H6722149   6.585   2.182   1.276 -1.3296 -2.0767  0.4405
  182MOL    C6822150   6.625   2.316   1.104  0.1159 -0.2528 -0.2368
  182MOL    C6922151   6.645   2.308   0.948  0.1973 -0.1616  0.0807
  182MOL    F7022152   6.524   2.334   0.900  0.2293  0.4085  0.1645
  182MOL    H7122153   6.575   2.410   1.129 -0.2694 -1.3619  3.5716
  182MOL    H7222154   6.729   2.325   1.137  1.0211 -0.3168 -2.9361
  182MOL    H7322155   6.663   2.209   0.904 -0.3940 -0.6858  1.0067
  182MOL    C7422156   6.745   2.403   0.883 -0.0075 -0.0907  0.3731
  182MOL    C7522157   6.753   2.387   0.733 -0.1960 -0.3014  0.0212
  182MOL    F7622158   6.631   2.370   0.675 -0.5827  0.0020  0.0669
  182MOL    H7722159   6.702   2.501   0.904 -1.2594 -0.1867 -1.6228
  182MOL    H7822160   6.844   2.407   0.929 -0.4082 -0.5286  1.2893
  182MOL    H7922161   6.795   2.290   0.705 -1.2286  0.1088 -3.1771
  182MOL    C8022162   6.833   2.501   0.661  0.1964 -0.3878 -0.3204
  182MOL    C8122163   6.851   2.477   0.512  0.2188  0.6353  0.6291
  182MOL    F8222164   6.736   2.437   0.451 -0.2877 -0.3376 -0.4047
  182MOL    H8322165   6.761   2.582   0.672 -0.9771 -1.5147  0.3938
  182MOL    H8422166   6.933   2.504   0.704 -1.6438 -1.6563  4.4046
  182MOL    H8522167   6.907   2.383   0.509  1.7578  1.5092  1.4901
  182MOL    C8622168   6.928   2.589   0.439 -0.2965  0.1958 -0.5681
  182MOL    C8722169   7.001   2.541   0.313  0.3247  0.1136  0.2111
  182MOL    F8822170   7.112   2.486   0.351  0.1506 -0.0114  0.3301
  182MOL    H8922171   6.864   2.675   0.419  1.0900  1.9187  2.0488
  182MOL    H9022172   7.010   2.624   0.502 -0.5803 -1.5873  0.8416
  182MOL    H9122173   7.032   2.624   0.249  1.1769  0.0422  0.5197
  182MOL    C9222174   6.923   2.452   0.213  0.0472  0.6566  0.1942
  182MOL    C9322175   6.801   2.513   0.149  0.2087 -0.0414  0.1411
  182MOL    F9422176   6.826   2.612   0.068 -0.3086  0.3276 -0.0979
  182MOL    H9522177   6.994   2.406   0.144 -0.4642 -1.8986  1.3022
  182MOL    H9622178   6.893   2.369   0.278  2.4779 -1.3914 -1.2317
  182MOL    H9722179   6.723   2.550   0.216  0.5508 -0.4764  0.7860
  182MOL    C9822180   6.741   2.403   0.059  0.0935  0.1239 -0.0087
  182MOL    C9922181   6.602   2.432   0.004  0.3497 -0.1480 -0.1543
  182MOL   F10022182   6.606   2.392   7.885  0.2873 -0.0848  0.1278
  182MOL   H10122183   6.812   2.381   7.982  1.3673 -0.2305  1.2068
  182MOL   H10222184   6.739   2.309   0.115  0.6473 -0.0532 -0.2897
  182MOL   H10322185   6.586   2.537   7.982 -2.1108 -0.4885 -0.2165
  182MOL   C10422186   6.479   2.365   0.079  0.7453 -0.4724  0.6447
  182MOL   C10522187   6.428   2.437   0.199  0.0358  0.7792 -1.4684
  182MOL   F10622188   6.376   2.556   0.156 -0.0995  0.5609 -0.4099
  182MOL   H10722189   6.399   2.340   0.010 -0.0203  0.3791  1.2192
  182MOL   H10822190   6.523   2.270   0.109  2.2044 -1.0495 -3.0303
  182MOL   H10922191   6.511   2.452   0.267 -0.3754 -0.1419 -0.7619
  182MOL   C11022192   6.302   2.359   0.252  0.5436  0.2798  0.1348
  182MOL   C11122193   6.262   2.392   0.395  0.7966  0.0166  0.7409
  182MOL   F11222194   6.143   2.334   0.418 -0.5673  0.0881 -0.3549
  182MOL   H11322195   6.212   2.382   0.195  0.5641  1.1089  0.4300
  182MOL   H11422196   6.318   2.251   0.243  1.7146  0.2377  2.2652
  182MOL   H11522197   6.251   2.500   0.398  2.9736  0.3145 -0.5524
  182MOL   C11622198   6.364   2.357   0.509  0.2584  0.4756  0.8125
  182MOL   C11722199   6.307   2.397   0.652  0.7698  0.0293 -0.3211
  182MOL   F11822200   6.306   2.529   0.654  0.0490 -0.0063  0.2007
  182MOL   H11922201   6.400   2.254   0.514 -1.0508 -0.0013  0.7061
  182MOL   H12022202   6.461   2.406   0.499  0.0522  0.4140 -1.6480
  182MOL   H12122203   6.361   2.352   0.735  0.4047  0.0475 -0.0729
  182MOL   H12222204   6.200   2.377   0.661  0.8605 -0.2746  0.1086
  183MOL     C122205   0.476   7.856   4.606 -0.3373  0.4980 -0.0044
  183MOL     C222206   0.398   7.936   4.703  0.0838 -1.0781 -0.4878
  183MOL     F322207   0.405   7.895   4.827  0.4231 -0.4179 -0.3780
  183MOL     H422208   0.434   7.874   4.508 -1.8025  0.9926  0.7091
  183MOL     H522209   0.471   7.747   4.614  1.2368  0.2199 -2.2347
  183MOL     H622210   0.290   7.925   4.688 -0.0128  1.0395 -1.4700
  183MOL     H722211   0.581   7.884   4.602 -0.3600  0.6595  0.4820
  183MOL     C822212   0.438   0.082   4.709 -0.0626 -0.5564  0.2318
  183MOL     C922213   0.335   0.178   4.776 -0.0754 -0.0342  0.0700
  183MOL    F1022214   0.331   0.142   4.905 -0.3757  0.2775 -0.4807
  183MOL    H1122215   0.523   0.089   4.777 -1.8327  1.0431  2.3623
  183MOL    H1222216   0.467   0.122   4.612  0.4527  2.2523  1.4811
  183MOL    H1322217   0.235   0.162   4.734  1.3109 -3.1369 -2.2835
  183MOL    C1422218   0.363   0.333   4.772 -0.0061 -0.1263  0.2670
  183MOL    C1522219   0.479   0.388   4.862  0.8039 -0.1762 -0.1364
  183MOL    F1622220   0.588   0.351   4.792 -0.1330  0.5010 -0.0705
  183MOL    H1722221   0.373   0.359   4.667 -0.0294  0.8270  0.4959
  183MOL    H1822222   0.267   0.382   4.791  0.9061  1.9465 -0.2895
  183MOL    H1922223   0.484   0.340   4.960 -1.5798 -0.2217 -0.0023
  183MOL    C2022224   0.466   0.538   4.891  0.3041 -0.7317  0.1416
  183MOL    C2122225   0.597   0.589   4.962  0.4595  0.6063  0.0801
  183MOL    F2222226   0.685   0.590   4.869 -0.0831 -0.0694  0.4270
  183MOL    H2322227   0.459   0.594   4.798  1.0660 -1.7686 -0.5603
  183MOL    H2422228   0.377   0.547   4.953  0.7062  1.1175  0.4655
  183MOL    H2522229   0.633   0.524   5.042 -1.5321  0.1880  0.6892
  183MOL    C2622230   0.585   0.727   5.028 -0.0481 -0.6643  0.7570
  183MOL    C2722231   0.473   0.828   4.983  0.2323  0.0270 -0.3049
  183MOL    F2822232   0.351   0.783   5.017  0.1273 -0.4752  0.3658
  183MOL    H2922233   0.576   0.703   5.134 -1.7187  1.8915  1.2539
  183MOL    H3022234   0.683   0.774   5.027 -0.7703  0.8713  0.7374
  183MOL    H3122235   0.467   0.817   4.875 -0.7671  0.0656 -0.2590
  183MOL    C3222236   0.485   0.976   5.028  0.0206  0.6005  0.2851
  183MOL    C3322237   0.410   1.077   4.949  0.4943  0.9438  0.1872
  183MOL    F3422238   0.286   1.062   4.957  0.1273  0.5399  0.0796
  183MOL    H3522239   0.477   0.984   5.136  2.0386  1.4661  0.3979
  183MOL    H3622240   0.589   1.002   5.007  0.3520 -1.0387 -0.2195
  183MOL    H3722241   0.430   1.067   4.842  3.8580  0.5104  0.8070
  183MOL    C3822242   0.438   1.230   4.983  0.6550  0.4305  0.3011
  183MOL    C3922243   0.359   1.327   4.886 -0.1543  0.2470  0.2555
  183MOL    F4022244   0.377   1.293   4.756 -0.4460  0.0764 -0.3664
  183MOL    H4122245   0.422   1.248   5.089 -3.0778  1.0957 -0.2931
  183MOL    H4222246   0.544   1.246   4.970  0.7519  0.7727  1.4764
  183MOL    H4322247   0.411   1.423   4.889  1.4071 -0.6389  1.7361
  183MOL    C4422248   0.210   1.339   4.909  0.3410 -0.1581  0.1201
  183MOL    C4522249   0.148   1.445   4.807 -0.2652 -0.4503 -0.5490
  183MOL    F4622250   0.015   1.448   4.822  0.0717 -0.9707 -0.1926
  183MOL    H4722251   0.168   1.240   4.891  0.0167 -0.1647  0.8813
  183MOL    H4822252   0.192   1.375   5.010 -0.7825  1.5852 -0.6803
  183MOL    H4922253   0.173   1.410   4.707  0.5896  1.2861 -0.9504
  183MOL    C5022254   0.191   1.594   4.828  0.1795  0.3821 -0.2944
  183MOL    C5122255   0.127   1.691   4.727  0.8246 -0.0762 -0.4951
  183MOL    F5222256   0.150   1.823   4.762  0.0468 -0.2941 -0.6705
  183MOL    H5322257   0.152   1.625   4.925 -0.2119 -1.8014  0.2633
  183MOL    H5422258   0.299   1.613   4.827  0.0010  1.6840  1.2433
  183MOL    H5522259   0.020   1.668   4.734  0.3961  1.0683 -2.6732
  183MOL    C5622260   0.179   1.683   4.585  0.1457 -0.9552  0.3324
  183MOL    C5722261   0.090   1.761   4.484  0.1850  0.3436 -0.5654
  183MOL    F5822262   0.162   1.770   4.379  0.0164  0.4921 -0.4055
  183MOL    H5922263   0.284   1.712   4.585  0.7213 -2.8811 -1.4425
  183MOL    H6022264   0.185   1.579   4.550  1.9417 -0.4544 -0.9111
  183MOL    H6122265   0.062   1.863   4.508  0.7611  0.6046 -0.9886
  183MOL    C6222266   7.974   1.679   4.443 -0.3769  0.1842  0.4190
  183MOL    C6322267   7.855   1.752   4.365 -0.5240 -0.1812  0.6562
  183MOL    F6422268   7.760   1.662   4.340  0.2948 -0.0705 -0.0057
  183MOL    H6522269   0.007   1.601   4.376  1.3337  1.0094  0.3593
  183MOL    H6622270   7.933   1.630   4.531 -0.5267 -1.9919 -0.8345
  183MOL    H6722271   7.890   1.790   4.270  1.3651 -1.2342  0.8987
  183MOL    C6822272   7.797   1.871   4.439  0.2818 -0.0311  0.3602
  183MOL    C6922273   7.676   1.928   4.367 -0.0431  0.5851 -0.5583
  183MOL    F7022274   7.614   2.014   4.441  0.0802 -0.1248  0.0702
  183MOL    H7122275   7.752   1.838   4.533  2.6127  0.4914  1.6936
  183MOL    H7222276   7.870   1.950   4.458  0.0381  0.7142 -1.7110
  183MOL    H7322277   7.603   1.848   4.357  0.4611  0.1866 -1.1129
  183MOL    C7422278   7.690   1.984   4.223  0.1607  0.3900 -0.0652
  183MOL    C7522279   7.777   2.108   4.210  0.1882  0.8227 -0.5716
  183MOL    F7622280   7.903   2.073   4.206 -0.0140 -0.0210  0.3212
  183MOL    H7722281   7.734   1.905   4.163 -1.0781 -0.1121 -0.3375
  183MOL    H7822282   7.593   2.002   4.177 -1.4082  0.3239  3.0432
  183MOL    H7922283   7.765   2.185   4.286  0.4837 -0.1799  0.5114
  183MOL    C8022284   7.764   2.181   4.076 -0.3669 -0.6862  0.0777
  183MOL    C8122285   7.677   2.312   4.078  0.5895  0.1240  0.3203
  183MOL    F8222286   7.676   2.372   3.964  0.5396  0.0758  0.2787
  183MOL    H8322287   7.859   2.208   4.030  0.4604 -2.7875  0.4929
  183MOL    H8422288   7.733   2.116   3.994  0.2010 -1.0665  0.1560
  183MOL    H8522289   7.736   2.375   4.145 -0.2139  1.9665 -0.6845
  183MOL    C8622290   7.533   2.303   4.132  0.0723 -0.8006  0.2861
  183MOL    C8722291   7.446   2.434   4.118 -0.1905  0.5774  0.2557
  183MOL    F8822292   7.433   2.470   3.993  0.2493 -0.3809  0.2198
  183MOL    H8922293   7.478   2.234   4.068  0.2768 -2.3547  1.7488
  183MOL    H9022294   7.527   2.264   4.233  0.5886  0.2224  0.7227
  183MOL    H9122295   7.494   2.522   4.161 -1.5419  1.3063  0.2994
  183MOL    C9222296   7.298   2.419   4.164  0.2674  0.1769  0.3544
  183MOL    C9322297   7.220   2.550   4.161  0.0381 -0.9326  0.0685
  183MOL    F9422298   7.091   2.512   4.174  0.3601  0.2659  0.0086
  183MOL    H9522299   7.252   2.364   4.082  1.3913 -1.3265  0.7211
  183MOL    H9622300   7.286   2.346   4.243 -0.8398 -1.1889 -1.0376
  183MOL    H9722301   7.238   2.606   4.069 -0.2839 -2.0883 -0.7136
  183MOL    C9822302   7.245   2.644   4.280 -0.0218 -1.1859 -0.4272
  183MOL    C9922303   7.164   2.782   4.269  0.3491  0.2764  0.2600
  183MOL   F10022304   7.187   2.827   4.147  0.2325  0.3656 -0.0412
  183MOL   H10122305   7.213   2.590   4.370 -0.4286 -0.1545  0.0536
  183MOL   H10222306   7.351   2.667   4.278 -0.5455  1.3698  0.0720
  183MOL   H10322307   7.211   2.863   4.325  0.8869 -0.5180  0.9505
  183MOL   C10422308   7.011   2.783   4.299  0.1751 -0.1230  0.5714
  183MOL   C10522309   6.955   2.717   4.433 -0.2274 -0.0572 -0.3400
  183MOL   F10622310   7.027   2.761   4.536  0.2902 -0.3724  0.2741
  183MOL   H10722311   6.975   2.886   4.291  1.2687  0.1029 -1.9939
  183MOL   H10822312   6.970   2.731   4.212 -0.7117 -0.2193  1.0380
  183MOL   H10922313   6.969   2.609   4.436  1.2412  0.1628  3.6864
  183MOL   C11022314   6.803   2.749   4.457 -0.1480 -0.2729 -0.4343
  183MOL   C11122315   6.703   2.676   4.372  0.8180  0.2428 -0.1373
  183MOL   F11222316   6.710   2.552   4.418  0.2247 -0.6555  0.2625
  183MOL   H11322317   6.791   2.726   4.563  0.7891 -1.6932 -0.6185
  183MOL   H11422318   6.787   2.856   4.458 -0.0812 -0.2642 -0.1682
  183MOL   H11522319   6.735   2.680   4.268  1.1550  0.5093 -0.0222
  183MOL   C11622320   6.551   2.719   4.380 -0.0068  0.1217 -0.0280
  183MOL   C11722321   6.491   2.739   4.516  0.2637  0.4504 -0.4173
  183MOL   F11822322   6.365   2.782   4.496 -0.0382  0.1798  0.2344
  183MOL   H11922323   6.534   2.812   4.326 -1.2453 -0.5662 -0.8681
  183MOL   H12022324   6.489   2.648   4.325  3.3726 -2.3775 -0.7810
  183MOL   H12122325   6.550   2.815   4.567  1.5059 -0.3201 -0.6860
  183MOL   H12222326   6.472   2.655   4.583  2.0543  2.9574  3.4623
  184MOL     C122327   4.771   1.299   2.580  0.1324  0.1316  0.0965
  184MOL     C222328   4.726   1.400   2.481  0.4743  0.3157 -0.0793
  184MOL     F322329   4.821   1.414   2.392  0.0315  0.1219 -0.2078
  184MOL     H422330   4.877   1.304   2.603  0.2229  0.8217 -0.4479
  184MOL     H522331   4.739   1.199   2.552 -3.0325  1.4226 -1.1043
  184MOL     H622332   4.715   1.495   2.533  1.5123 -0.1925  1.1047
  184MOL     H722333   4.719   1.300   2.676  0.8449  0.4407  0.4883
  184MOL     C822334   4.597   1.346   2.407  0.1296  0.6913 -0.7301
  184MOL     C922335   4.529   1.453   2.318 -0.1014 -0.1305 -0.4281
  184MOL    F1022336   4.444   1.527   2.388  0.5297  0.2487 -0.2370
  184MOL    H1122337   4.630   1.258   2.352  1.3363  0.6494  0.0430
  184MOL    H1222338   4.530   1.310   2.485  1.8821 -1.5757 -0.2201
  184MOL    H1322339   4.468   1.388   2.255  1.6978 -1.5661 -0.7325
  184MOL    C1422340   4.619   1.540   2.236 -1.0191 -0.4976 -0.9781
  184MOL    C1522341   4.550   1.626   2.123  0.4078  0.1340 -0.0718
  184MOL    F1622342   4.624   1.737   2.094 -0.0884  0.5300  0.0631
  184MOL    H1722343   4.675   1.611   2.296  0.7963 -1.1104 -1.8846
  184MOL    H1822344   4.703   1.480   2.201 -1.8390 -1.1257 -1.8926
  184MOL    H1922345   4.460   1.676   2.159 -0.0638  0.0420 -1.1034
  184MOL    C2022346   4.518   1.544   1.992  0.0160  0.5544 -0.9320
  184MOL    C2122347   4.391   1.585   1.914 -0.5326  0.9909  0.0670
  184MOL    F2222348   4.418   1.706   1.869 -0.2259  0.2639  0.7164
  184MOL    H2322349   4.603   1.518   1.929 -0.1993  0.7532 -1.3026
  184MOL    H2422350   4.489   1.443   2.020 -1.2069  0.1141 -3.6353
  184MOL    H2522351   4.314   1.595   1.990 -0.8645 -1.3774  0.0760
  184MOL    C2622352   4.344   1.491   1.808  0.9404  0.3834  0.6890
  184MOL    C2722353   4.438   1.424   1.710  0.0824 -0.0818 -0.5672
  184MOL    F2822354   4.527   1.348   1.774 -0.7494  0.3057 -0.0955
  184MOL    H2922355   4.283   1.411   1.850  0.2497 -1.0597 -2.8664
  184MOL    H3022356   4.275   1.545   1.743  1.1789  0.1623  0.2467
  184MOL    H3122357   4.503   1.496   1.662 -0.4326 -0.9703 -2.6869
  184MOL    C3222358   4.369   1.330   1.604 -0.0981  0.0505 -0.3317
  184MOL    C3322359   4.281   1.398   1.494 -0.3192  0.2688 -0.0354
  184MOL    F3422360   4.349   1.498   1.449 -0.5348  0.1003  0.4397
  184MOL    H3522361   4.454   1.287   1.550 -0.2101 -0.6702  0.0610
  184MOL    H3622362   4.319   1.248   1.655 -0.2263 -0.5894 -1.4724
  184MOL    H3722363   4.204   1.460   1.541 -0.9025 -1.3305  1.2044
  184MOL    C3822364   4.241   1.305   1.387  0.0459 -0.3105  0.0844
  184MOL    C3922365   4.129   1.372   1.303 -0.7495 -0.3110  0.1870
  184MOL    F4022366   4.142   1.505   1.276  0.2395  1.1608 -0.4880
  184MOL    H4122367   4.327   1.283   1.325  0.4520  0.4141  0.3894
  184MOL    H4222368   4.195   1.217   1.433 -3.3740  1.1329 -0.3746
  184MOL    H4322369   4.039   1.372   1.363 -1.3176  2.2184 -0.5862
  184MOL    C4422370   4.087   1.288   1.173  0.3390  0.2005  0.8562
  184MOL    C4522371   4.035   1.147   1.217 -0.1594  0.4461 -0.6192
  184MOL    F4622372   3.933   1.163   1.304  0.3432  0.2945  0.5279
  184MOL    H4722373   4.009   1.353   1.133  1.6688  1.1529 -0.2306
  184MOL    H4822374   4.171   1.278   1.104  0.8697  1.4852  1.3077
  184MOL    H4922375   4.118   1.093   1.265  2.3340  2.7057 -2.2663
  184MOL    C5022376   3.992   1.058   1.098 -0.0062  0.2102  0.6353
  184MOL    C5122377   4.001   0.911   1.130 -0.1159 -0.4374 -0.6338
  184MOL    F5222378   4.119   0.876   1.180 -0.7010  0.2289 -0.9714
  184MOL    H5322379   3.900   1.095   1.053 -1.4290 -2.1961  1.4684
  184MOL    H5422380   4.070   1.075   1.024  0.5179  2.8239  1.7580
  184MOL    H5522381   4.007   0.866   1.031 -0.3606 -1.5466 -0.1515
  184MOL    C5622382   3.874   0.850   1.196  0.9052  0.4635  0.5792
  184MOL    C5722383   3.881   0.693   1.195 -0.0117 -0.1781  0.1657
  184MOL    F5822384   4.000   0.653   1.225 -0.5362  0.2917  1.0360
  184MOL    H5922385   3.855   0.883   1.298 -0.5679 -0.2968  0.5650
  184MOL    H6022386   3.799   0.884   1.124  2.2239  2.2512  0.0139
  184MOL    H6122387   3.868   0.646   1.097  0.2516  1.2078 -0.5484
  184MOL    C6222388   3.792   0.617   1.295  0.6387 -0.0048 -0.4173
  184MOL    C6322389   3.643   0.607   1.251  0.1976 -0.6328  0.6005
  184MOL    F6422390   3.637   0.541   1.130 -0.0182 -0.0155 -0.1379
  184MOL    H6522391   3.824   0.515   1.314 -0.8637 -0.2289  0.9312
  184MOL    H6622392   3.791   0.676   1.386 -2.1246  0.3336 -0.6362
  184MOL    H6722393   3.600   0.704   1.224  2.0760 -0.5701 -2.4146
  184MOL    C6822394   3.562   0.540   1.359 -0.0381  0.1384 -0.1349
  184MOL    C6922395   3.516   0.624   1.486  0.2884 -0.1549 -0.8253
  184MOL    F7022396   3.450   0.741   1.453 -0.2882  0.4218 -0.4771
  184MOL    H7122397   3.467   0.511   1.314  0.4233 -2.2382  0.4002
  184MOL    H7222398   3.609   0.444   1.379 -0.6892 -0.4888 -1.5189
  184MOL    H7322399   3.601   0.658   1.545  0.1320  0.7580 -1.1153
  184MOL    C7422400   3.433   0.549   1.583  0.4436 -0.3093 -0.4573
  184MOL    C7522401   3.493   0.424   1.646  0.2692 -1.1717  0.2161
  184MOL    F7622402   3.590   0.456   1.735 -0.1328  0.1734 -0.1349
  184MOL    H7722403   3.409   0.619   1.663 -2.0894 -1.1419 -0.4778
  184MOL    H7822404   3.341   0.533   1.527  0.6625  0.9816 -1.2039
  184MOL    H7922405   3.529   0.350   1.574 -1.0568 -2.1779  0.5651
  184MOL    C8022406   3.383   0.341   1.726  0.6928  0.8808 -0.1018
  184MOL    C8122407   3.264   0.280   1.648 -0.9290  0.2251  0.8110
  184MOL    F8222408   3.309   0.172   1.584 -0.5158 -0.3185  0.2651
  184MOL    H8322409   3.432   0.261   1.781  1.1954  1.4401  0.2762
  184MOL    H8422410   3.337   0.406   1.800 -0.7609 -0.2301 -0.0068
  184MOL    H8522411   3.234   0.363   1.584 -0.0789 -0.6028 -0.6863
  184MOL    C8622412   3.141   0.235   1.723 -0.0566 -0.2709 -0.8383
  184MOL    C8722413   3.084   0.337   1.820  0.2680  0.2403  0.5516
  184MOL    F8822414   3.077   0.459   1.771  0.1872  0.6208  0.2214
  184MOL    H8922415   3.064   0.210   1.650 -0.5119 -1.8905  0.1796
  184MOL    H9022416   3.162   0.138   1.768 -0.4717  0.4106  0.8465
  184MOL    H9122417   3.137   0.337   1.915  2.7798  1.7246 -0.7981
  184MOL    C9222418   2.943   0.291   1.870 -0.0096  0.3233 -0.8251
  184MOL    C9322419   2.864   0.386   1.970 -0.0452 -0.4968 -0.4083
  184MOL    F9422420   2.744   0.326   1.993 -0.6635  0.3692 -0.1978
  184MOL    H9522421   2.878   0.277   1.784 -2.9357 -0.2775  1.4121
  184MOL    H9622422   2.946   0.190   1.911 -0.2871 -0.5343 -2.8446
  184MOL    H9722423   2.839   0.487   1.938 -1.8474 -0.7318  0.2068
  184MOL    C9822424   2.937   0.403   2.114 -0.3833 -0.0250  0.1059
  184MOL    C9922425   2.948   0.270   2.200  0.0992 -0.4120 -0.6968
  184MOL   F10022426   3.038   0.195   2.139 -0.5759 -0.0403  0.1090
  184MOL   H10122427   3.039   0.439   2.100 -0.7096  2.2333  3.1147
  184MOL   H10222428   2.889   0.472   2.182  0.1019  0.0183  0.4106
  184MOL   H10322429   2.856   0.212   2.202 -0.0033 -0.2054  0.9927
  184MOL   C10422430   2.991   0.281   2.345  0.4749  0.0907 -0.4283
  184MOL   C10522431   2.885   0.333   2.439 -0.4342 -0.4837  0.0625
  184MOL   F10622432   2.793   0.242   2.463  0.2389  0.3026  0.3485
  184MOL   H10722433   3.020   0.183   2.384  1.4212  0.4999 -0.0893
  184MOL   H10822434   3.076   0.350   2.344  1.1222 -0.6835  0.4961
  184MOL   H10922435   2.842   0.418   2.386 -0.6200 -1.6607 -1.7362
  184MOL   C11022436   2.947   0.388   2.570  0.6777 -1.0777  0.3672
  184MOL   C11122437   2.839   0.436   2.665 -0.1029 -0.6485  0.3005
  184MOL   F11222438   2.893   0.469   2.781  0.2728 -0.2670  0.2642
  184MOL   H11322439   2.989   0.298   2.615 -1.5891 -1.6898  1.3398
  184MOL   H11422440   3.022   0.465   2.551  2.3169 -2.7932 -0.2481
  184MOL   H11522441   2.768   0.359   2.694  0.7203 -1.5152  0.0479
  184MOL   C11622442   2.755   0.553   2.609  1.0342 -0.6195  0.0249
  184MOL   C11722443   2.679   0.626   2.726  0.2944 -0.8627 -0.0833
  184MOL   F11822444   2.586   0.554   2.781  0.0687  0.3319 -0.0409
  184MOL   H11922445   2.819   0.617   2.548 -1.6230  0.0143 -2.1915
  184MOL   H12022446   2.687   0.517   2.531  1.4222 -1.7383  0.1905
  184MOL   H12122447   2.633   0.721   2.700 -0.3059 -0.7440  1.3677
  184MOL   H12222448   2.747   0.655   2.807 -0.7902  1.5872 -0.0067
  185MOL     C122449   2.710   2.963   6.721  0.3217 -0.2883  0.5745
  185MOL     C222450   2.652   3.009   6.854 -0.6348  0.1054  0.2452
  185MOL     F322451   2.626   2.906   6.934  0.7562 -0.0615 -0.5508
  185MOL     H422452   2.694   3.042   6.648  0.7530 -1.9196 -1.3666
  185MOL     H522453   2.660   2.873   6.685  0.1339 -0.3978  1.1098
  185MOL     H622454   2.552   3.052   6.843 -0.4433  0.6906  0.7529
  185MOL     H722455   2.816   2.939   6.725  0.8220  1.2200 -2.1209
  185MOL     C822456   2.754   3.103   6.922  0.2784 -0.6391 -0.0855
  185MOL     C922457   2.710   3.180   7.055 -0.2661 -0.1699  0.2994
  185MOL    F1022458   2.793   3.285   7.078 -0.2100 -0.1106  0.4831
  185MOL    H1122459   2.844   3.045   6.942 -1.5600 -2.6904  2.5342
  185MOL    H1222460   2.783   3.175   6.846 -1.8429  0.9568  0.5460
  185MOL    H1322461   2.718   3.118   7.145  0.7314  0.9770  1.0154
  185MOL    C1422462   2.581   3.248   7.051  0.7394  0.3506  1.0048
  185MOL    C1522463   2.547   3.298   7.198 -0.2686 -0.5588  0.8091
  185MOL    F1622464   2.455   3.397   7.186 -0.0027  0.0574 -0.2125
  185MOL    H1722465   2.603   3.331   6.984  0.1009  1.8130  2.5705
  185MOL    H1822466   2.504   3.190   7.001  0.8498 -0.0352  1.2876
  185MOL    H1922467   2.630   3.351   7.245 -0.0063 -0.7220  0.5390
  185MOL    C2022468   2.494   3.190   7.291 -0.1814  0.7037  0.2668
  185MOL    C2122469   2.453   3.241   7.425  0.3659 -0.0166  0.6319
  185MOL    F2222470   2.375   3.146   7.479  0.1015 -0.1251  0.2152
  185MOL    H2322471   2.407   3.144   7.244 -0.8683  0.6107  1.5995
  185MOL    H2422472   2.572   3.115   7.304  0.7440  1.2536 -1.9438
  185MOL    H2522473   2.385   3.326   7.415 -0.8273 -1.0879 -0.6918
  185MOL    C2622474   2.566   3.274   7.527  0.8000  0.1132  0.3573
  185MOL    C2722475   2.532   3.263   7.676 -0.3367  0.8301 -0.4234
  185MOL    F2822476   2.645   3.311   7.738 -0.0988  0.3271  0.5367
  185MOL    H2922477   2.650   3.208   7.506  0.6787 -0.6885  2.3217
  185MOL    H3022478   2.604   3.374   7.506 -0.8707  1.0996  1.9116
  185MOL    H3122479   2.522   3.158   7.700 -0.4922  0.9245 -0.0730
  185MOL    C3222480   2.408   3.343   7.710  0.1127 -0.4951  0.3383
  185MOL    C3322481   2.284   3.261   7.759 -0.6436  0.7209  0.2222
  185MOL    F3422482   2.311   3.217   7.889 -0.0512 -0.6318  0.2322
  185MOL    H3522483   2.439   3.415   7.785 -1.5380  0.7614 -0.1383
  185MOL    H3622484   2.372   3.404   7.627  0.7456  0.4122  0.7220
  185MOL    H3722485   2.271   3.166   7.706 -3.8266  1.4977 -0.4818
  185MOL    C3822486   2.149   3.336   7.753 -0.4600  0.7511 -0.0916
  185MOL    C3922487   2.094   3.379   7.613 -0.2228 -0.1015 -0.5428
  185MOL    F4022488   2.048   3.275   7.551  0.3388 -0.7107  0.0002
  185MOL    H4122489   2.072   3.287   7.813 -0.9621  0.7163 -0.7497
  185MOL    H4222490   2.177   3.424   7.811 -1.4050 -0.0350  1.5916
  185MOL    H4322491   2.167   3.426   7.547  1.1744 -1.0991  0.2636
  185MOL    C4422492   1.976   3.474   7.625  0.0969  0.2711  0.1535
  185MOL    C4522493   1.940   3.542   7.491 -0.4135 -1.2550  0.0394
  185MOL    F4622494   1.874   3.459   7.412  0.0116 -0.3290 -0.0663
  185MOL    H4722495   1.893   3.422   7.673  1.8205 -2.2282  0.4967
  185MOL    H4822496   1.996   3.550   7.700 -3.4891  0.1927  1.2699
  185MOL    H4922497   2.030   3.568   7.435 -0.7245  0.3148  0.2402
  185MOL    C5022498   1.864   3.676   7.515  0.0046  0.0290  1.0667
  185MOL    C5122499   1.859   3.768   7.401  0.1551  0.1623 -0.2527
  185MOL    F5222500   1.795   3.704   7.310  0.0203  0.1877  0.1287
  185MOL    H5322501   1.765   3.648   7.549 -0.3393 -1.4282 -1.0426
  185MOL    H5422502   1.909   3.722   7.603  0.7931  1.9276 -0.2864
  185MOL    H5522503   1.958   3.793   7.363 -0.8867  1.2447 -2.3325
  185MOL    C5622504   1.776   3.895   7.432  0.3319 -0.0045  0.4835
  185MOL    C5722505   1.837   4.024   7.369  0.2204  0.2236  0.1885
  185MOL    F5822506   1.959   4.042   7.419  0.7000 -0.1415 -0.6603
  185MOL    H5922507   1.670   3.887   7.409  0.3378  1.7519 -0.2521
  185MOL    H6022508   1.768   3.910   7.540  0.7494 -0.1737  0.5376
  185MOL    H6122509   1.781   4.114   7.393 -0.7316 -0.5592  0.9687
  185MOL    C6222510   1.855   4.013   7.212  0.7993 -0.2727 -0.5244
  185MOL    C6322511   1.720   4.017   7.132 -0.5689  0.2416 -0.2287
  185MOL    F6422512   1.686   4.144   7.124  0.2090 -0.0101 -0.1937
  185MOL    H6522513   1.912   4.100   7.180 -0.0266  0.5374  0.1575
  185MOL    H6622514   1.916   3.925   7.193 -0.2294 -1.5003  1.7343
  185MOL    H6722515   1.635   3.967   7.180 -0.0677  1.5030  2.0703
  185MOL    C6822516   1.729   3.987   6.982 -0.2908 -0.0961  0.6011
  185MOL    C6922517   1.753   3.839   6.947  0.3451 -0.3839  0.0260
  185MOL    F7022518   1.672   3.759   7.009  0.4909  0.2300  0.1506
  185MOL    H7122519   1.639   4.019   6.929  0.3687 -0.8610 -0.9961
  185MOL    H7222520   1.808   4.044   6.933  1.0253  0.0939  2.8660
  185MOL    H7322521   1.854   3.812   6.976  2.4713  1.4078 -5.0747
  185MOL    C7422522   1.734   3.825   6.797 -0.1325  0.0752  0.5309
  185MOL    C7522523   1.764   3.687   6.738 -0.6355  0.2093 -0.4148
  185MOL    F7622524   1.661   3.596   6.765 -0.0420  0.2190  0.8138
  185MOL    H7722525   1.631   3.845   6.766 -1.0063 -1.4043  2.3861
  185MOL    H7822526   1.794   3.895   6.738  1.3112 -1.9144 -0.4096
  185MOL    H7922527   1.851   3.651   6.793  1.3880  1.2746 -2.8451
  185MOL    C8022528   1.792   3.695   6.585 -0.0893  0.4046 -0.3266
  185MOL    C8122529   1.669   3.720   6.504 -0.2546  0.2615  0.4473
  185MOL    F8222530   1.630   3.847   6.511  0.0569  0.1672  0.1241
  185MOL    H8322531   1.878   3.758   6.564 -0.1702  0.2805 -1.0495
  185MOL    H8422532   1.830   3.597   6.555 -1.2880  0.3114 -1.5880
  185MOL    H8522533   1.590   3.648   6.527  0.3860 -0.2212  1.1293
  185MOL    C8622534   1.675   3.683   6.357 -0.1567  0.1824  0.3060
  185MOL    C8722535   1.742   3.777   6.249 -0.2303  0.6384 -0.8015
  185MOL    F8822536   1.874   3.774   6.287 -0.3828 -0.0231  0.1852
  185MOL    H8922537   1.711   3.580   6.348  0.2810  0.3817 -0.3497
  185MOL    H9022538   1.573   3.683   6.321 -0.0570 -0.8412  0.0210
  185MOL    H9122539   1.712   3.881   6.250 -0.2343  0.6435 -1.1941
  185MOL    C9222540   1.736   3.712   6.104 -0.1142 -0.0134  0.1938
  185MOL    C9322541   1.809   3.791   5.995 -0.1464 -0.5635 -0.6548
  185MOL    F9422542   1.919   3.849   6.039  0.5569 -0.1298 -0.4869
  185MOL    H9522543   1.778   3.611   6.113 -3.6741 -1.5464  0.5972
  185MOL    H9622544   1.633   3.706   6.070  0.5039 -1.8935 -1.4592
  185MOL    H9722545   1.743   3.871   5.963  1.0666  1.0212  0.7003
  185MOL    C9822546   1.851   3.707   5.882  0.3743 -0.4942 -0.0550
  185MOL    C9922547   1.740   3.640   5.802 -0.8548  0.2302 -0.2518
  185MOL   F10022548   1.688   3.539   5.868 -0.5367  0.5414  0.7625
  185MOL   H10122549   1.915   3.775   5.826  1.5431 -0.1983  1.5957
  185MOL   H10222550   1.912   3.633   5.935 -1.7664 -1.5714  0.9573
  185MOL   H10322551   1.794   3.580   5.728 -0.6513  2.8900 -2.3314
  185MOL   C10422552   1.620   3.726   5.749 -0.1022 -0.3715  0.2040
  185MOL   C10522553   1.649   3.815   5.633 -0.0636 -0.9597  0.1242
  185MOL   F10622554   1.689   3.738   5.532 -0.0673  0.6016 -0.3594
  185MOL   H10722555   1.538   3.657   5.727 -0.5831  0.6001 -1.1169
  185MOL   H10822556   1.581   3.795   5.824  1.2089  1.3769 -0.6798
  185MOL   H10922557   1.736   3.881   5.639 -0.0351 -1.0479  0.7206
  185MOL   C11022558   1.523   3.896   5.595 -0.4859  0.8204  0.4872
  185MOL   C11122559   1.452   3.987   5.702  0.0549 -0.6405  0.5801
  185MOL   F11222560   1.542   4.067   5.760 -0.2957 -0.6958 -0.2014
  185MOL   H11322561   1.553   3.963   5.514 -2.6503 -1.0032 -1.9281
  185MOL   H11422562   1.458   3.816   5.558 -0.7430  1.1714  0.1685
  185MOL   H11522563   1.417   3.925   5.785 -0.0722  1.9664  2.5177
  185MOL   C11622564   1.328   4.066   5.656 -0.7079 -0.3533 -0.2528
  185MOL   C11722565   1.354   4.179   5.552 -0.4382 -0.1516  0.0877
  185MOL   F11822566   1.363   4.124   5.429  0.1251 -0.0962 -0.1813
  185MOL   H11922567   1.251   3.997   5.622  1.4919 -1.8304 -2.3899
  185MOL   H12022568   1.283   4.114   5.743  2.9711  2.0545  0.3962
  185MOL   H12122569   1.446   4.230   5.578 -0.1873 -0.2710 -0.5519
  185MOL   H12222570   1.276   4.255   5.548 -0.7690 -0.4017  1.4146
  186MOL     C122571   3.408   1.863   4.567 -0.5885 -0.0198  0.4133
  186MOL     C222572   3.486   1.733   4.569 -0.0791 -0.7929  0.3848
  186MOL     F322573   3.617   1.776   4.561 -0.3402  0.0874 -0.4232
  186MOL     H422574   3.302   1.844   4.584 -0.9992  0.0336 -1.9657
  186MOL     H522575   3.412   1.909   4.468  3.2422 -0.1880  0.4280
  186MOL     H622576   3.450   1.670   4.488 -2.3893  0.3526  0.4698
  186MOL     H722577   3.440   1.932   4.646  0.6164  0.8943 -0.8446
  186MOL     C822578   3.479   1.665   4.708  0.2571  0.4663 -0.1562
  186MOL     C922579   3.557   1.526   4.716 -0.2288  0.2782 -0.1508
  186MOL    F1022580   3.563   1.497   4.849 -0.4333  0.6789  0.3558
  186MOL    H1122581   3.519   1.725   4.790 -1.0177  1.5665 -0.3195
  186MOL    H1222582   3.374   1.652   4.734  0.1760  2.4940  0.6258
  186MOL    H1322583   3.655   1.531   4.669 -0.5014 -2.5639 -1.0744
  186MOL    C1422584   3.488   1.415   4.647 -0.8462  0.2936 -0.0151
  186MOL    C1522585   3.568   1.288   4.616  0.1190 -0.1931  0.2026
  186MOL    F1622586   3.650   1.260   4.721  0.4649 -0.0571 -0.2458
  186MOL    H1722587   3.411   1.378   4.716 -2.0516 -0.0642 -1.5204
  186MOL    H1822588   3.433   1.450   4.560 -0.7396 -0.2365 -0.2997
  186MOL    H1922589   3.644   1.308   4.541  0.6758 -1.0405  0.5313
  186MOL    C2022590   3.480   1.164   4.572 -0.0636  0.3565 -0.3515
  186MOL    C2122591   3.386   1.183   4.453  0.1823  0.4774  0.3923
  186MOL    F2222592   3.455   1.150   4.345  0.0238  0.0516 -0.3052
  186MOL    H2322593   3.543   1.078   4.550 -0.4336 -0.1609  0.5998
  186MOL    H2422594   3.423   1.139   4.661 -3.1600  0.7868 -2.1319
  186MOL    H2522595   3.346   1.284   4.444  0.2021  0.5568  1.1346
  186MOL    C2622596   3.263   1.082   4.478 -0.1022  0.3031 -0.5108
  186MOL    C2722597   3.145   1.106   4.379  0.3008 -0.2195 -0.4424
  186MOL    F2822598   3.180   1.077   4.252  0.5224  0.1778  0.4408
  186MOL    H2922599   3.305   0.981   4.478 -0.4530  0.1546  0.7148
  186MOL    H3022600   3.230   1.098   4.580  4.3885 -1.2614  1.3026
  186MOL    H3122601   3.122   1.212   4.386  0.7050 -0.0860 -1.0192
  186MOL    C3222602   3.022   1.014   4.410  0.1307 -0.5928 -0.2222
  186MOL    C3322603   2.958   1.032   4.549 -0.3139 -0.4431 -0.0820
  186MOL    F3422604   2.877   1.134   4.553  0.3417  0.1496  0.3284
  186MOL    H3522605   2.945   1.023   4.334  0.0129 -1.5343 -0.2197
  186MOL    H3622606   3.051   0.909   4.413  0.8435 -0.3440  2.5681
  186MOL    H3722607   3.039   1.051   4.618 -0.4856  0.2795 -0.0744
  186MOL    C3822608   2.886   0.906   4.592  0.4501  0.5817 -0.4269
  186MOL    C3922609   2.962   0.816   4.690 -0.4575  0.2556  0.3937
  186MOL    F4022610   3.082   0.770   4.660  0.2789 -0.4048 -0.0912
  186MOL    H4122611   2.800   0.947   4.645  1.3696  0.4430  1.2219
  186MOL    H4222612   2.849   0.841   4.513 -0.2548 -0.2266  0.5358
  186MOL    H4322613   2.900   0.727   4.706  0.2492 -0.3708 -0.3400
  186MOL    C4422614   2.988   0.890   4.826  0.3240 -0.6953  0.0028
  186MOL    C4522615   3.006   0.795   4.952  0.1769 -0.3970 -0.0471
  186MOL    F4622616   3.060   0.867   5.049  0.2614  0.3580 -0.2694
  186MOL    H4722617   3.074   0.954   4.807 -0.2179 -0.1075 -0.5118
  186MOL    H4822618   2.906   0.961   4.838  0.0989 -0.5787 -2.0826
  186MOL    H4922619   3.076   0.714   4.930 -0.0463 -0.7764  0.6355
  186MOL    C5022620   2.865   0.746   4.986  0.2430  0.0091 -0.3342
  186MOL    C5122621   2.856   0.669   5.121 -0.1597  0.1483 -0.1108
  186MOL    F5222622   2.729   0.654   5.169 -0.7688  0.0222  0.1797
  186MOL    H5322623   2.793   0.828   4.981 -1.6902 -1.2341  4.3268
  186MOL    H5422624   2.837   0.670   4.914  1.3202 -1.4114  0.7148
  186MOL    H5522625   2.904   0.727   5.201 -0.2286 -0.7344  0.5798
  186MOL    C5622626   2.919   0.528   5.120  0.0272  0.3855  0.0361
  186MOL    C5722627   2.962   0.465   5.253 -0.0429 -0.1693 -0.0196
  186MOL    F5822628   3.007   0.337   5.240 -0.0541  0.2316  0.0168
  186MOL    H5922629   2.843   0.468   5.070  0.1144 -1.5144  2.0788
  186MOL    H6022630   3.006   0.503   5.058  1.0072 -0.0515  1.5533
  186MOL    H6122631   2.873   0.452   5.314 -0.0981 -1.0723 -0.2724
  186MOL    C6222632   3.075   0.553   5.325  0.2281  0.3577 -0.6213
  186MOL    C6322633   3.207   0.578   5.248  0.7857 -0.2157  0.7956
  186MOL    F6422634   3.197   0.671   5.154 -0.0947 -0.3403  0.1020
  186MOL    H6522635   3.034   0.648   5.359  2.9228  0.1675  3.4799
  186MOL    H6622636   3.096   0.497   5.416 -0.4794 -0.5987 -1.0384
  186MOL    H6722637   3.238   0.488   5.194  0.9788 -0.8419  1.9282
  186MOL    C6822638   3.330   0.612   5.331 -0.3020  0.8313 -0.4408
  186MOL    C6922639   3.462   0.587   5.254  0.2029 -0.0718 -0.0881
  186MOL    F7022640   3.479   0.702   5.185  0.5641  0.1272 -0.2380
  186MOL    H7122641   3.318   0.714   5.367  0.1910  0.7462 -0.0206
  186MOL    H7222642   3.320   0.552   5.421  0.2940  3.6950  1.5674
  186MOL    H7322643   3.452   0.494   5.198 -0.3696 -0.4176  0.5862
  186MOL    C7422644   3.582   0.563   5.352 -0.0364 -0.5476 -0.7199
  186MOL    C7522645   3.614   0.420   5.375 -0.2296  0.4015 -0.4521
  186MOL    F7622646   3.679   0.349   5.282 -0.1879  0.2448  0.0837
  186MOL    H7722647   3.677   0.608   5.325 -0.1112  0.8591  1.2399
  186MOL    H7822648   3.559   0.613   5.447 -1.1307  1.5363 -2.0428
  186MOL    H7922649   3.521   0.364   5.381  1.7838 -3.0830  0.0762
  186MOL    C8022650   3.667   0.394   5.520  0.0096  0.1300  0.2667
  186MOL    C8122651   3.564   0.434   5.629  0.0200 -0.2882  0.1105
  186MOL    F8222652   3.488   0.324   5.636 -0.6877  0.3047  0.2029
  186MOL    H8322653   3.690   0.288   5.533  2.6025  0.4769 -1.0899
  186MOL    H8422654   3.756   0.455   5.535  0.0807  0.3626 -1.0007
  186MOL    H8522655   3.501   0.521   5.614  1.2258  0.5296 -0.3025
  186MOL    C8622656   3.620   0.462   5.770 -0.6864 -0.3982  0.4711
  186MOL    C8722657   3.687   0.351   5.834 -0.2995  0.3675  0.3029
  186MOL    F8822658   3.769   0.397   5.928 -0.4536 -0.2817 -0.3182
  186MOL    H8922659   3.694   0.541   5.757 -0.5285 -0.6541 -0.1694
  186MOL    H9022660   3.547   0.502   5.841 -0.0843 -1.5791  1.7966
  186MOL    H9122661   3.751   0.292   5.769 -1.4547  2.1948 -2.5511
  186MOL    C9222662   3.595   0.253   5.916  0.3507 -0.2705 -0.7951
  186MOL    C9322663   3.656   0.130   5.990  0.4869 -0.1477  0.0025
  186MOL    F9422664   3.760   0.172   6.067  0.2949  0.1134 -0.5018
  186MOL    H9522665   3.558   0.319   5.995  0.9781  0.5572 -1.1847
  186MOL    H9622666   3.507   0.226   5.858  1.0406 -2.0877 -1.0339
  186MOL    H9722667   3.707   0.065   5.919  0.8184  1.3058 -1.1221
  186MOL    C9822668   3.550   0.052   6.070 -1.0237 -0.2513 -0.2064
  186MOL    C9922669   3.615   7.943   6.147  0.4604 -0.2147  0.7054
  186MOL   F10022670   3.643   7.978   6.273 -0.0079  0.1261 -0.0196
  186MOL   H10122671   3.484   0.114   6.130  0.6305  1.2995  0.0517
  186MOL   H10222672   3.496   0.009   5.985 -1.3677  1.1137 -0.6806
  186MOL   H10322673   3.708   7.911   6.100  0.8171 -0.7654  1.7813
  186MOL   C10422674   3.538   7.809   6.156  0.1104  0.2643 -0.0586
  186MOL   C10522675   3.551   7.728   6.026  0.6228 -0.3657 -0.2166
  186MOL   F10622676   3.678   7.697   6.001 -0.0958  0.3628  0.0486
  186MOL   H10722677   3.581   7.749   6.236  1.7245  2.1186  0.5081
  186MOL   H10822678   3.437   7.843   6.177 -0.2307 -0.1376 -1.0147
  186MOL   H10922679   3.541   7.786   5.935  2.4900  1.8802  0.9305
  186MOL   C11022680   3.463   7.601   6.012 -0.1622 -0.4633  0.0661
  186MOL   C11122681   3.483   7.498   6.127 -0.3192  0.2767 -0.4014
  186MOL   F11222682   3.410   7.541   6.229 -0.2908  0.1403  0.6905
  186MOL   H11322683   3.358   7.628   6.009 -0.6049 -1.9105  1.7343
  186MOL   H11422684   3.487   7.556   5.916 -1.0651  3.0087 -1.8607
  186MOL   H11522685   3.587   7.491   6.162 -0.2739 -0.4401 -0.6747
  186MOL   C11622686   3.433   7.355   6.097 -0.6275  0.4639 -0.2146
  186MOL   C11722687   3.454   7.262   6.225  0.0999 -0.0104  0.4395
  186MOL   F11822688   3.581   7.228   6.238  0.3306 -0.4525 -0.1234
  186MOL   H11922689   3.326   7.349   6.080 -0.5472 -0.6571 -0.3037
  186MOL   H12022690   3.486   7.316   6.011  0.4239  1.5380 -0.0744
  186MOL   H12122691   3.410   7.165   6.202 -2.1363  1.3113 -0.9821
  186MOL   H12222692   3.422   7.287   6.326 -0.9484 -2.1144  0.6729
  187MOL     C122693   5.520   7.730   7.865  0.0503  0.0166  0.5691
  187MOL     C222694   5.378   7.789   7.886 -0.8899 -0.3744  0.2193
  187MOL     F322695   5.329   7.829   7.770  0.0760  0.3553  0.0631
  187MOL     H422696   5.600   7.792   7.825 -0.6376 -0.0590 -0.9527
  187MOL     H522697   5.519   7.648   7.793 -1.3153  1.1299 -0.6983
  187MOL     H622698   5.376   7.876   7.951 -0.7208  0.1794 -0.5034
  187MOL     H722699   5.570   7.683   7.949  3.1622  0.0494 -1.1816
  187MOL     C822700   5.272   7.686   7.924 -0.3408 -0.4471  0.1391
  187MOL     C922701   5.128   7.750   7.928  0.1539  0.7968  0.6286
  187MOL    F1022702   5.051   7.647   7.935 -0.3411  0.2271  0.1020
  187MOL    H1122703   5.263   7.605   7.852  0.5921 -0.9613  0.5898
  187MOL    H1222704   5.309   7.639   0.012  0.0121  1.2164  0.8853
  187MOL    H1322705   5.107   7.811   7.840 -0.2918 -1.5242 -0.9038
  187MOL    C1422706   5.103   7.832   0.056  0.4062  0.4813 -0.2016
  187MOL    C1522707   4.956   7.885   0.067 -0.6069 -0.0468 -0.7713
  187MOL    F1622708   4.873   7.782   0.090  0.5591  0.0590 -0.2174
  187MOL    H1722709   5.120   7.776   0.148  0.9679 -0.5187 -0.9044
  187MOL    H1822710   5.166   7.921   0.052  1.6736 -0.4321 -1.1310
  187MOL    H1922711   4.923   7.934   7.978 -2.1552  1.9880  0.8206
  187MOL    C2022712   4.942   7.985   0.181  0.1208 -0.3537 -0.0864
  187MOL    C2122713   4.815   0.061   0.190  0.0233  1.0580 -0.3162
  187MOL    F2222714   4.833   0.146   0.290 -0.3529 -0.2944 -0.1408
  187MOL    H2322715   4.951   7.915   0.264 -2.1138 -1.8149 -1.0148
  187MOL    H2422716   5.026   0.052   0.177 -0.1717  0.1531  2.0638
  187MOL    H2522717   4.745   7.992   0.233  0.9773  0.7544  0.7401
  187MOL    C2622718   4.756   0.128   0.067  0.3484  0.7039 -0.1168
  187MOL    C2722719   4.628   0.221   0.097  0.5435  0.3791  0.7902
  187MOL    F2822720   4.568   0.249   7.980  0.6762 -0.1015 -0.3331
  187MOL    H2922721   4.835   0.186   0.020  0.0520  0.7962 -0.5062
  187MOL    H3022722   4.717   0.054   7.999  1.3334 -0.7462  0.8323
  187MOL    H3122723   4.657   0.319   0.135  0.7877  0.6261 -0.0239
  187MOL    C3222724   4.522   0.149   0.168 -0.0693 -0.3014  0.4662
  187MOL    C3322725   4.430   0.252   0.232  0.5012 -0.1387 -0.6294
  187MOL    F3422726   4.372   0.321   0.134  0.3694  0.0294 -0.1178
  187MOL    H3522727   4.466   0.086   0.099 -1.0680  1.4691 -0.3652
  187MOL    H3622728   4.568   0.081   0.240 -0.1732 -1.3020 -0.3999
  187MOL    H3722729   4.491   0.319   0.294  1.6186 -0.8301 -0.9608
  187MOL    C3822730   4.319   0.178   0.321 -0.3184 -1.0246 -0.2760
  187MOL    C3922731   4.238   0.265   0.425 -0.3242 -0.4067 -0.3035
  187MOL    F4022732   4.173   0.356   0.351 -1.0920  0.4924 -0.6961
  187MOL    H4122733   4.243   0.132   0.258 -2.7772  1.3664  0.8076
  187MOL    H4222734   4.364   0.099   0.381  0.0181 -0.8206 -0.2608
  187MOL    H4322735   4.303   0.315   0.497  1.4255 -1.0822 -1.3845
  187MOL    C4422736   4.132   0.188   0.498 -0.4763  0.0820  0.3322
  187MOL    C4522737   4.081   0.264   0.627 -0.7818  0.4714  0.1158
  187MOL    F4622738   3.991   0.354   0.580  0.5331 -0.3656 -0.1753
  187MOL    H4722739   4.048   0.162   0.434  1.7067 -0.8541 -2.2516
  187MOL    H4822740   4.175   0.095   0.536  1.5189  0.2421 -1.4191
  187MOL    H4922741   4.159   0.320   0.679 -1.7479  1.6791  0.2959
  187MOL    C5022742   4.019   0.159   0.717 -0.5448 -0.1568  0.6786
  187MOL    C5122743   3.949   0.217   0.843  0.7401 -0.1472  0.0026
  187MOL    F5222744   3.853   0.127   0.882  0.2582  0.1915 -0.1366
  187MOL    H5322745   3.951   0.102   0.654  1.4549  0.5096 -2.2087
  187MOL    H5422746   4.093   0.089   0.754 -0.0066  0.0799  0.0648
  187MOL    H5522747   3.897   0.310   0.818  2.1282  0.0106 -2.4310
  187MOL    C5622748   4.050   0.250   0.951  0.1962  1.2309 -0.4617
  187MOL    C5722749   4.001   0.334   1.071 -0.1376  0.5900 -0.2406
  187MOL    F5822750   3.949   0.444   1.019 -0.5716 -0.4768 -0.1474
  187MOL    H5922751   4.103   0.158   0.974  2.1312  2.6456  0.9037
  187MOL    H6022752   4.130   0.306   0.903 -1.4715  4.1223 -0.0210
  187MOL    H6122753   4.094   0.362   1.122  0.0543  0.3456 -0.4604
  187MOL    C6222754   3.894   0.265   1.152 -0.1484  0.0489 -0.8088
  187MOL    C6322755   3.915   0.121   1.191 -0.5323 -0.2770 -0.5670
  187MOL    F6422756   4.017   0.106   1.278  0.4524  0.1838 -0.3839
  187MOL    H6522757   3.864   0.322   1.240 -0.6207 -1.5365  0.0776
  187MOL    H6622758   3.808   0.278   1.085 -1.7027 -2.2221  0.6905
  187MOL    H6722759   3.954   0.062   1.108 -0.1810 -0.6514 -0.1358
  187MOL    C6822760   3.788   0.058   1.251 -0.3353 -0.3830  0.0684
  187MOL    C6922761   3.682   0.007   1.153 -0.3103 -0.1246  0.6542
  187MOL    F7022762   3.757   7.946   1.068  0.5162 -0.2523  0.2978
  187MOL    H7122763   3.825   7.968   1.293  0.0954 -0.1882  0.1188
  187MOL    H7222764   3.743   0.117   1.331 -1.4952 -1.2660  0.0836
  187MOL    H7322765   3.648   0.103   1.115 -0.4109  0.0510  1.1855
  187MOL    C7422766   3.578   7.918   1.213  0.2616 -0.4479 -0.2072
  187MOL    C7522767   3.448   7.911   1.119  0.5174  0.0029  0.3824
  187MOL    F7622768   3.366   7.813   1.160 -0.0721  0.5974 -0.0360
  187MOL    H7722769   3.610   7.814   1.218  1.9742  0.0673 -0.3886
  187MOL    H7822770   3.549   7.960   1.310  3.2381  2.3133 -0.4522
  187MOL    H7922771   3.480   7.878   1.020 -2.5501 -2.5546  0.1720
  187MOL    C8022772   3.366   0.034   1.126  0.8005 -1.0381  0.6630
  187MOL    C8122773   3.246   0.044   1.029  0.1673 -0.0070 -0.0804
  187MOL    F8222774   3.181   0.159   1.032  0.5284  0.9545  0.3765
  187MOL    H8322775   3.333   0.050   1.228 -0.0374 -0.1805  0.2651
  187MOL    H8422776   3.423   0.127   1.121 -0.3196 -0.3647  0.0908
  187MOL    H8522777   3.174   7.969   1.053  1.1145 -2.1084 -3.7995
  187MOL    C8622778   3.281   0.015   0.877  0.1235 -0.1723 -0.1254
  187MOL    C8722779   3.367   0.123   0.819  0.1816 -0.4167 -0.1653
  187MOL    F8822780   3.493   0.112   0.866  0.0635 -0.4018  0.3709
  187MOL    H8922781   3.336   7.925   0.865  0.7758 -0.0673  1.7772
  187MOL    H9022782   3.187   7.991   0.829 -0.1867 -1.3873  1.1332
  187MOL    H9122783   3.316   0.219   0.831 -0.1866 -0.7505  1.0329
  187MOL    C9222784   3.383   0.132   0.667 -0.7242 -0.0524 -0.1967
  187MOL    C9322785   3.255   0.161   0.592 -0.8300  0.5327  1.0160
  187MOL    F9422786   3.221   0.282   0.629  0.1435 -0.8518  0.4809
  187MOL    H9522787   3.451   0.212   0.641 -1.8086  0.8783 -0.2224
  187MOL    H9622788   3.436   0.042   0.636  1.1450 -0.0588  2.8496
  187MOL    H9722789   3.169   0.101   0.620 -0.5767 -0.2339  0.1615
  187MOL    C9822790   3.273   0.158   0.436  0.0565  0.0331  0.0685
  187MOL    C9922791   3.148   0.161   0.342  0.2635  0.5026  0.1045
  187MOL   F10022792   3.089   0.283   0.370  0.0704  0.3535  0.1873
  187MOL   H10122793   3.352   0.228   0.410  0.7797 -0.7412  0.1498
  187MOL   H10222794   3.328   0.065   0.422  1.1786  0.7042 -0.0191
  187MOL   H10322795   3.084   0.080   0.377  0.2561  0.6696  0.4841
  187MOL   C10422796   3.169   0.156   0.192  0.7083 -0.3407 -0.4676
  187MOL   C10522797   3.249   0.030   0.135 -0.7293  0.4532  0.0161
  187MOL   F10622798   3.166   7.932   0.129 -0.4997  0.1260 -0.7813
  187MOL   H10722799   3.077   0.163   0.136  0.2225 -2.5295  0.0167
  187MOL   H10822800   3.227   0.244   0.164  0.8295 -0.1462  0.3607
  187MOL   H10922801   3.337   0.013   0.198 -1.7335 -3.7009  0.4394
  187MOL   C11022802   3.323   0.066   8.001 -0.0185 -0.1588 -0.2068
  187MOL   C11122803   3.424   0.185   8.000 -0.1123  0.5962 -0.1291
  187MOL   F11222804   3.524   0.169   0.080 -0.0223  0.4139  0.1106
  187MOL   H11322805   3.364   7.977   7.961 -1.3416 -1.1874  0.7304
  187MOL   H11422806   3.243   0.101   7.936 -0.0024 -0.4461 -0.3796
  187MOL   H11522807   3.365   0.268   0.033 -2.7027 -1.5520  0.7551
  187MOL   C11622808   3.479   0.214   7.857  0.1764  0.6983 -0.4699
  187MOL   C11722809   3.559   0.342   7.836  0.2462  0.3415 -0.2202
  187MOL   F11822810   3.633   0.337   7.725 -0.4479 -0.0055 -0.6908
  187MOL   H11922811   3.541   0.126   7.841 -1.1009 -0.4827  0.8797
  187MOL   H12022812   3.396   0.212   7.786 -0.5793  4.3801  0.2142
  187MOL   H12122813   3.627   0.358   7.920 -1.3723  1.4967  0.9043
  187MOL   H12222814   3.496   0.431   7.829 -0.7946 -0.4378 -0.8179
  188MOL     C122815   2.442   6.761   5.830 -0.0106 -0.2412 -0.6928
  188MOL     C222816   2.339   6.861   5.786  0.3728 -0.1142 -0.3315
  188MOL     F322817   2.345   6.871   5.656  0.0346 -0.6424  0.4250
  188MOL     H422818   2.439   6.672   5.767  0.7167  0.3502 -1.5752
  188MOL     H522819   2.435   6.722   5.931 -1.3157 -0.7906 -0.9858
  188MOL     H622820   2.356   6.959   5.829  1.0140 -0.0004 -0.8380
  188MOL     H722821   2.539   6.811   5.821  1.3404 -1.8975  3.3452
  188MOL     C822822   2.198   6.819   5.813 -0.3811 -0.4138 -0.1581
  188MOL     C922823   2.160   6.821   5.970 -0.2152 -0.4174 -0.0090
  188MOL    F1022824   2.175   6.941   6.024 -0.0314  0.0807  0.3126
  188MOL    H1122825   2.138   6.892   5.757 -0.2154 -0.5900 -0.5707
  188MOL    H1222826   2.180   6.720   5.771  3.4438 -0.8887 -0.8231
  188MOL    H1322827   2.212   6.743   6.027  0.6368 -0.6804 -1.1253
  188MOL    C1422828   2.010   6.795   6.000 -0.2283  0.4442  0.3596
  188MOL    C1522829   1.952   6.656   5.979  0.0675  0.2920  0.4505
  188MOL    F1622830   2.038   6.569   6.029 -0.4817 -0.0345  0.4728
  188MOL    H1722831   2.000   6.809   6.108  2.6867 -0.9902  0.8774
  188MOL    H1822832   1.953   6.862   5.936  0.4937 -0.5868 -1.4014
  188MOL    H1922833   1.937   6.641   5.872 -0.6223  0.9634  0.4430
  188MOL    C2022834   1.826   6.616   6.058 -0.4314 -0.1036  0.2150
  188MOL    C2122835   1.775   6.477   6.058 -0.4462 -0.5571 -0.0713
  188MOL    F2222836   1.859   6.394   6.123  0.3275  0.1836  0.1101
  188MOL    H2322837   1.841   6.623   6.165 -1.1335 -1.6244  0.4279
  188MOL    H2422838   1.751   6.692   6.033 -0.6194 -0.4549 -0.2995
  188MOL    H2522839   1.758   6.448   5.955  0.7382  1.1462 -0.7682
  188MOL    C2622840   1.641   6.469   6.134  0.7816 -0.2875  0.6097
  188MOL    C2722841   1.516   6.526   6.064 -0.1375 -0.4998 -0.4315
  188MOL    F2822842   1.492   6.479   5.942  0.3957  0.5025  0.2350
  188MOL    H2922843   1.615   6.366   6.162 -0.1299 -1.0761 -2.8229
  188MOL    H3022844   1.658   6.515   6.231 -1.1141 -1.2173  1.3988
  188MOL    H3122845   1.524   6.632   6.042 -1.4674 -0.0790  1.0518
  188MOL    C3222846   1.390   6.500   6.147 -0.1647  0.2469  0.1591
  188MOL    C3322847   1.257   6.561   6.092  0.1506  0.6799  0.0115
  188MOL    F3422848   1.234   6.501   5.973  0.0392 -0.2346  0.7486
  188MOL    H3522849   1.375   6.395   6.172  0.1861  0.2275  0.2890
  188MOL    H3622850   1.412   6.538   6.247  0.4795 -2.6824  1.1846
  188MOL    H3722851   1.279   6.665   6.067 -2.0971  1.3591  0.7071
  188MOL    C3822852   1.135   6.576   6.194  0.2986 -0.6067 -0.0155
  188MOL    C3922853   1.083   6.437   6.226 -0.6351  0.1642 -0.9710
  188MOL    F4022854   1.173   6.379   6.299 -0.6894  0.1979  0.0311
  188MOL    H4122855   1.168   6.613   6.291  1.5624 -0.4532 -0.4963
  188MOL    H4222856   1.066   6.655   6.164  0.7077  0.5003  1.9189
  188MOL    H4322857   1.087   6.373   6.138 -1.1580 -0.7488 -0.3297
  188MOL    C4422858   0.949   6.448   6.303 -0.2186  0.3775 -0.1443
  188MOL    C4522859   0.819   6.480   6.221 -0.5105  0.2003  0.5465
  188MOL    F4622860   0.802   6.380   6.136  0.4186  0.1865  0.2458
  188MOL    H4722861   0.924   6.354   6.353 -0.0378 -0.2880 -1.2976
  188MOL    H4822862   0.966   6.520   6.383 -0.7677  1.8390 -1.3243
  188MOL    H4922863   0.833   6.572   6.165  0.1785 -0.1868  0.0736
  188MOL    C5022864   0.695   6.477   6.301 -0.6307 -0.1869  0.3180
  188MOL    C5122865   0.682   6.570   6.421  0.0276  0.2955 -0.5141
  188MOL    F5222866   0.692   6.703   6.396 -0.0672  0.1858 -0.1169
  188MOL    H5322867   0.616   6.509   6.233  0.5091  0.4052 -0.7412
  188MOL    H5422868   0.667   6.376   6.331  0.0095 -0.2485  0.7138
  188MOL    H5522869   0.769   6.561   6.485 -0.2390 -1.7272 -0.3899
  188MOL    C5622870   0.547   6.541   6.493 -0.4054  0.6476  0.4721
  188MOL    C5722871   0.533   6.606   6.630 -0.5210 -0.7288  0.7166
  188MOL    F5822872   0.406   6.595   6.670  0.1146 -0.1377 -0.6828
  188MOL    H5922873   0.458   6.540   6.431 -0.7252  0.8521  0.9257
  188MOL    H6022874   0.558   6.434   6.512 -0.2687  0.7629  1.0482
  188MOL    H6122875   0.536   6.713   6.615 -1.2527 -0.8614 -0.4462
  188MOL    C6222876   0.618   6.549   6.748 -0.5915  0.0134 -0.0981
  188MOL    C6322877   0.595   6.629   6.877  0.7379 -0.0786 -0.2307
  188MOL    F6422878   0.656   6.563   6.973  0.4358 -0.6315  0.4791
  188MOL    H6522879   0.580   6.448   6.760  2.5829 -1.1274  1.0511
  188MOL    H6622880   0.724   6.541   6.724 -0.5867  0.9787 -0.4073
  188MOL    H6722881   0.491   6.626   6.909  0.8541 -1.9153  0.0492
  188MOL    C6822882   0.667   6.766   6.873  0.4132 -0.1458 -0.5265
  188MOL    C6922883   0.619   6.863   6.986  0.0411  0.2339 -0.4442
  188MOL    F7022884   0.677   6.819   7.097 -0.6302  0.1479 -0.9533
  188MOL    H7122885   0.774   6.755   6.855  0.3181 -0.0426 -1.1858
  188MOL    H7222886   0.625   6.816   6.785  0.5855  0.6827 -0.1460
  188MOL    H7322887   0.513   6.849   7.003  0.3289 -1.2689  0.1937
  188MOL    C7422888   0.656   7.012   6.974 -0.7936 -0.3527 -0.1765
  188MOL    C7522889   0.643   7.085   7.115  0.1421 -0.3634  0.2619
  188MOL    F7622890   0.697   7.206   7.112  0.2412 -0.4412  0.5183
  188MOL    H7722891   0.756   7.027   6.933 -0.2690  2.4398  1.9034
  188MOL    H7822892   0.596   7.055   6.895  0.1150 -2.0906 -1.8604
  188MOL    H7922893   0.696   7.030   7.193  2.4637  2.0804  0.4702
  188MOL    C8022894   0.496   7.112   7.160  0.6008 -0.4517 -1.0427
  188MOL    C8122895   0.477   7.178   7.301  0.3404 -0.5994  0.6868
  188MOL    F8222896   0.352   7.207   7.321  0.1309 -0.6803  0.0837
  188MOL    H8322897   0.433   7.155   7.082 -0.6557  2.7573  1.6255
  188MOL    H8422898   0.445   7.017   7.180  1.3971 -1.1095 -2.0473
  188MOL    H8522899   0.531   7.272   7.305  0.0274 -0.3946  0.0469
  188MOL    C8622900   0.517   7.085   7.420 -0.6930  0.1256 -0.6205
  188MOL    C8722901   0.449   6.945   7.436 -0.4102 -0.0171 -0.6342
  188MOL    F8822902   0.496   6.857   7.348  0.1971 -0.4293  0.3920
  188MOL    H8922903   0.623   7.061   7.423 -0.6590  0.2456 -0.8850
  188MOL    H9022904   0.509   7.149   7.508 -2.2941 -1.2160  0.2352
  188MOL    H9122905   0.344   6.957   7.407 -1.4067 -3.4249  1.3330
  188MOL    C9222906   0.446   6.886   7.578 -0.2732 -0.1044  0.3959
  188MOL    C9322907   0.589   6.863   7.637  0.1227 -0.9404  0.3576
  188MOL    F9422908   0.623   6.986   7.684  0.0168 -0.3342  0.4436
  188MOL    H9522909   0.391   6.964   7.631 -0.0175  0.1861  0.2357
  188MOL    H9622910   0.403   6.786   7.571  2.3585 -1.2159 -0.4607
  188MOL    H9722911   0.657   6.838   7.556  1.2413 -0.9187  1.2837
  188MOL    C9822912   0.596   6.756   7.751  0.0354  0.2682  0.6520
  188MOL    C9922913   0.594   6.616   7.694 -1.1028 -0.4338 -0.4656
  188MOL   F10022914   0.701   6.604   7.615  0.3491 -0.3503  0.0210
  188MOL   H10122915   0.687   6.760   7.810  0.7765  0.7955 -0.5093
  188MOL   H10222916   0.519   6.774   7.826  0.5054 -0.2522  1.2603
  188MOL   H10322917   0.507   6.600   7.630 -1.0625  0.3167 -0.7102
  188MOL   C10422918   0.590   6.498   7.798  0.0002  0.2393  0.9219
  188MOL   C10522919   0.579   6.359   7.745  0.4706  0.1818  1.1622
  188MOL   F10622920   0.635   6.271   7.833  0.1130  0.1887  0.1704
  188MOL   H10722921   0.687   6.488   7.845  0.3646 -2.5303 -0.3308
  188MOL   H10822922   0.505   6.512   7.865 -0.5630 -1.1949  0.5163
  188MOL   H10922923   0.630   6.346   7.650 -0.4049 -3.0622  1.0737
  188MOL   C11022924   0.428   6.312   7.716 -0.6152  0.2255 -0.5367
  188MOL   C11122925   0.421   6.170   7.654  0.5325  0.1055 -0.8081
  188MOL   F11222926   0.294   6.138   7.657 -0.2303 -0.2888  0.2638
  188MOL   H11322927   0.367   6.302   7.806 -0.2851 -1.3433 -0.4675
  188MOL   H11422928   0.383   6.383   7.647  0.2982  1.7231  0.3899
  188MOL   H11522929   0.473   6.091   7.708 -1.2457  0.6896  1.8336
  188MOL   C11622930   0.453   6.170   7.505  0.3926  0.1470  0.1300
  188MOL   C11722931   0.410   6.045   7.439  0.4874 -0.7930  0.9382
  188MOL   F11822932   0.474   6.037   7.322 -0.7269  0.0259  0.0112
  188MOL   H11922933   0.405   6.258   7.462  0.3822 -0.9052 -2.0830
  188MOL   H12022934   0.557   6.184   7.476 -0.1815  1.7140 -1.2440
  188MOL   H12122935   0.303   6.033   7.424  0.6950  0.0353 -1.4764
  188MOL   H12222936   0.448   5.959   7.494  2.9621 -0.8559 -0.7735
  189MOL     C122937   5.352   5.886   0.192  0.1963  0.2668 -0.7733
  189MOL     C222938   5.285   5.901   0.061  0.3201  0.3681  0.2272
  189MOL     F322939   5.366   5.898   7.960  0.3572  0.3579 -0.2646
  189MOL     H422940   5.390   5.785   0.201  0.7129  0.4781 -0.5916
  189MOL     H522941   5.289   5.903   0.279 -0.2378 -1.9202 -0.6278
  189MOL     H622942   5.239   6.000   0.060 -1.8089 -0.6261 -1.5252
  189MOL     H722943   5.428   5.964   0.188  2.2294 -1.5757  0.9190
  189MOL     C822944   5.178   5.789   0.039 -0.1117  0.0853  0.1710
  189MOL     C922945   5.089   5.808   7.919  0.2303  0.3609 -0.5510
  189MOL    F1022946   5.165   5.828   7.814 -0.2349 -0.0387  0.2208
  189MOL    H1122947   5.234   5.695   0.035  2.5660  1.6462  0.3954
  189MOL    H1222948   5.119   5.774   0.129 -0.3858  1.6301  0.2571
  189MOL    H1322949   5.042   5.906   7.935 -0.6917 -0.0383 -0.7450
  189MOL    C1422950   4.980   5.701   7.892 -0.0042  0.0920 -0.5506
  189MOL    C1522951   4.877   5.690   0.004 -0.4088 -0.6910  0.0357
  189MOL    F1622952   4.795   5.797   0.013  0.5151  0.2656 -0.3956
  189MOL    H1722953   4.928   5.710   7.797 -0.7736 -1.7626 -0.3319
  189MOL    H1822954   5.038   5.609   7.882  0.6677  0.4072  0.3161
  189MOL    H1922955   4.923   5.678   0.102 -1.3292  1.0712  0.6881
  189MOL    C2022956   4.783   5.572   7.993 -0.4679 -0.0822  0.5604
  189MOL    C2122957   4.662   5.558   0.081 -0.1968  0.7631  0.0183
  189MOL    F2222958   4.580   5.465   0.034 -0.0692  0.1288  0.3622
  189MOL    H2322959   4.742   5.572   7.892 -0.0921  1.4225  0.3938
  189MOL    H2422960   4.841   5.480   7.996 -2.1224 -1.1960 -0.6456
  189MOL    H2522961   4.593   5.642   0.071 -0.4262  0.4430 -1.1321
  189MOL    C2622962   4.701   5.539   0.225 -0.0735  0.2716  0.5475
  189MOL    C2722963   4.581   5.535   0.321 -0.0323  0.5999 -0.0633
  189MOL    F2822964   4.514   5.648   0.311 -0.6548  0.3001 -0.4715
  189MOL    H2922965   4.758   5.447   0.240 -1.6114 -1.3788 -3.1208
  189MOL    H3022966   4.768   5.619   0.257  0.4897  0.0234  0.0063
  189MOL    H3122967   4.619   5.541   0.423 -1.4172  3.3858  0.3480
  189MOL    C3222968   4.480   5.414   0.311 -0.0619  0.2619 -0.1348
  189MOL    C3322969   4.540   5.277   0.282  0.1016 -0.1498  0.0878
  189MOL    F3422970   4.625   5.255   0.382  0.4758  0.0658 -0.5595
  189MOL    H3522971   4.407   5.418   0.392 -2.4459 -0.1887 -2.2056
  189MOL    H3622972   4.419   5.424   0.221 -1.4741  1.1596  0.9081
  189MOL    H3722973   4.596   5.279   0.188  0.6890 -4.3456  0.2578
  189MOL    C3822974   4.439   5.161   0.298 -0.6014  0.1386 -0.4551
  189MOL    C3922975   4.448   5.043   0.206  0.7875 -0.1729  0.6828
  189MOL    F4022976   4.452   5.096   0.087  0.3537  0.2550 -0.9092
  189MOL    H4122977   4.436   5.123   0.401  1.0236  0.0624 -0.4233
  189MOL    H4222978   4.338   5.201   0.290 -1.1979 -1.4247 -0.8552
  189MOL    H4322979   4.353   4.992   0.220  0.8671 -0.3586  0.5451
  189MOL    C4422980   4.556   4.932   0.218  0.6136 -0.5142 -0.1929
  189MOL    C4522981   4.543   4.856   0.356  0.2890 -0.6884  0.1157
  189MOL    F4622982   4.422   4.812   0.369 -0.1293  0.0165  0.3421
  189MOL    H4722983   4.548   4.852   0.145  1.5974  0.7539 -1.7274
  189MOL    H4822984   4.652   4.979   0.196  0.3965 -1.5870 -3.6523
  189MOL    H4922985   4.552   4.935   0.430  1.5381  0.7909 -1.5607
  189MOL    C5022986   4.646   4.735   0.375  0.3228 -0.0143 -0.2485
  189MOL    C5122987   4.658   4.688   0.525 -0.1321 -0.0990  0.2491
  189MOL    F5222988   4.542   4.624   0.550  0.3264 -0.2472  0.3360
  189MOL    H5322989   4.623   4.656   0.302 -0.7267  1.4194 -1.4965
  189MOL    H5422990   4.740   4.775   0.339  0.0143 -0.0615 -1.1205
  189MOL    H5522991   4.666   4.774   0.591 -1.8345  0.4173 -0.2023
  189MOL    C5622992   4.779   4.587   0.548 -0.1409  0.1158  0.4466
  189MOL    C5722993   4.922   4.655   0.549  0.2546 -0.2769  0.0906
  189MOL    F5822994   4.937   4.708   0.671  0.2983  0.2306 -0.6777
  189MOL    H5922995   4.773   4.539   0.646  1.5902 -0.4838  0.2790
  189MOL    H6022996   4.757   4.510   0.473 -2.2501  1.5266 -0.4289
  189MOL    H6122997   4.919   4.732   0.472 -0.9534 -1.0901 -0.6960
  189MOL    C6222998   5.033   4.558   0.512 -0.0984 -0.1972  0.8248
  189MOL    C6322999   5.029   4.486   0.377  0.1531  0.4229 -0.2200
  189MOL    F6423000   4.997   4.578   0.280  0.1543 -0.1504  0.1554
  189MOL    H6523001   5.130   4.608   0.517  0.9673 -2.2983  1.6597
  189MOL    H6623002   5.021   4.493   0.599  0.8341  0.0984  1.1814
  189MOL    H6723003   4.940   4.424   0.370  0.7016 -0.2291 -1.7679
  189MOL    C6823004   5.161   4.413   0.347  1.0999 -0.2668  0.5958
  189MOL    C6923005   5.148   4.349   0.204  0.2364  0.3428 -0.6616
  189MOL    F7023006   5.217   4.427   0.123  0.3660  0.6303 -0.6934
  189MOL    H7123007   5.244   4.484   0.351  0.0082  1.1153 -0.5544
  189MOL    H7223008   5.187   4.339   0.422  1.4631 -0.7312  0.0036
  189MOL    H7323009   5.046   4.338   0.169  0.2271  1.6278 -1.0720
  189MOL    C7423010   5.195   4.201   0.204  0.2801  0.0574  0.4176
  189MOL    C7523011   5.082   4.112   0.275 -0.0821  0.5354 -0.1473
  189MOL    F7623012   4.979   4.112   0.190  0.0911  0.4220 -0.3239
  189MOL    H7723013   5.222   4.168   0.104  3.1486 -1.0753  1.5082
  189MOL    H7823014   5.283   4.191   0.267  0.8051  1.2463 -0.1096
  189MOL    H7923015   5.044   4.158   0.366  0.3478 -0.6336  0.6385
  189MOL    C8023016   5.130   3.968   0.290  0.1992 -0.3479 -0.8939
  189MOL    C8123017   5.218   3.934   0.423 -0.2635  0.1945  0.5812
  189MOL    F8223018   5.147   3.964   0.528  0.1695  0.3007 -0.2635
  189MOL    H8323019   5.038   3.912   0.304  1.3180 -1.7365  1.1216
  189MOL    H8423020   5.179   3.925   0.202 -1.6948 -1.0620 -1.6184
  189MOL    H8523021   5.306   3.998   0.428 -0.2189  0.1517  0.3397
  189MOL    C8623022   5.246   3.779   0.432  0.4497 -0.1859  0.1377
  189MOL    C8723023   5.317   3.738   0.563 -0.7298  0.0352  0.0540
  189MOL    F8823024   5.267   3.799   0.675  0.7395  0.2525 -0.2366
  189MOL    H8923025   5.149   3.730   0.420  0.7665 -1.0260  0.9535
  189MOL    H9023026   5.317   3.752   0.355  1.0762  1.2929  0.1959
  189MOL    H9123027   5.417   3.783   0.556 -0.1997 -1.3873 -2.2481
  189MOL    C9223028   5.323   3.585   0.597  0.0765  0.5503 -0.3233
  189MOL    C9323029   5.368   3.543   0.742  0.2242  0.2706  0.6425
  189MOL    F9423030   5.360   3.410   0.760 -0.6288  0.1635 -0.5966
  189MOL    H9523031   5.222   3.559   0.565 -0.0523 -0.0178  0.5154
  189MOL    H9623032   5.385   3.525   0.530 -0.1844  0.8037 -0.7872
  189MOL    H9723033   5.310   3.588   0.823 -0.8833 -1.2944  0.7309
  189MOL    C9823034   5.516   3.577   0.771  0.2503 -0.9079  0.6628
  189MOL    C9923035   5.569   3.531   0.909 -0.3229  0.1235  0.0464
  189MOL   F10023036   5.703   3.542   0.927 -0.0315 -0.0758 -0.1080
  189MOL   H10123037   5.583   3.528   0.700  0.1706 -0.5687  0.3545
  189MOL   H10223038   5.522   3.685   0.759  0.4672 -0.8589  1.2249
  189MOL   H10323039   5.552   3.424   0.917 -0.3860  0.0920 -0.5332
  189MOL   C10423040   5.509   3.602   1.028  0.4981  0.2717  0.4335
  189MOL   C10523041   5.542   3.747   1.034 -0.1776 -0.0577  0.1316
  189MOL   F10623042   5.459   3.822   0.962  0.3244 -0.1917  0.3430
  189MOL   H10723043   5.402   3.580   1.030  0.6311 -0.4170  0.2509
  189MOL   H10823044   5.550   3.548   1.113 -2.4749  0.4694  2.0549
  189MOL   H10923045   5.636   3.767   0.982  0.0983  2.9235  1.6951
  189MOL   C11023046   5.552   3.807   1.176 -0.1359  0.5405  0.1591
  189MOL   C11123047   5.420   3.830   1.256 -0.3437 -0.0387 -0.1375
  189MOL   F11223048   5.378   3.714   1.290  0.0559  0.4031 -0.1507
  189MOL   H11323049   5.624   3.743   1.226  1.0557  0.7383 -1.3017
  189MOL   H11423050   5.604   3.901   1.158 -3.2612  2.5583  1.1815
  189MOL   H11523051   5.349   3.874   1.186  0.0490  3.0151  1.2940
  189MOL   C11623052   5.435   3.926   1.379 -0.1898  0.5644 -0.2172
  189MOL   C11723053   5.445   4.074   1.334 -0.1004 -0.3348 -0.5040
  189MOL   F11823054   5.429   4.155   1.438  0.0602 -0.1517  0.0868
  189MOL   H11923055   5.345   3.908   1.438 -0.1264 -2.0808 -0.8638
  189MOL   H12023056   5.505   3.885   1.452 -0.5591  3.0224  1.5872
  189MOL   H12123057   5.377   4.099   1.253 -0.9930 -2.8096 -0.5833
  189MOL   H12223058   5.543   4.095   1.292  0.7406 -1.5803  0.7860
  190MOL     C123059   7.469   4.524   4.376 -0.5178 -0.2407  0.3453
  190MOL     C223060   7.404   4.607   4.271 -0.0688 -0.1201 -0.0632
  190MOL     F323061   7.277   4.618   4.317  0.0429 -0.1145 -0.2931
  190MOL     H423062   7.466   4.580   4.470  1.0657  1.8300 -0.7704
  190MOL     H523063   7.571   4.501   4.347  0.0067  0.2824  1.6931
  190MOL     H623064   7.403   4.541   4.185  0.3865  0.8062 -0.7810
  190MOL     H723065   7.423   4.427   4.393 -1.4117  0.3484  1.3717
  190MOL     C823066   7.463   4.747   4.229 -0.2417 -0.1750 -0.2132
  190MOL     C923067   7.403   4.794   4.091 -1.1675 -0.1429 -0.1328
  190MOL    F1023068   7.273   4.800   4.115 -0.2914  0.1657  0.6491
  190MOL    H1123069   7.432   4.820   4.303 -1.1540 -0.4172 -0.3478
  190MOL    H1223070   7.571   4.729   4.222 -0.4230 -1.7131  0.7307
  190MOL    H1323071   7.413   4.730   4.004 -0.7060  2.1397 -1.8273
  190MOL    C1423072   7.448   4.934   4.065 -0.4236  0.2942 -0.2011
  190MOL    C1523073   7.599   4.961   4.047  0.4968 -0.6893 -0.5973
  190MOL    F1623074   7.637   4.888   3.943  0.4505 -0.2355 -0.7844
  190MOL    H1723075   7.384   4.972   3.986  0.8357  1.5833 -0.6111
  190MOL    H1823076   7.416   4.995   4.150  0.3207 -0.4775  0.6544
  190MOL    H1923077   7.648   4.918   4.134  1.5789 -0.5975 -1.1532
  190MOL    C2023078   7.642   5.110   4.025 -0.4308 -0.4479 -0.2326
  190MOL    C2123079   7.797   5.121   4.017 -0.1794 -0.8539  0.6440
  190MOL    F2223080   7.838   5.052   3.910 -0.2331  0.0698  0.2969
  190MOL    H2323081   7.598   5.148   3.933 -0.0963  0.9574  0.1839
  190MOL    H2423082   7.591   5.173   4.098 -0.7582 -1.4057  0.3908
  190MOL    H2523083   7.844   5.073   4.103  1.0302  0.6628  0.8643
  190MOL    C2623084   7.848   5.267   4.023  0.7541 -0.4957  1.0217
  190MOL    C2723085   0.004   5.283   4.049  0.4340  0.4494  0.1771
  190MOL    F2823086   0.030   5.224   4.168 -0.2002  0.3768  0.4212
  190MOL    H2923087   7.824   5.324   3.933  1.4417 -1.7988  0.0001
  190MOL    H3023088   7.802   5.327   4.101  0.1976  1.2154 -0.5786
  190MOL    H3123089   0.032   5.387   4.069  1.7925 -0.1280  1.3815
  190MOL    C3223090   0.091   5.220   3.942 -0.4350 -1.0231 -0.5087
  190MOL    C3323091   0.237   5.233   3.982  0.0945 -0.2824 -0.3337
  190MOL    F3423092   0.302   5.141   3.907  0.5861 -0.3135 -0.7959
  190MOL    H3523093   0.065   5.114   3.942  0.3741 -1.2261 -1.8081
  190MOL    H3623094   0.068   5.265   3.846 -0.3272  0.7310  0.2608
  190MOL    H3723095   0.259   5.197   4.083  0.9133 -0.6677 -0.6380
  190MOL    C3823096   0.303   5.371   3.974  0.3999 -0.5865  0.2589
  190MOL    C3923097   0.450   5.384   4.024 -0.0602  0.2517 -1.1696
  190MOL    F4023098   0.463   5.347   4.150 -0.1009 -0.3483 -0.0941
  190MOL    H4123099   0.298   5.400   3.870  1.3476  0.5184  0.5077
  190MOL    H4223100   0.232   5.435   4.026  1.4917 -1.0884  2.4751
  190MOL    H4323101   0.475   5.489   4.031 -0.3569  0.3418 -1.4348
  190MOL    C4423102   0.553   5.305   3.936  0.4373 -0.0299  0.3729
  190MOL    C4523103   0.550   5.348   3.783  0.2229  0.0810 -0.0807
  190MOL    F4623104   0.570   5.474   3.787  0.1990  0.7526 -0.2846
  190MOL    H4723105   0.653   5.322   3.974 -0.0725 -0.2472  1.8554
  190MOL    H4823106   0.538   5.197   3.939 -0.3675 -0.0152 -2.1457
  190MOL    H4923107   0.455   5.328   3.734  0.2123 -1.3921  0.5103
  190MOL    C5023108   0.663   5.297   3.689 -0.1331 -0.0248 -0.2125
  190MOL    C5123109   0.645   5.145   3.658  0.4333  0.4895  0.0495
  190MOL    F5223110   0.544   5.120   3.577  0.0252 -0.4171 -0.4242
  190MOL    H5323111   0.663   5.352   3.596  0.5478  2.6428  1.3054
  190MOL    H5423112   0.762   5.306   3.734 -0.8712 -0.2730  1.5402
  190MOL    H5523113   0.622   5.084   3.745 -1.7992  0.9346 -0.2046
  190MOL    C5623114   0.767   5.098   3.583 -0.1216 -0.3134 -0.2460
  190MOL    C5723115   0.785   4.950   3.540 -0.0002 -0.6429  0.8200
  190MOL    F5823116   0.915   4.952   3.501  0.0289  0.4665 -0.1464
  190MOL    H5923117   0.789   5.167   3.501  2.1161  0.3736  0.8913
  190MOL    H6023118   0.855   5.130   3.638 -0.4534  1.3877 -0.6693
  190MOL    H6123119   0.716   4.926   3.459 -2.3695  2.4521  1.8454
  190MOL    C6223120   0.770   4.843   3.653 -0.2577  0.0226  0.3424
  190MOL    C6323121   0.798   4.696   3.612 -0.4221 -0.1625  0.2333
  190MOL    F6423122   0.921   4.678   3.581  0.1024 -0.1746 -0.3535
  190MOL    H6523123   0.833   4.868   3.738 -0.1089 -0.5617  0.4065
  190MOL    H6623124   0.668   4.857   3.690 -0.4478  0.3663 -0.2913
  190MOL    H6723125   0.743   4.690   3.519  0.6771  1.0164 -0.5175
  190MOL    C6823126   0.753   4.584   3.708  0.7799  0.2351 -0.1533
  190MOL    C6923127   0.599   4.547   3.702  0.3971 -0.0227 -0.1159
  190MOL    F7023128   0.578   4.512   3.576 -0.2051  0.2205 -0.1300
  190MOL    H7123129   0.803   4.491   3.683  1.0666  1.1761 -3.4323
  190MOL    H7223130   0.788   4.613   3.807 -0.1893 -0.6258  0.4479
  190MOL    H7323131   0.528   4.625   3.729 -1.5100 -0.1018 -4.5334
  190MOL    C7423132   0.571   4.415   3.774 -0.0620 -0.4235  0.1837
  190MOL    C7523133   0.539   4.429   3.925  0.7021 -0.8658 -0.1219
  190MOL    F7623134   0.422   4.493   3.939 -0.0047  0.3520  0.1938
  190MOL    H7723135   0.481   4.375   3.727 -0.4323  1.1533 -0.4979
  190MOL    H7823136   0.640   4.334   3.749 -0.6593 -0.4948 -1.3344
  190MOL    H7923137   0.615   4.497   3.964 -1.1200  1.5359 -0.6355
  190MOL    C8023138   0.536   4.296   4.001  0.3440  0.0868 -0.3968
  190MOL    C8123139   0.673   4.219   3.998  0.1730 -0.1110 -0.3895
  190MOL    F8223140   0.740   4.308   4.072 -0.3253 -0.1475  0.1537
  190MOL    H8323141   0.494   4.316   4.099 -1.9098  0.7873 -1.4765
  190MOL    H8423142   0.466   4.232   3.947 -2.0191  2.6244 -0.4818
  190MOL    H8523143   0.724   4.214   3.901  1.3937  0.1531  0.2182
  190MOL    C8623144   0.661   4.087   4.070 -0.3029 -0.0909  0.1495
  190MOL    C8723145   0.581   3.971   4.000 -0.1905  0.6288 -0.6186
  190MOL    F8823146   0.661   3.916   3.906  0.3349 -0.4458 -0.3452
  190MOL    H8923147   0.763   4.052   4.087  0.3415  0.7957 -1.7406
  190MOL    H9023148   0.627   4.113   4.170 -0.8756 -1.8622  0.4396
  190MOL    H9123149   0.495   4.015   3.949 -0.8740  0.9723  0.7970
  190MOL    C9223150   0.531   3.858   4.086  0.5692  0.1117  0.0546
  190MOL    C9323151   0.429   3.898   4.202  0.3673  0.1946 -0.0219
  190MOL    F9423152   0.316   3.950   4.158  0.2357  0.3481  0.5392
  190MOL    H9523153   0.488   3.780   4.023  2.4508  0.2620 -1.4621
  190MOL    H9623154   0.621   3.820   4.135  0.5155 -0.6886 -0.4497
  190MOL    H9723155   0.472   3.981   4.258 -2.0992 -0.2471  2.6224
  190MOL    C9823156   0.392   3.779   4.291 -0.6078  0.1355 -0.0879
  190MOL    C9923157   0.339   3.826   4.426  0.3625 -0.1008  0.3249
  190MOL   F10023158   0.302   3.722   4.493 -0.1460  0.1484 -0.5136
  190MOL   H10123159   0.314   3.722   4.242 -1.5945  1.4038 -0.0258
  190MOL   H10223160   0.472   3.710   4.316 -0.3191  0.3393 -0.4260
  190MOL   H10323161   0.246   3.879   4.406 -0.1786 -1.4838 -0.8567
  190MOL   C10423162   0.438   3.896   4.513  0.3726 -0.6442 -0.8690
  190MOL   C10523163   0.578   3.830   4.539 -0.2945  0.4555  0.7663
  190MOL   F10623164   0.647   3.855   4.430 -0.0719 -0.5511  0.0263
  190MOL   H10723165   0.452   4.003   4.497 -0.4366 -0.3814  0.1385
  190MOL   H10823166   0.381   3.895   4.605  2.2950  0.7419  0.3883
  190MOL   H10923167   0.572   3.722   4.529  0.7746  0.4293  0.3490
  190MOL   C11023168   0.651   3.888   4.658  0.3278 -0.0292 -0.6689
  190MOL   C11123169   0.607   3.816   4.788 -0.0460 -0.2805 -0.1874
  190MOL   F11223170   0.619   3.687   4.776  0.0318  0.1276 -0.6953
  190MOL   H11323171   0.757   3.886   4.634  0.5915 -1.5087  0.5141
  190MOL   H11423172   0.624   3.993   4.656  0.5826  0.0114 -3.7143
  190MOL   H11523173   0.500   3.828   4.806 -0.7881 -2.5877 -2.7019
  190MOL   C11623174   0.687   3.864   4.910 -0.7698 -0.5934 -0.0688
  190MOL   C11723175   0.634   3.796   5.042  0.4315 -0.3721 -0.2457
  190MOL   F11823176   0.726   3.831   5.132 -0.4955  0.4903 -0.5421
  190MOL   H11923177   0.794   3.841   4.905 -0.5669 -0.0067  1.3601
  190MOL   H12023178   0.695   3.973   4.910  0.4440 -0.6563 -1.7107
  190MOL   H12123179   0.639   3.687   5.037  1.2868 -0.2924 -1.2985
  190MOL   H12223180   0.535   3.828   5.075  0.6440  0.0285  0.0036
  191MOL     C123181   2.353   3.924   4.914 -0.0707 -0.5577  0.3955
  191MOL     C223182   2.220   3.972   4.850 -0.3477 -0.3193 -0.3751
  191MOL     F323183   2.250   4.046   4.745  0.3571  0.1885  0.3471
  191MOL     H423184   2.394   3.843   4.855 -0.0253  0.7889 -1.4656
  191MOL     H523185   2.329   3.893   5.016  0.3448  0.6198  0.8724
  191MOL     H623186   2.179   4.047   4.918  1.5125  0.1884  0.2047
  191MOL     H723187   2.428   4.004   4.922  0.2542 -0.3299 -3.8114
  191MOL     C823188   2.116   3.862   4.823 -0.2470  0.3925  0.0910
  191MOL     C923189   2.051   3.813   4.959 -0.2706  0.3549 -0.0196
  191MOL    F1023190   1.967   3.909   5.013  0.0950  0.0932 -0.0763
  191MOL    H1123191   2.044   3.904   4.753 -0.3105 -0.7811 -0.5581
  191MOL    H1223192   2.170   3.779   4.776  1.2340  1.8041 -0.7283
  191MOL    H1323193   2.121   3.778   5.034  0.2471  2.0203  0.2919
  191MOL    C1423194   1.954   3.701   4.918 -0.3482  0.1065  0.2406
  191MOL    C1523195   2.011   3.558   4.954  0.1803 -0.1092 -0.1278
  191MOL    F1623196   2.028   3.554   5.082  0.0202 -0.6065  0.0777
  191MOL    H1723197   1.862   3.714   4.975  0.4715 -0.1537  1.6524
  191MOL    H1823198   1.917   3.726   4.819 -1.3466  2.6176  1.2162
  191MOL    H1923199   2.110   3.553   4.909  1.3447 -0.8597  2.4226
  191MOL    C2023200   1.916   3.443   4.925  0.1308  0.1656 -0.1944
  191MOL    C2123201   1.902   3.410   4.784 -0.2239  0.0381  0.0977
  191MOL    F2223202   2.017   3.367   4.731 -0.3221  0.1762 -0.1429
  191MOL    H2323203   1.950   3.355   4.980 -2.2393 -1.8146 -1.7864
  191MOL    H2423204   1.817   3.462   4.966  0.0637  1.5233 -0.9403
  191MOL    H2523205   1.867   3.494   4.724  0.2644 -0.2820 -0.6462
  191MOL    C2623206   1.791   3.298   4.772 -0.0170 -0.5008 -0.2789
  191MOL    C2723207   1.641   3.346   4.799  0.1646  0.3486  0.7132
  191MOL    F2823208   1.617   3.457   4.724  0.3743  0.2562  0.0152
  191MOL    H2923209   1.796   3.258   4.671  0.7401  0.9127 -0.8217
  191MOL    H3023210   1.809   3.215   4.841 -0.5707 -0.2849  0.1326
  191MOL    H3123211   1.625   3.369   4.904 -1.8486  0.9659  0.3103
  191MOL    C3223212   1.548   3.233   4.758  0.2555 -0.3137  0.3164
  191MOL    C3323213   1.403   3.274   4.752  0.6636  0.3133  0.9552
  191MOL    F3423214   1.332   3.188   4.685  0.1270 -0.4622  0.5495
  191MOL    H3523215   1.575   3.193   4.660 -1.7718  1.1741 -0.8890
  191MOL    H3623216   1.558   3.145   4.821 -1.0429 -0.7996 -0.1331
  191MOL    H3723217   1.399   3.366   4.694 -0.6900 -1.5492 -2.0689
  191MOL    C3823218   1.327   3.299   4.883 -0.4442 -0.0330  0.3396
  191MOL    C3923219   1.284   3.180   4.964 -0.0673 -0.4474  0.5533
  191MOL    F4023220   1.391   3.117   4.997  0.1339 -0.2854  0.1698
  191MOL    H4123221   1.393   3.365   4.940 -0.7674  0.7915 -0.2362
  191MOL    H4223222   1.240   3.359   4.855 -1.4981 -1.2452  0.9804
  191MOL    H4323223   1.225   3.118   4.896  2.8304 -2.8905  0.1538
  191MOL    C4423224   1.209   3.213   5.089  0.0188  0.1832 -0.2717
  191MOL    C4523225   1.111   3.096   5.133  0.3657 -0.0251  0.0529
  191MOL    F4623226   1.027   3.070   5.039 -0.1410 -0.3251  0.0637
  191MOL    H4723227   1.284   3.232   5.165 -0.3190  1.2288 -0.1895
  191MOL    H4823228   1.154   3.307   5.086 -1.8733 -0.8527  1.0489
  191MOL    H4923229   1.059   3.137   5.219  1.6892  1.6350  0.0819
  191MOL    C5023230   1.172   2.969   5.180 -0.2603 -0.7550 -0.4297
  191MOL    C5123231   1.271   2.983   5.302 -0.3285 -1.3530 -0.3281
  191MOL    F5223232   1.213   3.041   5.405  0.3805 -0.3215 -0.2575
  191MOL    H5323233   1.088   2.905   5.206 -2.1985  2.4335  1.4268
  191MOL    H5423234   1.219   2.920   5.094 -0.2921 -0.3637 -0.6722
  191MOL    H5523235   1.355   3.053   5.289  0.3924 -1.9183  1.1312
  191MOL    C5623236   1.323   2.851   5.355 -0.0099  0.5165 -0.3413
  191MOL    C5723237   1.399   2.852   5.485  0.6563 -0.5547 -0.0937
  191MOL    F5823238   1.327   2.875   5.594 -0.4572 -0.1133  0.3458
  191MOL    H5923239   1.235   2.786   5.364 -0.6205  1.3450 -0.3021
  191MOL    H6023240   1.394   2.810   5.283  0.3156 -1.1148  0.8890
  191MOL    H6123241   1.471   2.932   5.467 -0.1924  0.0759 -0.6947
  191MOL    C6223242   1.462   2.714   5.512  0.1027 -0.0730 -0.0043
  191MOL    C6323243   1.608   2.713   5.455 -0.0118 -0.4818 -0.0291
  191MOL    F6423244   1.673   2.793   5.544 -0.2472 -0.7472 -0.1209
  191MOL    H6523245   1.476   2.687   5.616 -0.9695 -2.3026 -0.4097
  191MOL    H6623246   1.408   2.632   5.464  0.0809 -1.3943  2.2322
  191MOL    H6723247   1.628   2.756   5.357 -1.0431 -1.6614 -0.7739
  191MOL    C6823248   1.680   2.579   5.478 -0.0829  0.5886  0.3315
  191MOL    C6923249   1.634   2.454   5.396  0.5338  0.4477 -0.0979
  191MOL    F7023250   1.605   2.490   5.270 -0.2760 -0.2061  0.0031
  191MOL    H7123251   1.777   2.611   5.440  0.8094 -0.3004  1.8243
  191MOL    H7223252   1.675   2.558   5.585  1.6759  0.4101  0.3927
  191MOL    H7323253   1.543   2.406   5.430  0.4217  0.3085 -0.5829
  191MOL    C7423254   1.738   2.344   5.394  0.0899  0.0400  0.0958
  191MOL    C7523255   1.780   2.291   5.531  0.1946  0.6095 -0.5970
  191MOL    F7623256   1.668   2.239   5.585 -0.3198  0.3247 -0.4414
  191MOL    H7723257   1.696   2.266   5.331 -0.0204  0.6457 -0.5892
  191MOL    H7823258   1.824   2.381   5.337 -0.3356  1.4873  0.3570
  191MOL    H7923259   1.816   2.368   5.599 -1.4064  1.0062 -0.1688
  191MOL    C8023260   1.874   2.163   5.521 -0.2221 -0.4023 -0.5158
  191MOL    C8123261   1.896   2.090   5.655  0.0151 -0.4024 -0.4349
  191MOL    F8223262   1.980   1.993   5.636 -0.7096 -0.1836 -0.0034
  191MOL    H8323263   1.833   2.085   5.457 -0.0457 -2.4903  1.8152
  191MOL    H8423264   1.970   2.193   5.479 -0.1791 -2.2961 -1.8640
  191MOL    H8523265   1.807   2.031   5.675  1.5457 -2.4950  0.3615
  191MOL    C8623266   1.938   2.174   5.780 -0.1571 -0.6770  0.1721
  191MOL    C8723267   1.972   2.086   5.905  0.1477 -0.3151  0.4571
  191MOL    F8823268   1.873   1.998   5.926 -0.4190  0.2354  0.1656
  191MOL    H8923269   2.027   2.232   5.756  0.7602 -0.9560  2.7472
  191MOL    H9023270   1.868   2.256   5.799 -1.2921 -1.1530 -1.8482
  191MOL    H9123271   1.967   2.152   5.992 -2.5942 -0.6553  0.5916
  191MOL    C9223272   2.113   2.019   5.892  0.0489  0.4309 -0.6364
  191MOL    C9323273   2.173   1.957   6.017  0.1954 -0.5086 -0.5597
  191MOL    F9423274   2.186   2.057   6.101 -0.0137 -0.2021  0.1747
  191MOL    H9523275   2.112   1.940   5.818  0.8029 -1.4796  1.3489
  191MOL    H9623276   2.177   2.104   5.865 -1.1984  1.3515 -0.7397
  191MOL    H9723277   2.271   1.938   5.975 -0.3176 -0.1611 -1.9233
  191MOL    C9823278   2.099   1.838   6.079  0.2558  0.1504 -0.5505
  191MOL    C9923279   2.159   1.761   6.202 -0.8032  0.0980  0.6153
  191MOL   F10023280   2.064   1.693   6.277 -0.1290 -0.5849  0.2278
  191MOL   H10123281   1.998   1.843   6.120 -0.8295 -1.5513 -2.9056
  191MOL   H10223282   2.091   1.769   5.994 -3.1571  0.0214 -0.2023
  191MOL   H10323283   2.207   1.829   6.272  2.0117 -0.2366 -0.9022
  191MOL   C10423284   2.273   1.661   6.161 -0.1674 -0.2291  0.1715
  191MOL   C10523285   2.412   1.723   6.123  0.4138  0.1029 -0.2487
  191MOL   F10623286   2.473   1.781   6.226 -0.2251 -0.1688 -0.1458
  191MOL   H10723287   2.281   1.580   6.234 -2.5897  0.1866  0.9168
  191MOL   H10823288   2.252   1.608   6.068  1.0327 -0.5673  0.0795
  191MOL   H10923289   2.408   1.804   6.051  1.3771 -1.6739 -2.3532
  191MOL   C11023290   2.506   1.616   6.066  0.1326 -0.4903 -0.4952
  191MOL   C11123291   2.480   1.564   5.925  0.2355  0.7298  0.5624
  191MOL   F11223292   2.468   1.673   5.845  0.1866  0.6916 -0.1421
  191MOL   H11323293   2.608   1.654   6.074  0.2643 -0.8549 -0.4318
  191MOL   H11423294   2.510   1.534   6.138 -0.1051 -1.0194 -1.0769
  191MOL   H11523295   2.395   1.499   5.908  1.7925 -1.4421  0.9296
  191MOL   C11623296   2.596   1.487   5.861  0.0126  0.2555  0.9089
  191MOL   C11723297   2.590   1.471   5.711  0.4987  0.4617  0.1187
  191MOL   F11823298   2.678   1.380   5.677 -0.1914 -0.4366  0.4025
  191MOL   H11923299   2.687   1.541   5.888  0.2156  0.6255 -0.4626
  191MOL   H12023300   2.607   1.386   5.899  0.7164 -0.9003 -2.2319
  191MOL   H12123301   2.618   1.561   5.657  1.7948  0.5363  0.8859
  191MOL   H12223302   2.494   1.436   5.674  0.8057  1.2596 -1.4673
  192MOL     C123303   2.954   1.195   3.963 -0.0766  0.7307  0.1749
  192MOL     C223304   2.932   1.343   3.991  0.3058 -0.7845  0.0447
  192MOL     F323305   2.913   1.411   3.873  0.4874  0.1518 -0.1227
  192MOL     H423306   3.035   1.174   3.893  0.1101  0.7114  0.3970
  192MOL     H523307   2.866   1.152   3.915  0.4099  0.5719 -0.5984
  192MOL     H623308   3.028   1.380   4.028  0.3920  0.5759 -1.4983
  192MOL     H723309   2.971   1.128   4.047  0.0680  0.5039 -0.0337
  192MOL     C823310   2.813   1.377   4.082  0.2931  0.3507  0.3913
  192MOL     C923311   2.816   1.321   4.224 -0.8405  0.0447 -0.4753
  192MOL    F1023312   2.931   1.357   4.285  0.0876  0.1972 -0.1020
  192MOL    H1123313   2.797   1.484   4.082  0.1840  0.3448 -1.3536
  192MOL    H1223314   2.726   1.335   4.032  1.4511 -0.7958 -0.7295
  192MOL    H1323315   2.834   1.214   4.227 -0.9343 -0.0316 -2.1381
  192MOL    C1423316   2.703   1.374   4.315 -0.6755  0.7178 -0.7323
  192MOL    C1523317   2.561   1.344   4.260  0.3126 -0.5044 -0.3832
  192MOL    F1623318   2.540   1.214   4.255 -0.4124 -0.7138 -0.7448
  192MOL    H1723319   2.704   1.342   4.419 -1.6946  0.6938 -0.7271
  192MOL    H1823320   2.722   1.481   4.324 -2.3913  1.0938 -1.4122
  192MOL    H1923321   2.541   1.381   4.159  0.7733 -0.2228 -0.3717
  192MOL    C2023322   2.448   1.404   4.342 -0.1999  0.6762  0.0815
  192MOL    C2123323   2.429   1.350   4.486 -0.2021  0.1167  0.1475
  192MOL    F2223324   2.516   1.409   4.575  0.4842 -0.0130 -0.4914
  192MOL    H2323325   2.474   1.510   4.332  2.4680 -0.1692 -2.5928
  192MOL    H2423326   2.353   1.383   4.293  0.3122 -2.1477  0.2325
  192MOL    H2523327   2.454   1.244   4.494  0.9210  0.2583 -1.1795
  192MOL    C2623328   2.297   1.380   4.555 -0.1026  0.2038  0.3659
  192MOL    C2723329   2.175   1.297   4.514  0.2027  0.4291 -0.2108
  192MOL    F2823330   2.205   1.170   4.538 -0.2359 -0.1624  0.1440
  192MOL    H2923331   2.315   1.361   4.661  2.1375 -0.7132 -0.1271
  192MOL    H3023332   2.280   1.486   4.536 -1.6148 -0.2585 -0.9127
  192MOL    H3123333   2.155   1.301   4.407  0.8533  1.5986 -0.2892
  192MOL    C3223334   2.043   1.339   4.588 -0.3226  0.6678  0.1576
  192MOL    C3323335   1.969   1.460   4.524  0.4510  0.3944  0.1884
  192MOL    F3423336   1.951   1.435   4.398  0.4083  0.0299 -0.0015
  192MOL    H3523337   1.972   1.257   4.574 -0.1061  0.4813  0.1380
  192MOL    H3623338   2.062   1.357   4.694  3.0726 -2.7683  0.2405
  192MOL    H3723339   2.032   1.549   4.521  1.4026 -0.2724  0.1719
  192MOL    C3823340   1.834   1.497   4.584  0.0899  0.3571 -0.3711
  192MOL    C3923341   1.761   1.608   4.506  0.5955 -0.1626 -0.2164
  192MOL    F4023342   1.633   1.610   4.546 -0.2928  0.2742 -0.2690
  192MOL    H4123343   1.761   1.416   4.588 -0.3393  0.5274 -3.4593
  192MOL    H4223344   1.842   1.520   4.691 -0.3528  0.4143 -0.3471
  192MOL    H4323345   1.745   1.579   4.402 -1.0369 -1.0289  0.2594
  192MOL    C4423346   1.819   1.749   4.512 -0.1878 -0.4480  0.3971
  192MOL    C4523347   1.809   1.802   4.653  0.3442 -0.4077  0.2758
  192MOL    F4623348   1.909   1.762   4.743 -0.6487 -0.2745  0.1937
  192MOL    H4723349   1.921   1.764   4.474  0.5103 -1.0084  2.0312
  192MOL    H4823350   1.749   1.812   4.456 -1.0759 -0.0763  1.9051
  192MOL    H4923351   1.714   1.762   4.688 -0.6028  1.1463 -0.4499
  192MOL    C5023352   1.809   1.956   4.675 -0.4783 -0.3515 -0.1851
  192MOL    C5123353   1.944   2.025   4.644  0.5791 -0.2551  0.1501
  192MOL    F5223354   1.952   2.037   4.512  0.5105 -0.1245 -0.3183
  192MOL    H5323355   1.739   2.008   4.609 -1.2318 -2.4915 -1.1136
  192MOL    H5423356   1.776   1.978   4.776 -1.2474  0.4454 -0.5945
  192MOL    H5523357   2.021   1.953   4.674  1.1279 -0.3926 -1.5511
  192MOL    C5623358   1.956   2.158   4.711 -0.4765  0.1023 -0.0686
  192MOL    C5723359   2.097   2.207   4.716  0.1901 -0.0574 -0.0047
  192MOL    F5823360   2.104   2.333   4.767  1.1308  0.5432 -0.3146
  192MOL    H5923361   1.892   2.225   4.654  0.9235 -0.9620 -2.9356
  192MOL    H6023362   1.926   2.161   4.816  1.1174 -2.3509  0.4909
  192MOL    H6123363   2.130   2.223   4.613 -1.9544  1.4236 -0.4986
  192MOL    C6223364   2.190   2.126   4.801 -0.2689  0.0528 -0.5841
  192MOL    C6323365   2.332   2.176   4.786 -0.7432  0.2931 -0.3601
  192MOL    F6423366   2.408   2.126   4.885  0.3262 -0.0629  0.4100
  192MOL    H6523367   2.156   2.130   4.904 -1.6296  0.8843 -1.0512
  192MOL    H6623368   2.186   2.020   4.776 -0.1564 -0.4458  1.4600
  192MOL    H6723369   2.338   2.281   4.813  2.1316 -0.7818  3.5884
  192MOL    C6823370   2.405   2.140   4.654  0.0888 -0.9420 -0.6094
  192MOL    C6923371   2.518   2.241   4.626  0.4343 -0.0317  0.2861
  192MOL    F7023372   2.628   2.220   4.705 -0.1434 -0.3584 -0.0464
  192MOL    H7123373   2.452   2.042   4.654 -0.2548 -1.1638  2.7248
  192MOL    H7223374   2.331   2.150   4.574  0.0919  1.8212 -0.3195
  192MOL    H7323375   2.482   2.343   4.628 -0.5571 -0.3910  1.2058
  192MOL    C7423376   2.575   2.228   4.486 -0.7707  0.1277  0.1478
  192MOL    C7523377   2.667   2.348   4.452 -0.0214  0.5067  0.4818
  192MOL    F7623378   2.763   2.349   4.545 -0.0618  0.1729  0.1633
  192MOL    H7723379   2.624   2.131   4.475 -0.5428  0.0113  1.9703
  192MOL    H7823380   2.494   2.225   4.413  0.3394 -1.7524 -1.0395
  192MOL    H7923381   2.613   2.443   4.457  0.1884  0.5795  1.4000
  192MOL    C8023382   2.732   2.325   4.312 -0.3621 -0.5485 -0.0927
  192MOL    C8123383   2.817   2.439   4.251  0.4606 -0.3007  0.1639
  192MOL    F8223384   2.883   2.390   4.147 -0.2704 -0.8994 -0.1218
  192MOL    H8323385   2.792   2.234   4.325  0.6058 -0.1102 -1.4347
  192MOL    H8423386   2.657   2.291   4.241 -0.8542 -3.5681  1.7596
  192MOL    H8523387   2.895   2.473   4.319 -0.4203  1.7548  0.1712
  192MOL    C8623388   2.726   2.560   4.219 -0.5591  0.2452 -0.7428
  192MOL    C8723389   2.798   2.678   4.156  0.0165  1.0767 -0.6219
  192MOL    F8823390   2.698   2.757   4.123 -0.5340  0.3954  0.5575
  192MOL    H8923391   2.658   2.530   4.139 -0.5936  1.2163 -1.0765
  192MOL    H9023392   2.675   2.584   4.312 -0.4340  0.0765 -0.6311
  192MOL    H9123393   2.851   2.652   4.064 -1.2765 -0.7694 -0.8759
  192MOL    C9223394   2.877   2.756   4.257 -0.0786 -0.2833 -0.1223
  192MOL    C9323395   2.923   2.898   4.220  0.3636 -0.2033  0.6158
  192MOL    F9423396   2.814   2.971   4.194  0.0094 -0.1593 -0.2104
  192MOL    H9523397   2.813   2.763   4.345 -0.1426  0.5334 -0.2342
  192MOL    H9623398   2.962   2.703   4.301 -0.3364 -0.2196  0.4591
  192MOL    H9723399   2.982   2.896   4.129  0.4921 -1.5551  0.7237
  192MOL    C9823400   3.000   2.970   4.339  0.0298 -0.0536  0.4255
  192MOL    C9923401   3.027   3.117   4.312  0.6032 -0.3339  0.1816
  192MOL   F10023402   3.080   3.168   4.420  0.3386 -0.5324 -0.0998
  192MOL   H10123403   2.943   2.958   4.431 -0.0772  1.9930  0.6491
  192MOL   H10223404   3.096   2.919   4.350 -0.6720 -1.4493  0.2191
  192MOL   H10323405   2.932   3.170   4.310  0.9966  0.3307 -1.4796
  192MOL   C10423406   3.111   3.149   4.183 -1.1504 -0.0363  0.0309
  192MOL   C10523407   3.183   3.286   4.179  0.4965 -0.5587 -0.2822
  192MOL   F10623408   3.297   3.288   4.111  0.4316  0.3106  0.0569
  192MOL   H10723409   3.182   3.067   4.182  1.3875  2.1022  0.6248
  192MOL   H10823410   3.047   3.129   4.097 -1.4707  2.4676 -0.3695
  192MOL   H10923411   3.218   3.298   4.281  1.6691 -1.8562 -0.5163
  192MOL   C11023412   3.083   3.398   4.134  0.1062  0.5943  0.5938
  192MOL   C11123413   3.000   3.472   4.246  0.1809  1.0081 -0.3873
  192MOL   F11223414   3.090   3.515   4.337  0.2039  0.3781 -0.4034
  192MOL   H11323415   3.132   3.487   4.093 -1.3606  0.1739 -2.2140
  192MOL   H11423416   3.020   3.363   4.052 -1.1357  1.3996  1.2006
  192MOL   H11523417   2.933   3.399   4.291  1.3428 -0.2718 -0.7154
  192MOL   C11623418   2.912   3.590   4.202 -0.2387  0.5864  0.8813
  192MOL   C11723419   2.775   3.591   4.270  0.2828 -0.7458 -0.0081
  192MOL   F11823420   2.701   3.489   4.221 -0.2476  0.3090 -0.3746
  192MOL   H11923421   2.957   3.688   4.217 -1.9612  1.2698  1.6661
  192MOL   H12023422   2.882   3.576   4.098  0.3190  3.1809  0.3321
  192MOL   H12123423   2.714   3.679   4.250  0.3814 -0.6004  0.3184
  192MOL   H12223424   2.779   3.583   4.379 -1.3713 -0.4069  0.0901
  193MOL     C123425   2.540   4.761   4.335  0.1181 -0.0860  0.2159
  193MOL     C223426   2.525   4.736   4.183 -0.7694 -0.3847  0.8878
  193MOL     F323427   2.486   4.855   4.131 -0.0224 -0.2475 -0.0528
  193MOL     H423428   2.448   4.804   4.375 -0.2882  0.4673 -1.2771
  193MOL     H523429   2.625   4.827   4.355 -1.8284  2.3188  0.8802
  193MOL     H623430   2.436   4.678   4.157  0.1189 -1.5796  0.4981
  193MOL     H723431   2.556   4.675   4.400  4.0704 -0.6406 -1.3717
  193MOL     C823432   2.649   4.682   4.124  0.8011 -0.1289  0.4501
  193MOL     C923433   2.682   4.538   4.168 -0.6107 -0.6504  0.2222
  193MOL    F1023434   2.585   4.451   4.125 -0.5489  0.5766 -0.5477
  193MOL    H1123435   2.644   4.697   4.017 -2.2615  0.6417  0.6364
  193MOL    H1223436   2.732   4.740   4.164  0.8389  0.2812 -0.2288
  193MOL    H1323437   2.687   4.531   4.276  1.9833 -0.4766  0.1458
  193MOL    C1423438   2.811   4.488   4.097  0.4310  0.2231 -0.4343
  193MOL    C1523439   2.870   4.360   4.161 -0.1977  0.3907  0.0065
  193MOL    F1623440   2.925   4.364   4.286  0.3562 -0.0192  0.0958
  193MOL    H1723441   2.781   4.461   3.996  1.9003  0.4875 -0.9504
  193MOL    H1823442   2.881   4.571   4.099 -1.4798  1.8680  1.3925
  193MOL    H1923443   2.950   4.325   4.095 -0.0714  0.0277  0.3481
  193MOL    C2023444   2.781   4.237   4.187 -0.1919  0.1659  0.3173
  193MOL    C2123445   2.729   4.163   4.057 -0.2369  0.3128  0.1738
  193MOL    F2223446   2.830   4.100   3.995 -0.3575  0.2601 -0.3269
  193MOL    H2323447   2.828   4.158   4.246 -1.6537 -0.2627  0.9207
  193MOL    H2423448   2.695   4.275   4.241  1.4424 -0.4361  3.4793
  193MOL    H2523449   2.694   4.240   3.988  2.7470  1.7113  0.1447
  193MOL    C2623450   2.625   4.062   4.096  0.9164  0.0709 -0.1869
  193MOL    C2723451   2.530   4.019   3.979  0.1739  0.9065 -0.2266
  193MOL    F2823452   2.481   4.120   3.909  0.3012 -0.8445  0.2093
  193MOL    H2923453   2.660   3.979   4.157 -0.0382  0.2364  0.5861
  193MOL    H3023454   2.558   4.095   4.175  0.3492 -1.6603  0.0823
  193MOL    H3123455   2.435   3.990   4.024  0.2210  1.9678  0.5714
  193MOL    C3223456   2.592   3.914   3.880  0.1320 -0.8310 -0.7526
  193MOL    C3323457   2.627   3.784   3.951  0.0712  0.9779 -0.6670
  193MOL    F3423458   2.513   3.727   3.996  0.0818 -0.5402 -0.2126
  193MOL    H3523459   2.527   3.906   3.792 -1.2363  0.5330  0.1092
  193MOL    H3623460   2.684   3.955   3.838  0.3240  1.1330  1.4674
  193MOL    H3723461   2.707   3.794   4.025  1.0703 -0.8732 -1.4529
  193MOL    C3823462   2.686   3.691   3.844 -0.9295 -0.4631  0.1481
  193MOL    C3923463   2.824   3.723   3.795 -0.1570  0.2454 -0.4809
  193MOL    F4023464   2.907   3.727   3.896 -0.2853 -0.2555  0.0085
  193MOL    H4123465   2.682   3.592   3.891  3.0613 -1.8594 -2.1706
  193MOL    H4223466   2.622   3.678   3.757 -1.6980 -0.9198  0.7664
  193MOL    H4323467   2.827   3.822   3.750  1.5729 -0.2519 -1.4899
  193MOL    C4423468   2.881   3.633   3.684 -0.1736  0.8848  0.4404
  193MOL    C4523469   2.999   3.699   3.608 -0.9025 -0.4303  0.0052
  193MOL    F4623470   2.950   3.791   3.526 -0.2634  0.2353  0.3128
  193MOL    H4723471   2.918   3.537   3.720 -0.3921  0.2155 -1.0913
  193MOL    H4823472   2.798   3.623   3.614 -1.8409  1.9687  2.2168
  193MOL    H4923473   3.043   3.619   3.549  0.4456  0.8335 -0.7218
  193MOL    C5023474   3.114   3.762   3.690 -0.1332 -0.2869 -0.5522
  193MOL    C5123475   3.238   3.805   3.599 -0.0159  0.3426  0.3757
  193MOL    F5223476   3.205   3.924   3.533 -0.4949  0.6352 -0.1027
  193MOL    H5323477   3.066   3.841   3.746 -0.9097 -0.3455 -1.1255
  193MOL    H5423478   3.149   3.684   3.758 -2.7772 -0.7852  0.2824
  193MOL    H5523479   3.271   3.734   3.522 -0.0144 -0.3726  1.0271
  193MOL    C5623480   3.354   3.826   3.697  0.4159  0.3954 -0.2012
  193MOL    C5723481   3.465   3.915   3.640 -0.0340  0.2351  0.3708
  193MOL    F5823482   3.417   4.029   3.604  0.5475  0.0362  0.1105
  193MOL    H5923483   3.304   3.885   3.774 -0.2237  0.0720 -0.3620
  193MOL    H6023484   3.393   3.733   3.740 -2.9397  0.3364  2.9950
  193MOL    H6123485   3.508   3.854   3.561 -0.6923  0.5645 -0.2527
  193MOL    C6223486   3.566   3.948   3.744 -0.2355 -0.2494 -0.3783
  193MOL    C6323487   3.694   4.018   3.701 -0.0457 -0.2235  0.0132
  193MOL    F6423488   3.672   4.146   3.680  0.2682 -0.1130 -0.3471
  193MOL    H6523489   3.508   4.011   3.813  0.0883  0.1796 -0.4973
  193MOL    H6623490   3.588   3.857   3.799  1.9277  1.1777  1.1794
  193MOL    H6723491   3.723   3.992   3.599  1.6103 -1.4097  0.7578
  193MOL    C6823492   3.810   4.015   3.805  0.7263 -0.4184  0.5686
  193MOL    C6923493   3.887   3.886   3.824  0.2262  0.0820  0.0248
  193MOL    F7023494   3.801   3.804   3.891 -0.0466  0.3626 -0.2675
  193MOL    H7123495   3.876   4.097   3.778  2.1102 -0.5581  3.3840
  193MOL    H7223496   3.760   4.043   3.897 -2.9912 -3.2001 -0.4589
  193MOL    H7323497   3.966   3.905   3.896  3.3860 -2.3244 -2.6098
  193MOL    C7423498   3.941   3.817   3.700  0.2605 -0.4024 -0.3046
  193MOL    C7523499   4.031   3.907   3.618 -0.2835 -0.5275 -0.9852
  193MOL    F7623500   4.136   3.926   3.691 -0.9383  0.4605  0.4108
  193MOL    H7723501   4.003   3.729   3.719 -0.1119 -1.2683 -2.8775
  193MOL    H7823502   3.862   3.787   3.631  0.7028 -0.1091 -0.9367
  193MOL    H7923503   3.995   4.008   3.599 -1.4257 -0.5077  1.2234
  193MOL    C8023504   4.085   3.836   3.486  0.1368  0.5883 -0.6135
  193MOL    C8123505   3.997   3.866   3.374 -0.0424 -0.4583  0.6954
  193MOL    F8223506   3.874   3.817   3.397  0.4138 -0.0711 -0.3350
  193MOL    H8323507   4.186   3.869   3.464  0.0325  0.8938 -0.6290
  193MOL    H8423508   4.099   3.728   3.489  0.5036  0.4991 -3.6413
  193MOL    H8523509   4.033   3.815   3.284 -1.9900  0.4471 -0.6221
  193MOL    C8623510   3.987   4.010   3.328  0.4180 -0.5867  0.1624
  193MOL    C8723511   4.124   4.076   3.302 -1.4174  0.2114 -0.0472
  193MOL    F8823512   4.190   3.998   3.209 -0.0927 -0.3180 -0.3601
  193MOL    H8923513   3.931   4.017   3.235  0.2228  0.5964  0.3618
  193MOL    H9023514   3.930   4.063   3.404  0.0368 -2.1115  0.9610
  193MOL    H9123515   4.185   4.086   3.391  0.6729 -0.7803 -1.3319
  193MOL    C9223516   4.112   4.210   3.226 -0.5307  0.0998  0.4803
  193MOL    C9323517   4.047   4.327   3.295  0.4382 -0.5505  0.2457
  193MOL    F9423518   4.100   4.332   3.415 -0.4199 -0.2277 -0.2448
  193MOL    H9523519   4.214   4.241   3.203 -0.3571 -1.2740 -0.6705
  193MOL    H9623520   4.070   4.207   3.126  3.5124 -0.0662 -1.2925
  193MOL    H9723521   3.939   4.308   3.293  0.2448  0.5545 -0.6558
  193MOL    C9823522   4.072   4.465   3.224  0.3683  0.2882 -0.0798
  193MOL    C9923523   3.966   4.570   3.255 -0.1564  0.0593  0.1964
  193MOL   F10023524   3.843   4.525   3.232 -0.6072  0.1168  0.4631
  193MOL   H10123525   4.174   4.499   3.237  0.0259  0.5155  2.4196
  193MOL   H10223526   4.060   4.448   3.117 -1.9946 -0.8408  0.3252
  193MOL   H10323527   3.976   4.650   3.182  0.1883  1.0741  1.3397
  193MOL   C10423528   3.966   4.632   3.400  0.4355  0.2853  0.2029
  193MOL   C10523529   4.106   4.686   3.444 -0.0113 -0.0597  0.2099
  193MOL   F10623530   4.131   4.784   3.361 -0.3036 -0.3266  0.1431
  193MOL   H10723531   3.897   4.715   3.387  1.4535  1.1554  0.3301
  193MOL   H10823532   3.933   4.559   3.474  0.4042  0.4113  0.3133
  193MOL   H10923533   4.179   4.605   3.439 -1.2974 -1.1696 -0.9687
  193MOL   C11023534   4.108   4.738   3.592 -0.2311 -0.3957  0.3119
  193MOL   C11123535   4.235   4.819   3.637  0.6742 -0.7409 -0.6126
  193MOL   F11223536   4.241   4.940   3.577  0.2061 -0.3935  0.5900
  193MOL   H11323537   4.018   4.800   3.589  0.9023  1.2560 -1.8093
  193MOL   H11423538   4.078   4.657   3.657 -1.4349  0.9701  1.5038
  193MOL   H11523539   4.324   4.773   3.594  0.7847 -0.4663 -0.6786
  193MOL   C11623540   4.243   4.829   3.792 -0.4699  0.4364 -0.3696
  193MOL   C11723541   4.356   4.922   3.831  0.1703 -0.4832 -0.1569
  193MOL   F11823542   4.376   4.933   3.963  0.2685  0.4137 -0.0846
  193MOL   H11923543   4.149   4.872   3.828 -0.8312  0.9824 -1.9119
  193MOL   H12023544   4.272   4.730   3.826  0.8730  1.5308  1.7488
  193MOL   H12123545   4.329   5.021   3.793 -1.0651 -0.7194  0.0853
  193MOL   H12223546   4.453   4.888   3.794 -0.4895 -1.6056 -0.8731
  194MOL     C123547   0.083   7.521   6.062 -0.1054 -1.0320  0.2496
  194MOL     C223548   0.100   7.580   5.924 -0.2336  0.8977 -0.3955
  194MOL     F323549   0.212   7.552   5.876 -0.2164  0.3844  0.0209
  194MOL     H423550   0.159   7.566   6.127 -0.9705  2.3424 -0.9797
  194MOL     H523551   0.098   7.414   6.049 -1.6813 -0.9938 -2.1320
  194MOL     H623552   0.091   7.688   5.931  0.2708  1.0657 -2.2203
  194MOL     H723553   7.988   7.519   6.108 -0.3757  0.7591 -0.2284
  194MOL     C823554   8.000   7.524   5.826 -0.3257  0.0621  0.5512
  194MOL     C923555   8.000   7.606   5.692 -0.6259 -0.4344 -0.8122
  194MOL    F1023556   0.107   7.590   5.621 -0.0482  0.1676 -0.6183
  194MOL    H1123557   0.009   7.419   5.800  1.2218  0.7779 -1.7460
  194MOL    H1223558   7.902   7.535   5.873  0.9480 -0.6937  3.5040
  194MOL    H1323559   8.002   7.713   5.713  1.7033 -0.4810 -0.7330
  194MOL    C1423560   7.880   7.578   5.594  0.4372 -0.3937  0.2351
  194MOL    C1523561   7.739   7.620   5.636 -0.6308  0.0121 -0.1711
  194MOL    F1623562   7.754   7.747   5.656 -0.2237  0.5184  0.1620
  194MOL    H1723563   7.903   7.623   5.497  0.4645 -1.1207 -0.1034
  194MOL    H1823564   7.876   7.470   5.580  0.1978 -0.3610  0.0510
  194MOL    H1923565   7.708   7.573   5.730 -1.0092  1.2761  0.3438
  194MOL    C2023566   7.634   7.599   5.520  0.4649 -0.2716 -0.1993
  194MOL    C2123567   7.485   7.623   5.563  0.1286  0.1825 -0.5938
  194MOL    F2223568   7.452   7.537   5.662  0.1760  0.6636  0.0037
  194MOL    H2323569   7.659   7.660   5.434 -1.7046  1.6120  0.4607
  194MOL    H2423570   7.637   7.495   5.488  2.6540 -0.0820 -0.6731
  194MOL    H2523571   7.423   7.599   5.477  1.0081 -1.3743 -0.8092
  194MOL    C2623572   7.462   7.768   5.614  0.4366 -0.4951 -0.2627
  194MOL    C2723573   7.318   7.818   5.616  0.0189 -0.3335 -0.3707
  194MOL    F2823574   7.273   7.829   5.491 -0.2358  0.4381 -0.0628
  194MOL    H2923575   7.496   7.779   5.717  1.3189  0.6499 -0.6648
  194MOL    H3023576   7.523   7.834   5.553  1.4496 -0.6618  0.5404
  194MOL    H3123577   7.321   7.915   5.665 -1.5494 -0.5029  0.0753
  194MOL    C3223578   7.221   7.743   5.711  0.0677 -0.1413 -0.2526
  194MOL    C3323579   7.262   7.723   5.858  0.1998 -0.1327  0.3152
  194MOL    F3423580   7.295   7.850   5.908 -0.3901 -0.3206  0.0287
  194MOL    H3523581   7.119   7.782   5.714  0.6648  1.5322 -1.0842
  194MOL    H3623582   7.184   7.655   5.658  0.9313 -1.6694  1.5961
  194MOL    H3723583   7.354   7.666   5.847 -1.4618 -2.9021  0.0891
  194MOL    C3823584   7.162   7.653   5.947  0.5719  0.1650 -0.2083
  194MOL    C3923585   7.020   7.718   5.975  0.6804  0.8956 -0.0245
  194MOL    F4023586   6.948   7.685   5.870 -0.3441  0.0798 -0.6390
  194MOL    H4123587   7.156   7.552   5.906 -2.2019  0.9214 -1.8558
  194MOL    H4223588   7.220   7.642   6.038  0.0955 -1.9645 -0.1354
  194MOL    H4323589   7.034   7.826   5.970 -2.2822  1.3118 -0.0801
  194MOL    C4423590   6.944   7.681   6.106 -0.3444  0.1009  0.3531
  194MOL    C4523591   7.036   7.698   6.226  0.0936 -0.2770  0.9185
  194MOL    F4623592   7.092   7.820   6.219 -0.2450 -0.4781 -0.0539
  194MOL    H4723593   6.860   7.750   6.109  0.7753  1.4644  0.3900
  194MOL    H4823594   6.898   7.581   6.106 -1.0410  0.4076  2.0936
  194MOL    H4923595   7.115   7.622   6.226 -0.9077 -1.3836 -2.1371
  194MOL    C5023596   6.952   7.694   6.353 -0.0030 -0.2480  0.2114
  194MOL    C5123597   6.885   7.553   6.365  0.1351  0.1384 -0.3410
  194MOL    F5223598   6.974   7.453   6.363 -0.2037 -0.2387  0.5137
  194MOL    H5323599   7.009   7.708   6.445  1.4831 -0.9822 -0.5777
  194MOL    H5423600   6.889   7.783   6.353  1.4183  0.7717  0.6500
  194MOL    H5523601   6.811   7.538   6.286  1.3898  0.9125 -1.6855
  194MOL    C5623602   6.806   7.537   6.501  0.4347 -0.2615 -0.2311
  194MOL    C5723603   6.744   7.394   6.531  0.0666  0.6103  0.6414
  194MOL    F5823604   6.687   7.393   6.652 -0.1858 -0.1690 -0.2765
  194MOL    H5923605   6.878   7.541   6.583  1.2680 -0.3648 -0.9542
  194MOL    H6023606   6.738   7.621   6.517 -0.9300 -1.4705  0.3547
  194MOL    H6123607   6.816   7.313   6.543 -0.5399  0.2068  1.6291
  194MOL    C6223608   6.643   7.334   6.430 -0.9519 -0.5240 -0.6215
  194MOL    C6323609   6.715   7.244   6.318  1.0452 -0.1171  0.1003
  194MOL    F6423610   6.743   7.134   6.384 -0.3099 -0.3391 -0.4108
  194MOL    H6523611   6.572   7.278   6.490  1.1658 -1.2895  1.2507
  194MOL    H6623612   6.591   7.423   6.392  0.0556 -0.3857 -1.6984
  194MOL    H6723613   6.803   7.299   6.285  0.2686  1.6554  0.8797
  194MOL    C6823614   6.619   7.220   6.200 -0.3759  1.0296 -0.6048
  194MOL    C6923615   6.615   7.326   6.084 -0.2126 -0.1730  0.5239
  194MOL    F7023616   6.736   7.323   6.037  0.3375 -0.3940  0.6193
  194MOL    H7123617   6.651   7.123   6.163 -3.5174 -0.1787 -0.3749
  194MOL    H7223618   6.514   7.206   6.226 -0.9804  2.5197 -2.1411
  194MOL    H7323619   6.586   7.417   6.136 -0.5382 -1.0833  1.9682
  194MOL    C7423620   6.517   7.283   5.974 -0.4086 -0.6962  0.2548
  194MOL    C7523621   6.374   7.324   6.009  0.6145 -0.0148  0.2508
  194MOL    F7623622   6.363   7.457   6.022  0.1562  0.0262  0.2011
  194MOL    H7723623   6.555   7.315   5.877 -3.4554  1.3540 -0.3369
  194MOL    H7823624   6.516   7.175   5.963 -0.4880 -0.7229  0.5167
  194MOL    H7923625   6.348   7.291   6.110 -1.0675 -1.4116 -0.5997
  194MOL    C8023626   6.263   7.268   5.919 -0.0815  0.0287  0.8815
  194MOL    C8123627   6.266   7.121   5.877 -0.5561  0.8240  0.0638
  194MOL    F8223628   6.235   7.035   5.983  0.6219  0.4392  0.2515
  194MOL    H8323629   6.166   7.294   5.959 -1.2735 -1.0450 -1.2017
  194MOL    H8423630   6.267   7.326   5.827  1.5070 -0.3561  0.6868
  194MOL    H8523631   6.362   7.081   5.846 -0.0663  2.1203 -0.1036
  194MOL    C8623632   6.158   7.086   5.764 -0.1296  0.5732  0.5653
  194MOL    C8723633   6.000   7.092   5.785  0.2137 -0.6986 -0.1674
  194MOL    F8823634   5.974   7.221   5.819 -0.2917  0.1280  0.1489
  194MOL    H8923635   6.188   7.142   5.676 -4.1652  0.2946 -1.0728
  194MOL    H9023636   6.182   6.984   5.734  0.7188  0.9105  0.0934
  194MOL    H9123637   5.976   7.026   5.869  0.3598 -1.1613 -0.4898
  194MOL    C9223638   5.907   7.048   5.673 -0.0428  0.0651 -0.2224
  194MOL    C9323639   5.928   6.905   5.625 -0.1283 -0.0315  0.5239
  194MOL    F9423640   5.932   6.825   5.732 -0.4568  0.1610 -0.0940
  194MOL    H9523641   5.809   7.073   5.715 -0.3104  0.3649 -1.0071
  194MOL    H9623642   5.919   7.123   5.594  0.6604  0.7780  0.5538
  194MOL    H9723643   6.022   6.891   5.572  0.0207 -0.6693  0.9472
  194MOL    C9823644   5.807   6.865   5.541  1.2886  0.7233  0.3324
  194MOL    C9923645   5.790   6.720   5.489  0.1219 -0.5809 -0.4635
  194MOL   F10023646   5.890   6.699   5.408 -0.2874 -0.1246  0.3757
  194MOL   H10123647   5.721   6.902   5.597  0.3278  0.0303 -0.6677
  194MOL   H10223648   5.808   6.928   5.452  1.0539  0.8905  0.4465
  194MOL   H10323649   5.689   6.714   5.448 -0.4349  0.0689  0.7948
  194MOL   C10423650   5.794   6.610   5.598 -0.0168 -0.3200  0.3861
  194MOL   C10523651   5.683   6.610   5.706  0.3392  1.0242 -0.1393
  194MOL   F10623652   5.566   6.614   5.645 -0.3220  0.2425  0.1212
  194MOL   H10723653   5.777   6.518   5.543  2.2588 -1.0710  0.8621
  194MOL   H10823654   5.892   6.606   5.646  0.4503  0.2390 -0.4987
  194MOL   H10923655   5.689   6.692   5.778  0.3055  0.3942  0.5944
  194MOL   C11023656   5.688   6.479   5.789  0.4027  0.0894 -0.5466
  194MOL   C11123657   5.564   6.464   5.881 -0.1275 -0.0005  0.5286
  194MOL   F11223658   5.582   6.345   5.935  0.3810 -0.2028  0.2293
  194MOL   H11323659   5.688   6.394   5.721 -0.7217 -0.7774  0.5236
  194MOL   H11423660   5.781   6.473   5.846  0.5843 -2.0949 -1.0545
  194MOL   H11523661   5.475   6.465   5.818  0.9066  0.5502 -0.9632
  194MOL   C11623662   5.563   6.564   6.001  0.6892 -0.2837 -0.7117
  194MOL   C11723663   5.451   6.541   6.108 -0.9107 -0.0065  0.0087
  194MOL   F11823664   5.469   6.632   6.204  0.2555  0.1048  0.4173
  194MOL   H11923665   5.662   6.561   6.045  1.3942 -1.4718 -2.2992
  194MOL   H12023666   5.532   6.660   5.959 -0.2162  0.1332  0.8910
  194MOL   H12123667   5.455   6.440   6.149 -1.1919 -0.6209 -1.4559
  194MOL   H12223668   5.353   6.546   6.061 -0.7247 -0.2567 -0.4040
  195MOL     C123669   0.824   1.085   2.045  0.0212 -0.3558  0.0253
  195MOL     C223670   0.976   1.126   2.035 -0.8030  0.8278  0.3666
  195MOL     F323671   1.014   1.140   1.911 -0.1312 -0.0440 -0.4719
  195MOL     H423672   0.757   1.156   1.996  1.2816 -0.0751 -1.3186
  195MOL     H523673   0.788   1.059   2.145 -1.3297 -2.8840 -1.0883
  195MOL     H623674   1.047   1.051   2.069  0.6866  2.2057  0.3695
  195MOL     H723675   0.816   0.992   1.990 -2.9775 -1.3806  2.0328
  195MOL     C823676   0.993   1.270   2.100 -0.5594  0.2539  0.0408
  195MOL     C923677   0.993   1.268   2.251  0.7129  0.2410 -0.3653
  195MOL    F1023678   1.082   1.183   2.298 -0.1115  0.5772  0.4432
  195MOL    H1123679   1.082   1.319   2.063 -0.6852  1.4679  1.3338
  195MOL    H1223680   0.909   1.332   2.067  1.0202  3.2732  1.5476
  195MOL    H1323681   0.895   1.233   2.283  0.9016 -1.4350 -1.5802
  195MOL    C1423682   1.033   1.401   2.320  0.4620 -0.1983  0.5467
  195MOL    C1523683   0.942   1.522   2.300  0.3713  0.9819  0.6445
  195MOL    F1623684   0.827   1.501   2.368 -0.0076 -0.1215 -0.0531
  195MOL    H1723685   1.037   1.374   2.425 -0.6523  1.0721  0.9335
  195MOL    H1823686   1.132   1.423   2.281  0.9908  0.4810  2.2713
  195MOL    H1923687   0.905   1.523   2.198  0.3722 -3.7838  0.4787
  195MOL    C2023688   0.997   1.654   2.360  0.1301 -0.1903 -0.4550
  195MOL    C2123689   0.892   1.774   2.360 -0.2939 -0.9308  0.1692
  195MOL    F2223690   0.913   1.855   2.464  0.1006 -0.1274  0.3510
  195MOL    H2323691   1.025   1.617   2.459  1.2778  0.9985 -0.3174
  195MOL    H2423692   1.083   1.698   2.309 -1.5647  3.0065 -0.6473
  195MOL    H2523693   0.793   1.728   2.370 -0.5516 -0.5669 -0.6779
  195MOL    C2623694   0.897   1.848   2.218  0.0624 -0.2475 -0.7329
  195MOL    C2723695   0.807   1.975   2.212  0.0680 -0.0850  0.3041
  195MOL    F2823696   0.832   2.035   2.092  0.1079 -0.0258  0.1413
  195MOL    H2923697   1.002   1.872   2.199 -0.2880  1.8746 -0.2111
  195MOL    H3023698   0.874   1.777   2.140  2.2818 -1.6510 -0.1777
  195MOL    H3123699   0.844   2.047   2.285  1.4495 -1.5300  1.0453
  195MOL    C3223700   0.657   1.938   2.225  0.2282  0.2111  1.1858
  195MOL    C3323701   0.573   2.059   2.262  0.2339 -0.5689 -0.5751
  195MOL    F3423702   0.611   2.100   2.379  0.1698 -0.6588 -0.4178
  195MOL    H3523703   0.607   1.888   2.142  1.0187  1.2299  0.0764
  195MOL    H3623704   0.642   1.874   2.312 -1.2204  0.4896  1.1626
  195MOL    H3723705   0.471   2.023   2.274  0.1583 -0.7862 -1.7763
  195MOL    C3823706   0.566   2.164   2.151 -0.1167 -0.6588  0.0160
  195MOL    C3923707   0.452   2.268   2.162 -0.0671  0.8703 -0.5207
  195MOL    F4023708   0.415   2.289   2.290 -0.5746 -0.5863  0.3645
  195MOL    H4123709   0.661   2.217   2.148 -0.2849 -0.2539  1.6018
  195MOL    H4223710   0.560   2.124   2.049  0.0522 -1.2696  0.2407
  195MOL    H4323711   0.364   2.233   2.107  0.3358 -3.5440  1.3733
  195MOL    C4423712   0.504   2.401   2.120 -0.5652 -0.5190  0.2338
  195MOL    C4523713   0.535   2.420   1.968  0.1051  0.2867  0.0923
  195MOL    F4623714   0.427   2.362   1.910 -0.6118 -0.0939 -0.3939
  195MOL    H4723715   0.424   2.474   2.131  1.3781  1.6985 -0.0647
  195MOL    H4823716   0.592   2.427   2.179 -0.2218  1.3889 -1.0860
  195MOL    H4923717   0.611   2.352   1.930 -0.9694 -0.7495 -0.2442
  195MOL    C5023718   0.545   2.565   1.912  0.2150  0.6327 -0.2518
  195MOL    C5123719   0.685   2.623   1.954  0.4099  0.1571  0.0741
  195MOL    F5223720   0.780   2.542   1.910  0.3103 -0.0519  0.1378
  195MOL    H5323721   0.518   2.556   1.807 -1.0650  1.6758 -0.0286
  195MOL    H5423722   0.475   2.634   1.961 -1.2743 -0.5955 -0.6113
  195MOL    H5523723   0.686   2.624   2.063  0.1309  1.6171  0.0730
  195MOL    C5623724   0.735   2.761   1.907  0.3632  0.1292  0.8463
  195MOL    C5723725   0.643   2.875   1.950  0.3002  1.9782 -0.3311
  195MOL    F5823726   0.631   2.885   2.084  0.0681  0.0553 -0.2749
  195MOL    H5923727   0.836   2.781   1.944  0.9053  0.9606 -1.0569
  195MOL    H6023728   0.743   2.773   1.799 -0.6180 -1.6122  0.5585
  195MOL    H6123729   0.543   2.845   1.921  0.3067 -1.0716  2.3923
  195MOL    C6223730   0.685   3.008   1.892  0.4359  0.3076  0.0048
  195MOL    C6323731   0.588   3.123   1.928 -0.8255 -0.8652 -0.2091
  195MOL    F6423732   0.646   3.229   1.868 -0.0753  0.1283 -0.2732
  195MOL    H6523733   0.790   3.030   1.911  1.0678 -1.4946 -1.2497
  195MOL    H6623734   0.685   2.993   1.784  0.5265 -2.3315  0.3542
  195MOL    H6723735   0.585   3.134   2.036  2.2013  1.8240 -0.3397
  195MOL    C6823736   0.450   3.117   1.867 -0.1260 -0.6122  0.5331
  195MOL    C6923737   0.347   3.228   1.903  0.0480  0.2320 -0.1619
  195MOL    F7023738   0.234   3.214   1.836  0.3396 -0.4601  0.3036
  195MOL    H7123739   0.461   3.116   1.758 -1.3399 -0.7188  0.4070
  195MOL    H7223740   0.404   3.024   1.900  1.1420 -1.3892  0.1557
  195MOL    H7323741   0.379   3.330   1.879  0.7608  0.2050  0.6569
  195MOL    C7423742   0.311   3.226   2.052 -0.0228 -0.4303 -0.1751
  195MOL    C7523743   0.215   3.346   2.084 -0.0762 -0.0605 -0.3641
  195MOL    F7623744   0.090   3.306   2.048  0.3671  0.4329  0.0453
  195MOL    H7723745   0.257   3.133   2.067 -0.7261  0.3244  2.1277
  195MOL    H7823746   0.403   3.233   2.112 -0.8900 -4.0435  1.7157
  195MOL    H7923747   0.242   3.432   2.021 -2.0516 -0.1417 -1.3541
  195MOL    C8023748   0.207   3.376   2.239 -1.0014  0.4447  0.4061
  195MOL    C8123749   0.131   3.499   2.286 -0.1826 -0.7700  0.4117
  195MOL    F8223750   0.195   3.610   2.242  0.1599  0.1078 -0.4032
  195MOL    H8323751   0.176   3.281   2.283  1.7245 -0.4479  0.5158
  195MOL    H8423752   0.311   3.392   2.268 -0.5933 -1.9704  0.3992
  195MOL    H8523753   0.145   3.505   2.394 -4.0852  0.5690  0.9518
  195MOL    C8623754   7.987   3.528   2.235  0.3311  0.2892 -1.0649
  195MOL    C8723755   7.884   3.416   2.286  0.0303 -0.3367 -0.3357
  195MOL    F8823756   7.891   3.411   2.422  0.5519 -0.2762 -0.6072
  195MOL    H8923757   7.951   3.625   2.268 -1.3738 -0.9117  0.7789
  195MOL    H9023758   7.971   3.524   2.128 -0.9810  1.0335 -0.9097
  195MOL    H9123759   7.919   3.319   2.252  0.7735 -0.7699  1.6066
  195MOL    C9223760   7.734   3.442   2.259 -0.0082 -0.6107 -0.0041
  195MOL    C9323761   7.637   3.319   2.279 -0.2775 -0.0741 -0.4107
  195MOL    F9423762   7.520   3.356   2.234  0.0543  0.1447  0.6601
  195MOL    H9523763   7.695   3.526   2.315 -0.2945 -0.9091  0.2425
  195MOL    H9623764   7.745   3.455   2.151 -0.6727  0.6799  0.0909
  195MOL    H9723765   7.627   3.305   2.386 -1.2605  0.4543 -0.4208
  195MOL    C9823766   7.677   3.190   2.204  0.1221  0.3022  0.2575
  195MOL    C9923767   7.708   3.193   2.054  0.9536 -0.3714  0.2030
  195MOL   F10023768   7.754   3.082   2.002  0.4354 -0.1034 -0.2579
  195MOL   H10123769   7.754   3.142   2.263 -0.5784 -1.5225 -0.2882
  195MOL   H10223770   7.586   3.131   2.218  0.8124 -0.4211  1.6940
  195MOL   H10323771   7.783   3.272   2.046 -0.4239  1.0943  1.2157
  195MOL   C10423772   7.583   3.230   1.967 -0.1505 -0.1720  0.2348
  195MOL   C10523773   7.618   3.250   1.818 -0.2930 -0.1282  0.2322
  195MOL   F10623774   7.505   3.247   1.757 -0.0695  0.1100  0.5883
  195MOL   H10723775   7.506   3.158   1.996 -1.1060  1.4542  1.8845
  195MOL   H10823776   7.550   3.328   2.001  0.1885 -0.8914  2.7876
  195MOL   H10923777   7.684   3.169   1.785  1.4530  0.9172  1.0928
  195MOL   C11023778   7.685   3.383   1.778 -0.5010  0.5428  0.5287
  195MOL   C11123779   7.665   3.417   1.627 -0.4264 -0.0066 -0.2506
  195MOL   F11223780   7.545   3.429   1.599  0.0779 -0.5572  0.4766
  195MOL   H11323781   7.653   3.466   1.842  1.9419  0.8658  1.4150
  195MOL   H11423782   7.792   3.365   1.792 -0.4028 -0.1762 -1.1015
  195MOL   H11523783   7.703   3.333   1.569  1.1909  1.1431 -0.9168
  195MOL   C11623784   7.745   3.547   1.593  0.0486 -0.1369 -0.1151
  195MOL   C11723785   7.683   3.669   1.648 -0.6562 -0.0705  0.0688
  195MOL   F11823786   7.764   3.772   1.622  0.3057 -0.4275 -0.0091
  195MOL   H11923787   7.847   3.530   1.630 -0.8000 -1.8802  1.5382
  195MOL   H12023788   7.755   3.556   1.485  0.1102 -1.4163 -0.2294
  195MOL   H12123789   7.684   3.664   1.757  3.2145  1.2748  0.1661
  195MOL   H12223790   7.585   3.681   1.602 -0.1796  1.9930 -0.4434
  196MOL     C123791   3.494   6.989   2.482 -0.1270 -0.4330 -0.4173
  196MOL     C223792   3.345   6.965   2.520  0.1163 -0.0087 -0.1822
  196MOL     F323793   3.284   6.897   2.425  0.1575 -0.4994  0.0454
  196MOL     H423794   3.506   7.047   2.390 -2.6703 -1.4307 -1.4221
  196MOL     H523795   3.532   6.887   2.484 -1.4829 -0.9368  0.2858
  196MOL     H623796   3.298   7.063   2.528 -1.1585 -0.3781 -2.5252
  196MOL     H723797   3.540   7.044   2.564 -2.1737 -1.2364  1.3304
  196MOL     C823798   3.321   6.885   2.647 -0.3029  0.4026  0.5315
  196MOL     C923799   3.353   6.950   2.774 -0.4654 -0.1121  0.1909
  196MOL    F1023800   3.264   7.042   2.803  0.2393  0.4097 -0.1778
  196MOL    H1123801   3.216   6.857   2.655  0.1762 -1.5024  0.3958
  196MOL    H1223802   3.386   6.797   2.646 -0.2702  0.4269 -0.6456
  196MOL    H1323803   3.448   7.003   2.773  0.4551 -1.7254  0.9675
  196MOL    C1423804   3.369   6.842   2.888 -0.5558  0.5333  0.8679
  196MOL    C1523805   3.398   6.905   3.024  0.1753  0.1345  0.3420
  196MOL    F1623806   3.306   6.996   3.066 -0.2277 -0.1673  0.4708
  196MOL    H1723807   3.274   6.788   2.888 -0.9885  1.1842 -2.5180
  196MOL    H1823808   3.444   6.765   2.870 -1.0458  0.3572 -0.4839
  196MOL    H1923809   3.495   6.953   3.014 -0.2990  0.6571 -2.0480
  196MOL    C2023810   3.412   6.791   3.127 -0.1191  0.4007 -0.4918
  196MOL    C2123811   3.449   6.842   3.268 -1.1239 -0.3499 -0.2889
  196MOL    F2223812   3.473   6.729   3.331 -0.0634 -0.5170 -0.5200
  196MOL    H2323813   3.325   6.726   3.134 -0.4673  0.8996 -0.1966
  196MOL    H2423814   3.490   6.722   3.095 -0.3570 -0.2614  0.3439
  196MOL    H2523815   3.366   6.897   3.312 -1.2064  0.7026 -1.7299
  196MOL    C2623816   3.582   6.924   3.281 -0.3433 -0.2028 -0.4448
  196MOL    C2723817   3.605   6.972   3.424 -0.6142 -0.7705  0.0414
  196MOL    F2823818   3.496   7.029   3.478 -0.0261 -0.4209 -0.2047
  196MOL    H2923819   3.673   6.877   3.243  1.3588  2.2468  0.4962
  196MOL    H3023820   3.565   7.017   3.226  1.3250 -0.6343 -1.7341
  196MOL    H3123821   3.685   7.047   3.428  0.5456 -2.0204  0.9903
  196MOL    C3223822   3.646   6.854   3.526 -0.3856 -1.0040 -0.1116
  196MOL    C3323823   3.774   6.782   3.489 -0.4976 -0.3927 -0.2587
  196MOL    F3423824   3.880   6.867   3.467 -0.1776  0.5317 -0.0748
  196MOL    H3523825   3.668   6.899   3.623  1.4569 -1.7603 -0.1539
  196MOL    H3623826   3.569   6.779   3.541 -0.5476 -0.7805  0.1857
  196MOL    H3723827   3.759   6.749   3.387 -2.5818 -0.6041  0.0995
  196MOL    C3823828   3.825   6.668   3.584 -0.2345  0.2228  0.1243
  196MOL    C3923829   3.737   6.531   3.574  0.5096 -0.1957  0.4658
  196MOL    F4023830   3.775   6.490   3.454  0.4062 -0.1002  0.5149
  196MOL    H4123831   3.930   6.641   3.575 -0.4453 -0.9203  0.9827
  196MOL    H4223832   3.819   6.712   3.684  1.2165  0.9463 -0.0875
  196MOL    H4323833   3.631   6.554   3.561  1.3474  1.8937 -3.2544
  196MOL    C4423834   3.760   6.434   3.684 -0.2882  0.2645  0.0610
  196MOL    C4523835   3.661   6.321   3.701 -0.3873 -0.6967 -0.0402
  196MOL    F4623836   3.675   6.233   3.604  0.3143 -0.2659  0.4097
  196MOL    H4723837   3.860   6.391   3.680 -0.9194 -1.5552  2.7977
  196MOL    H4823838   3.752   6.493   3.775  0.9808 -0.9001  0.9492
  196MOL    H4923839   3.555   6.346   3.689  0.4269  3.0939  0.1029
  196MOL    C5023840   3.660   6.236   3.825  0.2875 -0.3880 -0.6165
  196MOL    C5123841   3.604   6.293   3.949 -0.2497 -1.0607  0.2714
  196MOL    F5223842   3.481   6.332   3.928 -0.5063  0.0705  0.3751
  196MOL    H5323843   3.611   6.142   3.799  0.4167 -0.3376 -1.0354
  196MOL    H5423844   3.761   6.205   3.850  0.7661  1.8770  0.3590
  196MOL    H5523845   3.662   6.380   3.977  1.0240 -2.3174  1.6211
  196MOL    C5623846   3.595   6.196   4.069  0.1205 -0.0900  0.1078
  196MOL    C5723847   3.724   6.133   4.134  0.5263  0.1739 -0.1205
  196MOL    F5823848   3.799   6.239   4.160 -0.2009  0.3614 -0.0050
  196MOL    H5923849   3.536   6.249   4.143  3.8671  1.6096  2.0536
  196MOL    H6023850   3.537   6.112   4.030  1.1325 -0.9929  0.5174
  196MOL    H6123851   3.775   6.062   4.068 -0.0388 -1.5077  1.2205
  196MOL    C6223852   3.698   6.071   4.271 -0.7001 -0.1580 -0.7183
  196MOL    C6323853   3.585   5.970   4.282  0.4195 -0.6476  0.5134
  196MOL    F6423854   3.621   5.862   4.213  0.0897 -0.5440 -0.4742
  196MOL    H6523855   3.791   6.028   4.308 -0.6692  2.1462  2.0628
  196MOL    H6623856   3.673   6.151   4.340 -0.5661  0.4576 -1.3687
  196MOL    H6723857   3.488   6.002   4.244  0.8117 -0.4902 -0.3784
  196MOL    C6823858   3.569   5.916   4.431 -0.2659 -0.4110 -0.0249
  196MOL    C6923859   3.459   5.813   4.473  0.5230 -0.5084 -0.6284
  196MOL    F7023860   3.333   5.860   4.449  0.4400 -0.3827  0.0565
  196MOL    H7123861   3.668   5.879   4.456  0.0882 -0.3194 -1.2600
  196MOL    H7223862   3.549   6.001   4.497  1.7530  0.7293 -0.8535
  196MOL    H7323863   3.459   5.789   4.579 -0.3841 -2.5103 -1.0559
  196MOL    C7423864   3.465   5.683   4.390 -0.2622 -0.0489 -0.1503
  196MOL    C7523865   3.367   5.573   4.435 -0.1467 -0.2160 -0.2914
  196MOL    F7623866   3.404   5.474   4.359  0.5520 -0.4344  0.1253
  196MOL    H7723867   3.446   5.706   4.285 -0.5697  0.1785 -0.0446
  196MOL    H7823868   3.568   5.647   4.397  0.2365  1.0352 -1.6210
  196MOL    H7923869   3.268   5.598   4.397 -0.6960  1.1995  1.9536
  196MOL    C8023870   3.358   5.527   4.586  0.1983 -0.7519 -0.3384
  196MOL    C8123871   3.486   5.482   4.651 -0.7215  0.2146 -0.0535
  196MOL    F8223872   3.565   5.585   4.681 -0.0137 -0.0159  0.2525
  196MOL    H8323873   3.315   5.603   4.651  0.9702 -0.8084  0.2508
  196MOL    H8423874   3.288   5.443   4.590 -0.8330 -0.0427 -2.8512
  196MOL    H8523875   3.540   5.439   4.567  1.5198 -1.1995  2.0169
  196MOL    C8623876   3.470   5.385   4.765 -0.1902  0.3057  0.2992
  196MOL    C8723877   3.592   5.303   4.820 -0.2540 -0.7867  1.0701
  196MOL    F8823878   3.667   5.402   4.861 -0.4710  0.2156  0.1893
  196MOL    H8923879   3.415   5.436   4.844  1.0321  1.0846  0.6602
  196MOL    H9023880   3.401   5.305   4.741  0.5113 -0.1350 -0.2944
  196MOL    H9123881   3.649   5.256   4.741 -0.9002  1.7548 -0.9773
  196MOL    C9223882   3.569   5.215   4.946 -0.0838 -0.2276  0.1657
  196MOL    C9323883   3.502   5.084   4.915 -0.0390 -0.0184 -0.1752
  196MOL    F9423884   3.368   5.109   4.905  0.3946  0.1756  0.3409
  196MOL    H9523885   3.672   5.195   4.978 -0.6332 -0.4598  1.7861
  196MOL    H9623886   3.529   5.273   5.029  0.7545 -0.3666  0.6732
  196MOL    H9723887   3.510   5.028   5.008  1.4901 -1.9169 -1.4374
  196MOL    C9823888   3.560   4.999   4.797 -0.9315 -1.3090 -0.1436
  196MOL    C9923889   3.478   4.874   4.785  0.7233 -0.4188 -0.1505
  196MOL   F10023890   3.355   4.902   4.739 -1.0256 -0.1875  0.0281
  196MOL   H10123891   3.546   5.055   4.704 -2.2340 -0.1192  0.7375
  196MOL   H10223892   3.666   4.979   4.806 -0.9419 -1.4934 -0.4366
  196MOL   H10323893   3.467   4.829   4.884 -0.3700  0.3325  0.0832
  196MOL   C10423894   3.535   4.765   4.695 -0.1857  0.4127  0.7812
  196MOL   C10523895   3.653   4.688   4.755  0.7955  0.1384 -0.4124
  196MOL   F10623896   3.604   4.611   4.849 -0.3235  0.3287  0.1721
  196MOL   H10723897   3.451   4.700   4.669  0.4004  0.7849 -2.2377
  196MOL   H10823898   3.564   4.819   4.605 -1.6692 -0.1861 -0.0727
  196MOL   H10923899   3.726   4.749   4.808 -1.8317  1.2220  2.1527
  196MOL   C11023900   3.718   4.599   4.654 -0.1270 -0.1153 -0.0952
  196MOL   C11123901   3.836   4.526   4.715  0.0683 -0.6654 -0.1239
  196MOL   F11223902   3.803   4.446   4.814 -0.1871 -0.2093 -0.1219
  196MOL   H11323903   3.653   4.520   4.618  0.8759 -0.2405 -1.6711
  196MOL   H11423904   3.757   4.655   4.569 -0.3528  1.2623  0.6911
  196MOL   H11523905   3.908   4.596   4.756  0.2926  0.1733 -1.9091
  196MOL   C11623906   3.899   4.422   4.614 -0.1660  0.3223  0.3509
  196MOL   C11723907   3.973   4.496   4.506 -0.1170  0.0235 -0.5387
  196MOL   F11823908   4.051   4.403   4.442 -0.3818  0.0084 -0.2264
  196MOL   H11923909   3.970   4.352   4.658  2.3831  2.7376  0.1934
  196MOL   H12023910   3.816   4.364   4.575  0.9355 -1.1937  0.2135
  196MOL   H12123911   4.050   4.565   4.541  0.7667 -1.2254  0.0225
  196MOL   H12223912   3.905   4.552   4.442 -0.4038  0.6683  0.3162
  197MOL     C123913   0.925   6.305   3.306 -0.3016  0.0399  0.5918
  197MOL     C223914   0.844   6.424   3.356  0.4986 -0.3717 -0.0294
  197MOL     F323915   0.725   6.416   3.307 -0.2055 -0.0417 -0.1704
  197MOL     H423916   0.900   6.290   3.201  1.6757 -0.2072  0.1267
  197MOL     H523917   0.903   6.216   3.365 -0.8286 -0.2640 -0.0523
  197MOL     H623918   0.895   6.515   3.323 -0.1491 -0.1586 -0.4625
  197MOL     H723919   1.032   6.326   3.315  0.1449  0.0680 -3.6488
  197MOL     C823920   0.833   6.430   3.509  0.8495  0.1077 -0.5326
  197MOL     C923921   0.964   6.463   3.583 -0.8662 -0.2225  0.2593
  197MOL    F1023922   1.032   6.565   3.526  0.1271  0.1093  0.1126
  197MOL    H1123923   0.768   6.516   3.525 -1.2384 -1.7695  1.2786
  197MOL    H1223924   0.785   6.339   3.544  2.2670  0.9428  3.8918
  197MOL    H1323925   1.040   6.386   3.567  1.6083  2.3084 -0.6765
  197MOL    C1423926   0.952   6.475   3.744  0.8564 -0.1083 -0.4001
  197MOL    C1523927   0.908   6.344   3.808 -0.4889 -0.0643 -0.0580
  197MOL    F1623928   1.008   6.257   3.786  0.1276  0.0389  0.3983
  197MOL    H1723929   1.042   6.498   3.800  0.7793  0.2765 -0.4344
  197MOL    H1823930   0.883   6.557   3.763  0.0640 -0.8815  0.1193
  197MOL    H1923931   0.818   6.306   3.759  0.1895 -2.3956  0.4436
  197MOL    C2023932   0.890   6.347   3.960  0.0801  0.2472  0.6720
  197MOL    C2123933   0.866   6.204   4.010  0.3943  0.7016 -0.1084
  197MOL    F2223934   0.901   6.200   4.139 -0.3281 -0.1969 -0.5104
  197MOL    H2323935   0.986   6.370   4.006  0.1652  0.7716  0.2400
  197MOL    H2423936   0.812   6.415   3.993  0.4517  0.8394  0.3275
  197MOL    H2523937   0.931   6.133   3.959 -1.9371 -0.5340 -1.4652
  197MOL    C2623938   0.722   6.156   3.997  0.0537  0.1437 -0.0703
  197MOL    C2723939   0.680   6.024   4.064  0.1119 -0.6538 -0.0111
  197MOL    F2823940   0.546   6.008   4.064  0.3685 -0.1873  0.8709
  197MOL    H2923941   0.656   6.234   4.035  0.2191  0.7210 -0.9622
  197MOL    H3023942   0.693   6.144   3.893 -0.8287 -1.4255  0.3377
  197MOL    H3123943   0.699   6.039   4.170  0.2269 -0.8139 -0.0086
  197MOL    C3223944   0.751   5.900   4.017 -0.4448  0.2581 -0.5820
  197MOL    C3323945   0.750   5.788   4.115  1.0663 -0.9253 -0.1834
  197MOL    F3423946   0.625   5.745   4.116 -0.0591 -0.2106 -0.0908
  197MOL    H3523947   0.724   5.875   3.915 -3.3675 -0.2332  0.2599
  197MOL    H3623948   0.859   5.909   4.005 -0.4102 -0.9489 -1.2321
  197MOL    H3723949   0.767   5.824   4.217 -2.3370 -2.0380  0.8476
  197MOL    C3823950   0.862   5.687   4.084 -0.0283 -0.2590  0.4142
  197MOL    C3923951   0.858   5.558   4.163 -0.1794 -0.3136 -0.0800
  197MOL    F4023952   0.964   5.482   4.110  0.1349  0.7320  0.1484
  197MOL    H4123953   0.851   5.640   3.986 -1.8467 -0.8280  0.8681
  197MOL    H4223954   0.958   5.738   4.089  0.8286 -1.6484 -1.2184
  197MOL    H4323955   0.762   5.510   4.148  0.3501 -1.4308  0.0531
  197MOL    C4423956   0.891   5.579   4.316 -0.0221 -0.4680 -0.3725
  197MOL    C4523957   0.895   5.450   4.392 -0.1065 -0.0626  0.5362
  197MOL    F4623958   0.938   5.478   4.518 -0.4487 -0.2181 -0.3457
  197MOL    H4723959   0.981   5.639   4.323 -1.7963  2.2261  0.1609
  197MOL    H4823960   0.805   5.630   4.361  1.4411  1.2935  0.4732
  197MOL    H4923961   0.974   5.386   4.352  0.6142  0.0558  1.7618
  197MOL    C5023962   0.765   5.366   4.398 -1.0459 -0.1400 -0.0516
  197MOL    C5123963   0.752   5.294   4.529  0.1351 -0.1986 -1.0417
  197MOL    F5223964   0.627   5.255   4.544  0.3018 -0.7035  0.4455
  197MOL    H5323965   0.677   5.431   4.387 -0.3527  0.5409 -1.8805
  197MOL    H5423966   0.744   5.307   4.309 -0.6098 -0.1936 -0.1183
  197MOL    H5523967   0.779   5.352   4.617  1.3510 -0.2131 -1.4040
  197MOL    C5623968   0.847   5.183   4.531  0.2489  0.4135 -0.6514
  197MOL    C5723969   0.855   5.109   4.670  0.2510 -0.9804  0.0312
  197MOL    F5823970   0.893   4.982   4.634  0.0063 -0.4019 -0.2042
  197MOL    H5923971   0.821   5.119   4.446 -2.0972  0.9881 -0.3863
  197MOL    H6023972   0.947   5.227   4.517  1.7253 -1.8187  2.3454
  197MOL    H6123973   0.760   5.099   4.720  1.5029 -0.2611  2.6190
  197MOL    C6223974   0.953   5.173   4.770 -0.0003  0.3962 -0.7594
  197MOL    C6323975   0.957   5.107   4.907 -1.1025  0.4620 -0.3454
  197MOL    F6423976   0.998   4.978   4.903 -0.0580  0.4122 -0.1371
  197MOL    H6523977   1.049   5.187   4.720  0.1346 -0.5922 -0.7897
  197MOL    H6623978   0.918   5.273   4.796  2.6335  1.0578  0.4437
  197MOL    H6723979   0.857   5.103   4.950 -0.4537 -0.0095  1.1508
  197MOL    C6823980   1.062   5.190   4.990 -0.1351 -0.5495  0.0469
  197MOL    C6923981   1.106   5.128   5.126 -0.4479 -0.3183 -0.1316
  197MOL    F7023982   1.171   5.016   5.103 -0.4139  0.1408 -0.3480
  197MOL    H7123983   1.149   5.196   4.924 -1.3602 -0.3008 -1.5914
  197MOL    H7223984   1.011   5.284   5.011  0.5294 -0.3794  0.9289
  197MOL    H7323985   1.029   5.088   5.191  0.1004 -2.1558 -0.5727
  197MOL    C7423986   1.179   5.223   5.218  0.5226 -0.8106  0.1426
  197MOL    C7523987   1.268   5.335   5.145 -0.2428 -0.6199 -0.0155
  197MOL    F7623988   1.317   5.430   5.233  0.4105 -0.1680 -0.5876
  197MOL    H7723989   1.094   5.277   5.262 -1.3169 -3.3073 -0.2339
  197MOL    H7823990   1.228   5.174   5.302  0.0256 -0.5893  0.5641
  197MOL    H7923991   1.212   5.397   5.077 -2.0784 -0.3953  1.6677
  197MOL    C8023992   1.395   5.270   5.080  0.2021  0.0392 -0.5143
  197MOL    C8123993   1.490   5.361   4.999 -0.1353  0.5414  0.0317
  197MOL    F8223994   1.603   5.286   5.000 -0.0687 -0.6245  0.5719
  197MOL    H8323995   1.461   5.236   5.160 -1.6234 -0.2544  0.8826
  197MOL    H8423996   1.365   5.186   5.018 -4.6641 -1.1835  3.2199
  197MOL    H8523997   1.504   5.446   5.065 -0.5411  0.4488  0.2384
  197MOL    C8623998   1.447   5.400   4.855  0.3400 -0.5036 -0.3381
  197MOL    C8723999   1.533   5.512   4.799 -0.3432 -0.3169 -0.3798
  197MOL    F8824000   1.660   5.474   4.798  0.2816 -0.2352  0.6794
  197MOL    H8924001   1.442   5.310   4.793 -0.8585  1.8303 -3.7353
  197MOL    H9024002   1.342   5.426   4.860  0.5357  0.3252 -0.5998
  197MOL    H9124003   1.528   5.607   4.853  2.1510 -0.5708  0.3830
  197MOL    C9224004   1.518   5.545   4.648 -0.0133  0.0375 -0.0966
  197MOL    C9324005   1.371   5.591   4.621 -0.2640  0.1842  0.0573
  197MOL    F9424006   1.359   5.705   4.684 -0.3936 -0.0157  0.2368
  197MOL    H9524007   1.583   5.627   4.617 -0.2498 -0.5111 -2.1417
  197MOL    H9624008   1.542   5.451   4.597  0.5494 -0.6705  1.4164
  197MOL    H9724009   1.296   5.521   4.658  0.0153  0.1638  0.5784
  197MOL    C9824010   1.336   5.611   4.466  0.4610  0.3234  0.0652
  197MOL    C9924011   1.357   5.493   4.370 -0.4422  0.0528  0.1279
  197MOL   F10024012   1.269   5.393   4.390  0.3128 -0.2708  0.1791
  197MOL   H10124013   1.236   5.651   4.450  0.5142  1.0560  1.4402
  197MOL   H10224014   1.399   5.696   4.439  1.4452 -0.6144 -0.5962
  197MOL   H10324015   1.455   5.448   4.385 -0.7816 -0.3339  1.2799
  197MOL   C10424016   1.344   5.540   4.220 -0.3631  0.9468 -0.3096
  197MOL   C10524017   1.367   5.427   4.120  0.4332 -0.2504 -0.1381
  197MOL   F10624018   1.494   5.376   4.117 -0.1548 -0.0059 -0.4585
  197MOL   H10724019   1.238   5.562   4.216 -0.9795 -1.5768  0.5820
  197MOL   H10824020   1.398   5.633   4.204 -0.2146  0.6485 -1.5991
  197MOL   H10924021   1.343   5.465   4.020 -0.3714 -0.6194 -0.0941
  197MOL   C11024022   1.275   5.302   4.138 -0.4034  0.3080 -0.1260
  197MOL   C11124023   1.283   5.215   4.007 -0.1678 -0.2172  0.1423
  197MOL   F11224024   1.254   5.086   4.032 -0.3144  0.8107 -0.1640
  197MOL   H11324025   1.303   5.239   4.222  1.4408  0.2625 -0.7609
  197MOL   H11424026   1.172   5.336   4.130 -0.4215  0.3354  0.2110
  197MOL   H11524027   1.379   5.217   3.955 -1.3149 -0.8522 -2.0691
  197MOL   C11624028   1.183   5.255   3.896 -0.3366 -0.9238  0.1316
  197MOL   C11724029   1.182   5.163   3.773  0.0076 -0.5743 -0.2995
  197MOL   F11824030   1.099   5.200   3.674  0.1087  0.4271  0.0040
  197MOL   H11924031   1.080   5.247   3.932 -0.3986 -1.4197 -0.1472
  197MOL   H12024032   1.201   5.357   3.863 -0.9486 -0.6308  0.6859
  197MOL   H12124033   1.162   5.059   3.797 -2.3887  0.1022  0.8336
  197MOL   H12224034   1.285   5.183   3.743  1.1129 -1.7538  2.5379
  198MOL     C124035   1.109   7.792   3.277  0.2306  0.8331 -0.1209
  198MOL     C224036   1.081   7.940   3.286  0.2235  0.2273  1.0048
  198MOL     F324037   1.185   7.988   3.348  0.3829 -0.4079 -0.3111
  198MOL     H424038   1.118   7.747   3.376  0.2456 -2.5030 -1.5665
  198MOL     H524039   1.196   7.775   3.214 -0.7454 -2.3554 -0.6898
  198MOL     H624040   0.996   7.972   3.346 -0.6984  0.7625 -0.5640
  198MOL     H724041   1.040   7.749   3.205  0.3739 -1.5415  1.1165
  198MOL     C824042   1.071   0.001   3.145  0.6731  1.0642  0.0847
  198MOL     C924043   0.930   0.011   3.074  0.5796 -0.1412  0.1091
  198MOL    F1024044   0.842   0.065   3.149 -0.1864 -0.6956  1.5416
  198MOL    H1124045   1.100   0.106   3.155  0.8991  1.2128 -1.8572
  198MOL    H1224046   1.144   7.959   3.078 -0.4233  0.4531 -0.7311
  198MOL    H1324047   0.887   7.914   3.059 -1.8407  0.8047  0.4918
  198MOL    C1424048   0.950   0.092   2.944  0.2991 -0.4340  0.5316
  198MOL    C1524049   0.821   0.136   2.871  0.1380  0.0778 -0.3399
  198MOL    F1624050   0.864   0.188   2.754  0.0371 -0.0110  0.6744
  198MOL    H1724051   0.995   0.187   2.973  0.4879 -0.6481  0.9439
  198MOL    H1824052   1.014   0.032   2.880 -1.5229  0.4340 -2.2116
  198MOL    H1924053   0.762   0.209   2.926  0.4237 -0.8957  1.3249
  198MOL    C2024054   0.732   0.011   2.819 -0.4000  0.6917 -0.2682
  198MOL    C2124055   0.590   0.057   2.767 -0.1143  0.2639 -0.2031
  198MOL    F2224056   0.518   7.957   2.713 -0.2605  0.4657  0.6455
  198MOL    H2324057   0.791   7.977   2.736  0.5119  1.5756 -0.0188
  198MOL    H2424058   0.705   7.952   2.904 -0.7473  0.0613 -0.8302
  198MOL    H2524059   0.603   0.137   2.694 -1.3119  0.1391 -0.5628
  198MOL    C2624060   0.502   0.095   2.891  1.0753  0.7488 -0.0662
  198MOL    C2724061   0.357   0.129   2.860 -0.1860  0.7363 -0.1328
  198MOL    F2824062   0.288   0.101   2.965  1.1510  0.6612 -0.0145
  198MOL    H2924063   0.508   0.008   2.957 -0.9594 -0.2484 -1.1386
  198MOL    H3024064   0.541   0.174   2.955  0.2171  1.0657  0.0666
  198MOL    H3124065   0.321   0.078   2.771 -1.7079  1.3922  0.0869
  198MOL    C3224066   0.344   0.283   2.821  0.3648 -0.4316 -0.3469
  198MOL    C3324067   0.194   0.320   2.807 -0.1205 -0.3826 -0.1598
  198MOL    F3424068   0.146   0.357   2.925 -0.0335 -0.6239  0.0198
  198MOL    H3524069   0.393   0.346   2.895 -2.3500 -0.6874  1.7476
  198MOL    H3624070   0.377   0.301   2.719 -2.5574  0.1718 -1.2134
  198MOL    H3724071   0.131   0.232   2.797  2.4690 -2.2903  0.1022
  198MOL    C3824072   0.150   0.419   2.691  0.2713 -0.8456 -0.7064
  198MOL    C3924073   0.181   0.369   2.547  0.1561  0.3546  0.4565
  198MOL    F4024074   0.099   0.261   2.520 -0.1624  0.1896  0.5286
  198MOL    H4124075   0.045   0.445   2.700  1.0124  1.8743  0.7425
  198MOL    H4224076   0.189   0.521   2.695 -1.5152 -0.1755 -0.1369
  198MOL    H4324077   0.284   0.334   2.544  0.0043  0.0415 -2.1315
  198MOL    C4424078   0.185   0.477   2.435 -0.2806  0.5727  0.2838
  198MOL    C4524079   0.293   0.583   2.443  0.0178 -0.0926 -0.2615
  198MOL    F4624080   0.407   0.518   2.409  0.1268  0.1707  0.6236
  198MOL    H4724081   0.200   0.433   2.337  0.9690  0.1435  0.6485
  198MOL    H4824082   0.090   0.529   2.429  0.1897  1.4126  0.0642
  198MOL    H4924083   0.300   0.623   2.544 -2.4907 -1.6970  0.6115
  198MOL    C5024084   0.257   0.693   2.340 -0.3921 -0.0143 -0.1132
  198MOL    C5124085   0.165   0.807   2.377  0.3060 -0.7672  0.3528
  198MOL    F5224086   0.227   0.851   2.491  0.0577  0.2810  0.0330
  198MOL    H5324087   0.349   0.750   2.336  0.5015 -1.2420  2.0279
  198MOL    H5424088   0.248   0.661   2.236  0.5610  1.8882 -0.7943
  198MOL    H5524089   0.065   0.778   2.409 -1.5828  2.7327 -2.1085
  198MOL    C5624090   0.164   0.918   2.272 -0.2902  0.0779  0.2523
  198MOL    C5724091   0.032   0.913   2.183  0.7833  0.0088  0.1737
  198MOL    F5824092   7.934   0.961   2.254 -0.3565  0.2913  0.2240
  198MOL    H5924093   0.183   1.017   2.313  1.0631 -0.3178  0.6337
  198MOL    H6024094   0.239   0.889   2.198 -2.4749 -3.2127 -0.7753
  198MOL    H6124095   0.002   0.815   2.145  0.3777 -0.0523  0.6484
  198MOL    C6224096   0.041   0.983   2.045  0.2404  0.6227 -0.0765
  198MOL    C6324097   7.921   1.003   1.956  0.3753  1.1262 -0.2590
  198MOL    F6424098   7.969   1.059   1.841 -0.1950  0.1421  0.3030
  198MOL    H6524099   0.090   1.080   2.054  1.9578 -0.2689  0.3395
  198MOL    H6624100   0.110   0.925   1.984 -1.6826 -1.2924 -0.5189
  198MOL    H6724101   7.868   1.082   2.008 -2.2073 -0.5190 -0.3101
  198MOL    C6824102   7.836   0.879   1.938  0.0779  0.2705 -0.4836
  198MOL    C6924103   7.708   0.913   1.860  0.1977 -0.3397 -0.0438
  198MOL    F7024104   7.641   0.798   1.845 -0.3589 -0.4114  0.1675
  198MOL    H7124105   7.899   0.807   1.885  1.0876  0.9827 -0.2586
  198MOL    H7224106   7.804   0.837   2.033 -0.0230 -0.1880 -0.7161
  198MOL    H7324107   7.733   0.948   1.759 -1.5153 -0.2894 -0.4649
  198MOL    C7424108   7.620   1.024   1.917  0.1014  0.0385 -0.0926
  198MOL    C7524109   7.525   0.983   2.032 -0.6537  0.4003 -0.1859
  198MOL    F7624110   7.601   0.951   2.135 -0.3505 -0.1454  0.4875
  198MOL    H7724111   7.670   1.114   1.953  0.9801 -0.9234  1.1167
  198MOL    H7824112   7.559   1.061   1.835 -2.1925 -2.4460  0.4536
  198MOL    H7924113   7.457   0.899   2.019 -0.3843  0.3349 -1.2073
  198MOL    C8024114   7.439   1.104   2.075  0.8793 -0.5844  0.5723
  198MOL    C8124115   7.329   1.060   2.165  0.3489  0.0764 -0.3278
  198MOL    F8224116   7.368   1.049   2.289 -0.2060 -0.3323  0.1697
  198MOL    H8324117   7.504   1.179   2.120 -0.4338  0.1068  1.3502
  198MOL    H8424118   7.395   1.143   1.983 -0.5293 -0.6738  1.1849
  198MOL    H8524119   7.282   0.965   2.140 -1.5466 -0.0479  3.4095
  198MOL    C8624120   7.220   1.159   2.155  0.8351  0.0507 -0.1011
  198MOL    C8724121   7.104   1.140   2.251 -0.3349 -0.2701  0.6028
  198MOL    F8824122   7.127   1.180   2.370 -0.1963 -0.0889 -0.1190
  198MOL    H8924123   7.256   1.260   2.175  2.3667 -0.2978 -1.0332
  198MOL    H9024124   7.183   1.158   2.053 -1.6921  0.4778  0.7679
  198MOL    H9124125   7.092   1.031   2.252  4.0715 -0.8449  1.1064
  198MOL    C9224126   6.973   1.217   2.215 -0.5308 -0.0387 -0.7635
  198MOL    C9324127   6.847   1.170   2.292  0.2169  0.7986 -0.5190
  198MOL    F9424128   6.737   1.234   2.249 -0.0095  0.4489  0.1935
  198MOL    H9524129   6.987   1.324   2.229 -1.9106  0.0801 -0.1918
  198MOL    H9624130   6.950   1.195   2.110 -1.0407 -2.7072 -0.1333
  198MOL    H9724131   6.850   1.208   2.395 -1.1519 -0.4921  0.0124
  198MOL    C9824132   6.808   1.015   2.301 -0.6103 -0.4828 -0.3867
  198MOL    C9924133   6.792   0.954   2.160 -0.0863 -0.8039  0.0949
  198MOL   F10024134   6.906   0.934   2.108  0.5545  0.4223 -0.1040
  198MOL   H10124135   6.892   0.967   2.351 -0.5591 -1.0253 -0.9799
  198MOL   H10224136   6.720   1.003   2.363 -0.9594 -1.7203 -1.0979
  198MOL   H10324137   6.738   1.024   2.097  0.7120 -0.2981 -0.0290
  198MOL   C10424138   6.714   0.824   2.168  0.3796 -1.0615 -0.2813
  198MOL   C10524139   6.690   0.750   2.030 -0.4289 -0.1241  0.1367
  198MOL   F10624140   6.649   0.630   2.060  0.0696 -0.4976 -0.0527
  198MOL   H10724141   6.777   0.755   2.225  0.1493  0.0748  1.3907
  198MOL   H10824142   6.624   0.840   2.229 -0.4807 -3.4676 -0.8391
  198MOL   H10924143   6.782   0.743   1.972 -1.0977  0.9655 -1.0777
  198MOL   C11024144   6.576   0.810   1.945 -0.5079  0.0887 -0.4116
  198MOL   C11124145   6.533   0.739   1.813 -0.2348 -0.2966  0.1106
  198MOL   F11224146   6.410   0.784   1.770  0.2966  0.4150  0.1702
  198MOL   H11324147   6.488   0.828   2.006 -0.6277  0.0483 -0.5713
  198MOL   H11424148   6.608   0.910   1.913  0.6959  0.0358  0.6047
  198MOL   H11524149   6.513   0.638   1.849 -0.7618 -0.1919  0.1135
  198MOL   C11624150   6.631   0.744   1.705 -0.2984  0.0275 -0.0676
  198MOL   C11724151   6.608   0.860   1.616  0.2307  0.0295  0.5033
  198MOL   F11824152   6.633   0.979   1.680 -0.4035 -0.8398 -0.6286
  198MOL   H11924153   6.735   0.745   1.736 -0.8556  0.8221  1.8140
  198MOL   H12024154   6.619   0.666   1.629  1.7638  1.2495 -1.7290
  198MOL   H12124155   6.503   0.873   1.591  0.2002 -0.1512  0.5402
  198MOL   H12224156   6.664   0.875   1.524 -3.2437 -0.7104 -1.7990
  199MOL     C124157   5.678   4.950   5.443  0.0410  0.2291 -0.3439
  199MOL     C224158   5.713   4.988   5.297  0.1210  0.2370 -0.0607
  199MOL     F324159   5.731   5.118   5.293  0.4553  0.1163  0.2105
  199MOL     H424160   5.752   4.991   5.511  1.4548 -1.2229 -0.9718
  199MOL     H524161   5.673   4.841   5.448 -0.8789  0.2643 -0.3171
  199MOL     H624162   5.622   4.975   5.239 -0.6931 -0.8455  1.4410
  199MOL     H724163   5.580   4.986   5.472  0.3814  0.3270  0.7001
  199MOL     C824164   5.851   4.930   5.252 -0.2025  0.0797 -0.1084
  199MOL     C924165   5.838   4.784   5.221 -0.5142  0.4077  0.8880
  199MOL    F1024166   5.746   4.779   5.121 -0.3587  0.0341  0.3517
  199MOL    H1124167   5.890   4.982   5.165  1.0150 -0.6018  0.0174
  199MOL    H1224168   5.922   4.950   5.332 -2.2793  1.0446  1.5584
  199MOL    H1324169   5.784   4.737   5.303  1.1467 -1.3666  0.9788
  199MOL    C1424170   5.967   4.710   5.186 -0.3114 -0.1386 -0.1960
  199MOL    C1524171   5.966   4.557   5.193  0.4887 -0.3482 -0.1466
  199MOL    F1624172   5.945   4.521   5.319 -0.2720 -0.3297  0.2242
  199MOL    H1724173   6.008   4.743   5.090 -0.7194 -1.1063 -0.7083
  199MOL    H1824174   6.048   4.749   5.247 -1.5678  0.8493  0.8487
  199MOL    H1924175   6.067   4.519   5.177  0.4850 -1.2658  1.7649
  199MOL    C2024176   5.863   4.494   5.096  0.2669  0.3443 -0.5097
  199MOL    C2124177   5.887   4.527   4.948 -0.1733 -0.4801  0.2278
  199MOL    F2224178   5.985   4.453   4.898 -0.5470 -0.2931 -0.0929
  199MOL    H2324179   5.865   4.386   5.110 -0.9239  0.2557 -0.9977
  199MOL    H2424180   5.770   4.535   5.134  0.1055 -1.7254  1.3880
  199MOL    H2524181   5.924   4.629   4.939 -2.4716  0.3278 -0.4454
  199MOL    C2624182   5.760   4.517   4.854 -0.2516  0.3776 -0.2076
  199MOL    C2724183   5.693   4.381   4.829 -0.1303  0.3006 -0.0577
  199MOL    F2824184   5.627   4.347   4.942  0.3418 -0.4340  0.3805
  199MOL    H2924185   5.682   4.579   4.896  0.0030 -0.1180  1.0100
  199MOL    H3024186   5.789   4.569   4.762 -1.1213  0.9802 -0.1396
  199MOL    H3124187   5.771   4.310   4.804 -0.5518  0.0898 -0.7833
  199MOL    C3224188   5.582   4.387   4.723  0.4576  0.3936  0.6882
  199MOL    C3324189   5.514   4.252   4.694  0.6141 -0.5282 -0.5994
  199MOL    F3424190   5.430   4.273   4.589  0.1896  0.1159 -0.5416
  199MOL    H3524191   5.514   4.469   4.747 -0.4200 -0.3671  0.8616
  199MOL    H3624192   5.623   4.418   4.627  0.3092 -1.0933  0.1351
  199MOL    H3724193   5.454   4.211   4.775  1.5183 -0.1473  0.2749
  199MOL    C3824194   5.616   4.144   4.660 -0.2326  0.2588 -0.3714
  199MOL    C3924195   5.540   4.020   4.614 -0.6025  0.0678  0.8350
  199MOL    F4024196   5.521   4.039   4.485 -0.2243  0.3020 -0.0200
  199MOL    H4124197   5.680   4.179   4.579 -0.3711  0.3887 -0.4259
  199MOL    H4224198   5.674   4.114   4.747 -2.0993 -0.8857  0.5178
  199MOL    H4324199   5.445   4.011   4.667 -0.4646 -1.1230  0.9010
  199MOL    C4424200   5.624   3.897   4.633  0.7862 -0.3147  0.1553
  199MOL    C4524201   5.629   3.863   4.787  0.2137 -0.8805  0.0158
  199MOL    F4624202   5.509   3.831   4.845 -0.1715 -0.0677  0.1130
  199MOL    H4724203   5.571   3.819   4.579 -1.5446  1.2531  0.0927
  199MOL    H4824204   5.723   3.917   4.592 -0.5162 -0.4554 -3.2259
  199MOL    H4924205   5.667   3.948   4.843  0.2587 -1.1206  0.3497
  199MOL    C5024206   5.730   3.760   4.818 -0.2955  0.0284 -0.3430
  199MOL    C5124207   5.768   3.748   4.971 -0.0284 -1.0064  0.3116
  199MOL    F5224208   5.865   3.654   4.973  0.3250 -0.0539 -0.4867
  199MOL    H5324209   5.702   3.668   4.769  1.0118  0.2489 -1.5513
  199MOL    H5424210   5.820   3.793   4.766 -0.4379  0.4045 -0.3518
  199MOL    H5524211   5.683   3.714   5.030 -1.3156  1.6646  0.0775
  199MOL    C5624212   5.835   3.878   5.023 -0.5756 -0.4318 -0.8187
  199MOL    C5724213   5.894   3.858   5.163 -0.5769  0.0149 -0.3927
  199MOL    F5824214   5.974   3.961   5.190  0.3946 -0.4815  0.6691
  199MOL    H5924215   5.921   3.902   4.960 -0.8063 -0.3700 -1.1161
  199MOL    H6024216   5.772   3.967   5.019 -0.0196 -0.0644 -1.5812
  199MOL    H6124217   5.966   3.777   5.163 -1.0407 -0.3965 -1.1680
  199MOL    C6224218   5.790   3.838   5.269  0.4858  0.7030 -1.1549
  199MOL    C6324219   5.835   3.815   5.419 -1.0235 -0.4594  0.1100
  199MOL    F6424220   5.724   3.819   5.492  0.4196 -0.1722 -0.2068
  199MOL    H6524221   5.729   3.928   5.266  0.5881  0.9151  1.6550
  199MOL    H6624222   5.723   3.761   5.230  0.1640  0.3012  0.1514
  199MOL    H6724223   5.899   3.900   5.442  1.2555 -1.5113 -2.0764
  199MOL    C6824224   5.910   3.678   5.442 -0.3761 -0.5721 -0.6914
  199MOL    C6924225   5.968   3.658   5.581 -0.2144 -0.1341 -0.1063
  199MOL    F7024226   6.058   3.756   5.599 -0.2028 -0.1873 -0.2640
  199MOL    H7124227   5.858   3.589   5.407  0.4122 -1.0139 -0.7535
  199MOL    H7224228   5.997   3.666   5.377 -0.0226  1.2571 -0.5788
  199MOL    H7324229   6.016   3.560   5.582 -0.4722 -0.2572  0.4281
  199MOL    C7424230   5.854   3.663   5.686  0.5067  0.1823 -0.3883
  199MOL    C7524231   5.904   3.611   5.823  0.1257 -0.3423  0.0812
  199MOL    F7624232   6.014   3.681   5.850  0.6568  0.3380  0.0127
  199MOL    H7724233   5.815   3.763   5.703  1.7349  0.6344 -0.1734
  199MOL    H7824234   5.772   3.598   5.654  0.4471 -0.0481  0.2251
  199MOL    H7924235   5.931   3.506   5.823  0.9450 -0.1467 -0.7000
  199MOL    C8024236   5.804   3.630   5.935 -0.2006  0.4473 -0.9277
  199MOL    C8124237   5.686   3.535   5.932  0.6821 -0.5067  1.0734
  199MOL    F8224238   5.714   3.415   5.992  0.3802 -0.5326  0.3878
  199MOL    H8324239   5.858   3.607   6.027 -0.8562 -0.2117 -0.7101
  199MOL    H8424240   5.775   3.735   5.943  1.1091  0.5637  3.0124
  199MOL    H8524241   5.661   3.511   5.828  1.8543  0.0156  0.6557
  199MOL    C8624242   5.570   3.571   6.023  0.1334 -0.7044 -0.4192
  199MOL    C8724243   5.436   3.494   5.993 -0.0027 -0.0117  0.0885
  199MOL    F8824244   5.389   3.546   5.874  0.0004  0.2611 -0.0018
  199MOL    H8924245   5.592   3.553   6.129  0.0958  0.8998 -0.1350
  199MOL    H9024246   5.552   3.678   6.024  1.8362 -0.4086 -0.8463
  199MOL    H9124247   5.367   3.541   6.062  0.7608  1.0640  0.1395
  199MOL    C9224248   5.425   3.346   6.008 -0.1277 -0.7924  0.3247
  199MOL    C9324249   5.280   3.303   5.994 -0.4037  0.0238 -0.3359
  199MOL    F9424250   5.282   3.175   5.956 -0.0674  0.2730  0.2346
  199MOL    H9524251   5.487   3.304   5.929  0.0631  0.6581 -0.3081
  199MOL    H9624252   5.468   3.294   6.094 -0.4484 -3.1276 -0.8854
  199MOL    H9724253   5.230   3.364   5.919  0.4356 -0.9698 -1.7244
  199MOL    C9824254   5.203   3.302   6.127 -0.8561  0.3438 -0.9516
  199MOL    C9924255   5.055   3.283   6.114 -0.2590 -1.4837  0.3140
  199MOL   F10024256   5.004   3.259   6.237 -0.2744  0.0315 -0.2691
  199MOL   H10124257   5.220   3.216   6.191 -1.1458 -0.8986 -2.5132
  199MOL   H10224258   5.231   3.393   6.180  2.3592 -0.0982 -1.8190
  199MOL   H10324259   5.035   3.193   6.055  1.3646 -1.6947  0.0639
  199MOL   C10424260   4.984   3.408   6.058  0.9817  0.5935  0.1516
  199MOL   C10524261   4.834   3.413   6.039 -0.4260 -0.3538  0.0723
  199MOL   F10624262   4.813   3.540   6.028 -0.1287  0.0971 -0.1507
  199MOL   H10724263   5.021   3.481   6.130  0.6633  1.6152 -0.7262
  199MOL   H10824264   5.037   3.444   5.970  2.1093  0.9293  0.9523
  199MOL   H10924265   4.781   3.365   6.122  0.1691  0.6131  1.0270
  199MOL   C11024266   4.778   3.352   5.917  0.3174 -0.4225 -0.2313
  199MOL   C11124267   4.629   3.393   5.879  0.6626 -0.0760  0.2790
  199MOL   F11224268   4.591   3.321   5.773  0.3814 -0.0461  0.0004
  199MOL   H11324269   4.851   3.358   5.836  0.7478 -0.2785  0.1641
  199MOL   H11424270   4.787   3.246   5.939  1.4869 -0.0592  1.0891
  199MOL   H11524271   4.630   3.499   5.853  2.3067  0.3480  2.0047
  199MOL   C11624272   4.532   3.377   5.995  1.0906  0.3014  0.7359
  199MOL   C11724273   4.385   3.365   5.951 -0.2014 -0.0409  0.4318
  199MOL   F11824274   4.351   3.483   5.898  0.3861  0.0952 -0.4987
  199MOL   H11924275   4.553   3.291   6.058  0.7000  0.2254  0.7643
  199MOL   H12024276   4.539   3.463   6.061 -0.0830  1.0387 -0.0610
  199MOL   H12124277   4.320   3.349   6.037 -2.0973 -1.7200 -1.2661
  199MOL   H12224278   4.372   3.292   5.872 -2.0566  2.7810 -2.0059
  200MOL     C124279   6.484   7.266   0.476  0.7383  0.8402  0.2960
  200MOL     C224280   6.487   7.110   0.445  0.4574 -0.4128  0.1666
  200MOL     F324281   6.577   7.048   0.525  0.5166 -0.1755 -0.1231
  200MOL     H424282   6.583   7.309   0.489  1.8887 -1.9341  0.9488
  200MOL     H524283   6.429   7.272   0.570  0.0756  1.4734 -0.1324
  200MOL     H624284   6.525   7.085   0.346 -0.3202  0.2665 -0.3038
  200MOL     H724285   6.426   7.332   0.411 -2.1353 -2.1232 -0.2987
  200MOL     C824286   6.343   7.047   0.446  0.1758  0.0353  0.0850
  200MOL     C924287   6.241   7.106   0.345 -0.5721  0.5043 -0.0375
  200MOL    F1024288   6.284   7.069   0.222  0.1100  0.0907  0.2005
  200MOL    H1124289   6.355   6.941   0.423 -1.1271  0.1220 -1.0077
  200MOL    H1224290   6.307   7.059   0.549 -1.7435  0.7898 -0.6501
  200MOL    H1324291   6.246   7.215   0.352 -2.0025  0.6556 -1.1142
  200MOL    C1424292   6.095   7.046   0.355  0.0474 -0.1484 -0.0264
  200MOL    C1524293   5.998   7.111   0.252  0.1333  0.1857 -0.3115
  200MOL    F1624294   5.982   7.237   0.275 -0.4673  0.5983  1.2972
  200MOL    H1724295   6.100   6.937   0.346 -1.4712 -0.2062 -0.2199
  200MOL    H1824296   6.054   7.062   0.454 -0.7600 -0.0346 -0.3744
  200MOL    H1924297   5.903   7.060   0.268 -0.1419  0.5083 -0.9030
  200MOL    C2024298   6.025   7.083   0.104 -0.4723 -0.4209  0.5408
  200MOL    C2124299   5.913   7.112   0.003 -0.0543 -0.2398  0.4714
  200MOL    F2224300   5.904   7.247   7.998  0.3738 -0.0321 -0.2832
  200MOL    H2324301   6.116   7.141   0.086 -2.1330  1.7841 -1.0193
  200MOL    H2424302   6.055   6.979   0.089 -0.1747 -0.0262 -1.8178
  200MOL    H2524303   5.813   7.085   0.038  0.4460 -2.4256  0.2944
  200MOL    C2624304   5.922   7.068   7.859  0.6692 -0.4477  0.2465
  200MOL    C2724305   5.792   7.074   7.774 -0.3386 -0.3083  0.1282
  200MOL    F2824306   5.700   6.990   7.821 -0.2786 -0.6543 -0.4465
  200MOL    H2924307   6.006   7.115   7.807  0.3252  1.0977  1.0623
  200MOL    H3024308   5.946   6.962   7.863  1.7166 -0.1739  2.1612
  200MOL    H3124309   5.807   7.043   7.671  0.0830 -0.9283  0.3752
  200MOL    C3224310   5.736   7.224   7.764  0.6725  0.1734 -0.0519
  200MOL    C3324311   5.822   7.325   7.696 -0.7734 -0.3563  0.4855
  200MOL    F3424312   5.875   7.276   7.584  0.2681  0.0771  0.1726
  200MOL    H3524313   5.641   7.221   7.710  0.5690  1.9388  0.0105
  200MOL    H3624314   5.698   7.249   7.863  0.6570 -0.1713  0.0285
  200MOL    H3724315   5.910   7.347   7.757 -0.6202  1.4007 -0.3152
  200MOL    C3824316   5.749   7.459   7.666 -0.0475 -0.1725 -0.1413
  200MOL    C3924317   5.843   7.569   7.616 -0.3805  0.5759  0.5039
  200MOL    F4024318   5.912   7.521   7.516  0.0536 -0.6532 -0.4252
  200MOL    H4124319   5.660   7.451   7.603 -0.2261 -2.4514  0.3828
  200MOL    H4224320   5.724   7.496   7.766  1.0871 -4.4036  1.7956
  200MOL    H4324321   5.921   7.590   7.688 -1.2524  0.9640  1.3489
  200MOL    C4424322   5.767   7.696   7.558  0.4075  0.2815 -0.1473
  200MOL    C4524323   5.864   7.818   7.521 -0.9737  0.4361  0.1241
  200MOL    F4624324   5.929   7.792   7.412  0.0654  0.2742 -0.2580
  200MOL    H4724325   5.707   7.668   7.472  0.6267 -2.9924  0.7032
  200MOL    H4824326   5.690   7.729   7.628 -0.6784 -0.4449 -0.9860
  200MOL    H4924327   5.941   7.840   7.594  0.3194 -1.7406 -0.5279
  200MOL    C5024328   5.783   7.945   7.491 -0.2364 -0.5674 -0.1050
  200MOL    C5124329   5.721   0.014   7.617 -0.2008 -0.3708  0.2161
  200MOL    F5224330   5.823   0.020   7.707  0.2169 -0.3517  0.4550
  200MOL    H5324331   5.863   0.006   7.454  0.2500 -1.2753 -0.3100
  200MOL    H5424332   5.715   7.923   7.409 -0.5319  0.4573 -0.1392
  200MOL    H5524333   5.644   7.961   7.671 -0.8272 -0.8234 -1.1177
  200MOL    C5624334   5.670   0.154   7.594  0.5275  0.4485  0.3453
  200MOL    C5724335   5.632   0.228   7.723 -0.1607 -0.2515 -0.2776
  200MOL    F5824336   5.592   0.357   7.698 -0.3488  0.0662  0.6842
  200MOL    H5924337   5.753   0.207   7.547  1.6755 -0.4650  1.2872
  200MOL    H6024338   5.597   0.161   7.514 -1.1489  0.0300  1.8028
  200MOL    H6124339   5.716   0.235   7.792 -1.1191  1.5643  0.7379
  200MOL    C6224340   5.512   0.162   7.797 -0.6855 -0.1460  0.1562
  200MOL    C6324341   5.368   0.167   7.731  0.0959 -0.6679 -0.5977
  200MOL    F6424342   5.365   0.059   7.661  0.4132 -0.5029 -0.8606
  200MOL    H6524343   5.535   0.067   7.845  0.0887 -0.4523 -0.8144
  200MOL    H6624344   5.494   0.230   7.881 -0.1664 -0.6848  0.7090
  200MOL    H6724345   5.356   0.244   7.655 -0.5463 -1.9499 -1.8110
  200MOL    C6824346   5.251   0.155   7.832  0.9747 -0.2784  0.4180
  200MOL    C6924347   5.112   0.119   7.776 -0.4483 -0.3502  0.2585
  200MOL    F7024348   5.019   0.103   7.866 -0.5128 -0.3453 -0.4585
  200MOL    H7124349   5.286   0.076   7.898 -2.1249 -1.7000  0.4643
  200MOL    H7224350   5.240   0.250   7.885  2.4264  0.2671 -0.2340
  200MOL    H7324351   5.110   0.026   7.720  2.0800  0.7785 -1.7710
  200MOL    C7424352   5.053   0.236   7.692  0.0042  0.2954 -0.1325
  200MOL    C7524353   4.898   0.217   7.657  0.7368  0.4003 -0.8217
  200MOL    F7624354   4.835   0.243   7.772 -0.2791  0.4610 -0.0893
  200MOL    H7724355   5.055   0.330   7.747 -0.0771  0.5720 -0.6001
  200MOL    H7824356   5.109   0.247   7.600  0.1205  1.8702  0.1202
  200MOL    H7924357   4.875   0.113   7.635 -1.7620  1.0092 -1.2639
  200MOL    C8024358   4.863   0.320   7.540 -0.0303 -0.3706 -0.6208
  200MOL    C8124359   4.716   0.341   7.494 -0.0061 -0.1316  0.7413
  200MOL    F8224360   4.666   0.220   7.473 -0.2877  0.1604 -0.5539
  200MOL    H8324361   4.910   0.413   7.573  1.7398 -1.9051  1.3184
  200MOL    H8424362   4.915   0.303   7.446  0.0442  0.8944 -0.8163
  200MOL    H8524363   4.711   0.395   7.400 -1.6076  0.5353  1.1812
  200MOL    C8624364   4.631   0.408   7.602  0.5087  0.2296  0.1549
  200MOL    C8724365   4.483   0.445   7.550  0.4547 -0.5313  0.5954
  200MOL    F8824366   4.403   0.343   7.518  0.1987  0.0127  0.1402
  200MOL    H8924367   4.631   0.335   7.683  0.1825 -2.2029 -1.9610
  200MOL    H9024368   4.683   0.495   7.642  0.0972  1.7267 -2.4544
  200MOL    H9124369   4.489   0.492   7.452 -0.7435  0.9721  1.2184
  200MOL    C9224370   4.397   0.536   7.644 -0.0247  0.4016 -0.1418
  200MOL    C9324371   4.255   0.584   7.600 -0.3252 -0.5507 -0.3311
  200MOL    F9424372   4.210   0.654   7.700 -0.6315 -0.4298 -0.2082
  200MOL    H9524373   4.381   0.468   7.728 -0.8622  1.0737  0.2465
  200MOL    H9624374   4.460   0.618   7.677  0.2322  0.3013 -0.3815
  200MOL    H9724375   4.191   0.496   7.594 -1.6533  0.3191  0.7951
  200MOL    C9824376   4.241   0.689   7.491 -0.2018 -0.5554  0.4531
  200MOL    C9924377   4.307   0.826   7.521 -0.6822  0.0820 -0.2650
  200MOL   F10024378   4.446   0.808   7.522  0.3823  0.1299  0.7218
  200MOL   H10124379   4.283   0.664   7.393 -1.7791  1.5440 -0.7820
  200MOL   H10224380   4.135   0.709   7.481 -0.3548 -1.0487  1.0203
  200MOL   H10324381   4.273   0.861   7.619  1.3429 -1.6947  1.1266
  200MOL   C10424382   4.280   0.936   7.416  0.6558 -0.6274 -0.4873
  200MOL   C10524383   4.319   1.079   7.454 -0.6047 -0.3803 -0.0590
  200MOL   F10624384   4.267   1.117   7.576  0.4620  0.6286 -0.0560
  200MOL   H10724385   4.338   0.913   7.327  0.5721 -1.1449 -0.4082
  200MOL   H10824386   4.173   0.929   7.397  0.5140 -2.6455  0.9097
  200MOL   H10924387   4.278   1.140   7.373 -1.4114  1.6538  1.8175
  200MOL   C11024388   4.472   1.100   7.462  0.3088 -0.5561  0.3814
  200MOL   C11124389   4.509   1.252   7.466  0.6759 -0.5030 -0.1473
  200MOL   F11224390   4.626   1.260   7.527 -0.6363  0.4618 -0.3181
  200MOL   H11324391   4.518   1.046   7.545  2.4422  0.1127 -0.3223
  200MOL   H11424392   4.514   1.046   7.377 -2.3084  0.6188 -1.7231
  200MOL   H11524393   4.441   1.282   7.546 -0.4314 -2.3919 -0.3548
  200MOL   C11624394   4.505   1.327   7.329  0.1041  0.2766  0.0332
  200MOL   C11724395   4.545   1.479   7.340  0.3284 -0.2312  0.1495
  200MOL   F11824396   4.545   1.541   7.224  0.1456 -0.1366  0.4966
  200MOL   H11924397   4.566   1.270   7.259 -1.1486 -0.6806 -0.2981
  200MOL   H12024398   4.402   1.314   7.295  0.0803 -0.4161  0.3556
  200MOL   H12124399   4.648   1.482   7.376  0.5277  1.5839 -0.5240
  200MOL   H12224400   4.478   1.532   7.407  0.5126 -0.3008  0.3914
  201MOL     C124401   5.180   5.992   3.115  0.7214 -0.0756  0.4696
  201MOL     C224402   5.268   6.104   3.058 -0.9699 -0.0875 -0.0395
  201MOL     F324403   5.201   6.158   2.956 -0.0624 -0.1234  0.4383
  201MOL     H424404   5.093   6.041   3.160  1.2354  1.0129  0.2920
  201MOL     H524405   5.234   5.949   3.198  1.2877 -2.2246 -0.9778
  201MOL     H624406   5.359   6.066   3.011 -1.1275  0.8253 -1.1040
  201MOL     H724407   5.147   5.907   3.055 -0.5846  1.4233 -1.0138
  201MOL     C824408   5.307   6.213   3.150 -0.1308 -0.2406  0.8856
  201MOL     C924409   5.411   6.321   3.097  0.2568 -0.2193  0.4706
  201MOL    F1024410   5.359   6.386   2.990 -0.2712 -0.2064 -0.1936
  201MOL    H1124411   5.222   6.276   3.177  0.9910  1.7810 -0.1332
  201MOL    H1224412   5.348   6.167   3.240  2.6214  1.5340  0.6020
  201MOL    H1324413   5.492   6.277   3.038 -0.6905  0.3566 -1.3215
  201MOL    C1424414   5.476   6.419   3.190  0.5605 -0.4271 -0.0367
  201MOL    C1524415   5.376   6.513   3.258 -0.0499 -0.1886  0.6007
  201MOL    F1624416   5.298   6.440   3.334  0.0785  0.1171 -0.6368
  201MOL    H1724417   5.543   6.374   3.263  0.6708 -1.7013 -0.9102
  201MOL    H1824418   5.543   6.481   3.131  0.5749  0.7062  1.1295
  201MOL    H1924419   5.316   6.550   3.174  0.2859 -1.0674 -0.0321
  201MOL    C2024420   5.451   6.612   3.348  0.1658 -0.0762  0.3204
  201MOL    C2124421   5.353   6.721   3.401  0.2990  0.3886 -0.5697
  201MOL    F2224422   5.294   6.676   3.511  0.5586  0.1610  0.4822
  201MOL    H2324423   5.515   6.572   3.427  1.7989  1.1464 -0.3258
  201MOL    H2424424   5.520   6.671   3.287 -0.6885  3.3419  2.5011
  201MOL    H2524425   5.274   6.748   3.331  0.7104 -0.5169 -1.4064
  201MOL    C2624426   5.416   6.851   3.440  0.1810  0.5227  0.0702
  201MOL    C2724427   5.403   6.951   3.325 -0.6071 -0.1786 -0.1789
  201MOL    F2824428   5.415   6.901   3.205  0.6591  0.2793  0.0163
  201MOL    H2924429   5.374   6.895   3.531 -0.3288  0.2586 -0.0340
  201MOL    H3024430   5.520   6.833   3.467  0.4982  2.1278 -0.0754
  201MOL    H3124431   5.493   7.013   3.324 -0.2037 -0.7329  0.9595
  201MOL    C3224432   5.281   7.038   3.331  0.4592 -0.1559  0.7141
  201MOL    C3324433   5.256   7.150   3.224 -0.2251  0.0227 -0.5762
  201MOL    F3424434   5.141   7.204   3.250 -0.0741 -0.2743 -0.2023
  201MOL    H3524435   5.194   6.972   3.329  0.4613 -0.1415 -0.1990
  201MOL    H3624436   5.278   7.090   3.426 -0.3559  0.3965  0.3952
  201MOL    H3724437   5.245   7.099   3.129  0.4454  2.0269 -1.7602
  201MOL    C3824438   5.352   7.262   3.203 -0.1882  0.0920  0.1593
  201MOL    C3924439   5.305   7.367   3.100 -0.1655  0.1778 -0.2167
  201MOL    F4024440   5.401   7.458   3.096  0.0299 -0.0149  0.6608
  201MOL    H4124441   5.364   7.319   3.295  0.9703  0.7149 -0.3716
  201MOL    H4224442   5.450   7.217   3.187 -0.5766 -1.3754  1.7506
  201MOL    H4324443   5.217   7.419   3.137 -0.7082 -0.8428 -0.0504
  201MOL    C4424444   5.272   7.308   2.960 -0.2711 -0.4695  0.1617
  201MOL    C4524445   5.255   7.412   2.843  0.0436  0.5596 -0.2776
  201MOL    F4624446   5.220   7.336   2.737 -0.3326 -0.0889  0.5329
  201MOL    H4724447   5.345   7.238   2.917 -0.7602 -1.4207  0.8628
  201MOL    H4824448   5.174   7.261   2.964 -0.2450 -0.4315  1.4400
  201MOL    H4924449   5.352   7.454   2.819  1.1776 -2.3390 -0.9900
  201MOL    C5024450   5.155   7.523   2.874 -0.0902  0.5814  0.0342
  201MOL    C5124451   5.142   7.629   2.766  0.0595 -0.0775  0.7003
  201MOL    F5224452   5.271   7.666   2.733  0.2610  0.9760  0.3243
  201MOL    H5324453   5.053   7.488   2.891 -0.0573 -1.1937 -3.0239
  201MOL    H5424454   5.180   7.577   2.965 -1.8731  2.8173 -0.7683
  201MOL    H5524455   5.095   7.725   2.790  3.0160  0.9759  2.5003
  201MOL    C5624456   5.072   7.582   2.639 -0.5616  0.0611  0.0025
  201MOL    C5724457   4.921   7.554   2.653 -0.4218 -0.0946 -0.0303
  201MOL    F5824458   4.850   7.667   2.660 -0.7041  0.1335 -0.0293
  201MOL    H5924459   5.081   7.664   2.568  0.2145 -0.9366 -1.0688
  201MOL    H6024460   5.116   7.490   2.602 -2.8179 -0.3865 -1.6948
  201MOL    H6124461   4.905   7.500   2.747 -1.1364 -1.2116 -0.7749
  201MOL    C6224462   4.872   7.472   2.535 -0.1472 -0.4245 -0.3084
  201MOL    C6324463   4.726   7.422   2.548 -0.3081  0.3047  0.1386
  201MOL    F6424464   4.694   7.346   2.444 -0.1070  0.2515  0.4673
  201MOL    H6524465   4.875   7.530   2.443  2.0764  0.2067  0.1442
  201MOL    H6624466   4.932   7.385   2.512  0.0275 -0.7290  1.1939
  201MOL    H6724467   4.656   7.505   2.536 -2.6465 -1.5568  0.6435
  201MOL    C6824468   4.697   7.342   2.681 -0.5423  0.0521  0.1587
  201MOL    C6924469   4.780   7.213   2.701 -0.2919 -0.0135 -0.3217
  201MOL    F7024470   4.913   7.224   2.687 -0.2286 -0.0404 -0.4116
  201MOL    H7124471   4.711   7.406   2.768 -1.1784 -0.7860  0.8926
  201MOL    H7224472   4.592   7.316   2.670 -0.9955  1.8865  0.0030
  201MOL    H7324473   4.747   7.133   2.634  0.2301 -0.3059 -0.2355
  201MOL    C7424474   4.764   7.149   2.844  0.7211  0.6824  0.6864
  201MOL    C7524475   4.821   7.007   2.864 -0.9727  0.6341  1.2478
  201MOL    F7624476   4.837   6.999   2.995 -0.2070  0.2972 -0.1508
  201MOL    H7724477   4.813   7.214   2.917  1.4251  0.0721  0.7653
  201MOL    H7824478   4.661   7.147   2.879  0.4242 -1.4062 -0.2558
  201MOL    H7924479   4.918   7.008   2.815 -0.7579  2.6245  1.6598
  201MOL    C8024480   4.744   6.880   2.821  0.3251 -0.3948 -1.0894
  201MOL    C8124481   4.614   6.860   2.895  0.1360 -0.3204 -0.2074
  201MOL    F8224482   4.523   6.949   2.850 -0.3582 -0.1202 -0.5161
  201MOL    H8324483   4.733   6.883   2.713  2.5718  2.8153 -1.2961
  201MOL    H8424484   4.802   6.791   2.847 -2.9173 -1.9388  1.1929
  201MOL    H8524485   4.629   6.878   3.001 -2.4181  0.1656  0.1249
  201MOL    C8624486   4.547   6.719   2.873  1.1763  0.0183 -0.3967
  201MOL    C8724487   4.587   6.610   2.967  0.5341  0.0424  0.3618
  201MOL    F8824488   4.547   6.644   3.094 -0.7099  0.4359 -0.0343
  201MOL    H8924489   4.442   6.737   2.894  1.0247 -2.5232  1.3210
  201MOL    H9024490   4.566   6.685   2.771  1.7205 -0.9187  0.0061
  201MOL    H9124491   4.695   6.596   2.962  0.4154 -0.6313 -0.3201
  201MOL    C9224492   4.520   6.482   2.923 -0.9096 -0.9034  0.4100
  201MOL    C9324493   4.558   6.361   3.006  0.1221 -0.4223 -0.2690
  201MOL    F9424494   4.514   6.375   3.129  0.0058 -0.1180  0.1055
  201MOL    H9524495   4.412   6.500   2.924 -0.5713  2.0961 -3.4336
  201MOL    H9624496   4.531   6.464   2.816  2.1975  1.6057  0.2511
  201MOL    H9724497   4.667   6.361   3.007  0.1214 -1.6827  1.0600
  201MOL    C9824498   4.505   6.234   2.939  0.1388  0.5415  0.2805
  201MOL    C9924499   4.550   6.112   3.019  0.0946  0.4459  0.6587
  201MOL   F10024500   4.470   6.103   3.121 -0.1669  0.0397 -0.7413
  201MOL   H10124501   4.398   6.237   2.955  0.0521 -2.5185  0.5517
  201MOL   H10224502   4.540   6.243   2.836 -1.4640  2.0480 -0.1656
  201MOL   H10324503   4.650   6.131   3.057  1.5814 -3.3070 -1.1372
  201MOL   C10424504   4.540   5.988   2.936 -0.4142 -0.3539 -0.3643
  201MOL   C10524505   4.627   5.869   2.995 -0.7188  0.2757 -0.4640
  201MOL   F10624506   4.753   5.891   2.969 -0.1648  0.2525 -0.3361
  201MOL   H10724507   4.437   5.952   2.934  0.3167 -2.4705 -2.3202
  201MOL   H10824508   4.550   6.017   2.832  2.1858  1.1839  0.2569
  201MOL   H10924509   4.585   5.786   2.938 -0.3678 -1.6475  1.9559
  201MOL   C11024510   4.614   5.846   3.148 -1.0535 -0.4205 -0.1372
  201MOL   C11124511   4.474   5.791   3.179  0.0768 -0.1744 -0.1227
  201MOL   F11224512   4.453   5.690   3.094  0.1299  0.1722  0.1872
  201MOL   H11324513   4.690   5.776   3.185  1.4180  2.4727  0.4695
  201MOL   H11424514   4.640   5.939   3.197  1.2157 -0.1745 -1.7272
  201MOL   H11524515   4.398   5.860   3.143  0.9713 -0.3119 -2.3234
  201MOL   C11624516   4.448   5.761   3.326 -0.5108  0.4384  0.1685
  201MOL   C11724517   4.305   5.737   3.368 -0.0641  1.1183  0.2907
  201MOL   F11824518   4.294   5.718   3.502  0.3994  0.1913 -0.4792
  201MOL   H11924519   4.506   5.676   3.363 -1.8584 -0.8609 -0.6471
  201MOL   H12024520   4.490   5.852   3.369 -0.3858  0.9543 -1.0164
  201MOL   H12124521   4.271   5.649   3.314 -2.0281  1.8280  0.3321
  201MOL   H12224522   4.238   5.819   3.343  1.1934  2.0635 -0.0225
  202MOL     C124523   6.188   7.413   0.034  0.2716 -0.4201  0.1482
  202MOL     C224524   6.113   7.547   0.066 -0.9863  0.3934 -0.1128
  202MOL     F324525   6.218   7.619   0.104 -0.0067  0.2264 -0.8028
  202MOL     H424526   6.242   7.367   0.117 -1.8249 -0.1524  1.6907
  202MOL     H524527   6.269   7.454   7.977  0.3893 -0.9012 -0.0272
  202MOL     H624528   6.040   7.527   0.145  0.5332 -1.0876  0.9656
  202MOL     H724529   6.132   7.339   7.980 -0.8198  0.4747  0.0348
  202MOL     C824530   6.051   7.616   7.945  0.0905  0.2975  0.2641
  202MOL     C924531   5.985   7.753   7.963 -0.1462  0.2723 -0.1787
  202MOL    F1024532   5.937   7.785   7.845  0.3026  0.2558 -0.0978
  202MOL    H1124533   6.117   7.610   7.858 -0.8011 -0.2934 -0.3792
  202MOL    H1224534   5.967   7.556   7.911 -0.5930  0.7588  1.1082
  202MOL    H1324535   6.061   7.828   7.986  0.1126  0.9570 -3.1739
  202MOL    C1424536   5.866   7.752   0.058  0.0987 -0.7734  0.7267
  202MOL    C1524537   5.793   7.887   0.078  0.0484 -0.1919 -0.2413
  202MOL    F1624538   5.666   7.871   0.123 -0.1806  0.2388  0.0156
  202MOL    H1724539   5.797   7.677   0.019  0.1427  0.1037 -1.0680
  202MOL    H1824540   5.893   7.715   0.157 -1.4187  0.3385  1.5919
  202MOL    H1924541   5.778   7.916   7.977 -0.2938 -1.7753 -0.6368
  202MOL    C2024542   5.884   7.983   0.172 -0.3445 -0.2720  0.6394
  202MOL    C2124543   5.843   0.122   0.167  0.4013  0.1511  0.3745
  202MOL    F2224544   5.741   0.139   0.251  0.3868  0.5212  0.3166
  202MOL    H2324545   5.910   7.949   0.272 -0.6198  2.9523  1.8359
  202MOL    H2424546   5.980   7.983   0.120 -1.2308  0.1299 -1.0159
  202MOL    H2524547   5.788   0.146   0.077 -0.1198  1.0015  0.9142
  202MOL    C2624548   5.951   0.228   0.201  0.1487  0.3293  0.0667
  202MOL    C2724549   5.900   0.372   0.200 -0.2497 -0.0432 -0.2976
  202MOL    F2824550   5.997   0.457   0.242 -0.3531 -0.0264 -0.2648
  202MOL    H2924551   5.990   0.217   0.302 -1.9148  0.6257  0.9234
  202MOL    H3024552   6.033   0.208   0.131  1.4900  2.0212  1.1360
  202MOL    H3124553   5.812   0.379   0.264  0.1273  3.1320 -0.0428
  202MOL    C3224554   5.850   0.421   0.060 -0.4640 -0.3090 -0.2363
  202MOL    C3324555   5.746   0.534   0.060  0.4370  0.6652 -0.3057
  202MOL    F3424556   5.798   0.636   0.126 -0.6297  0.1303  0.0992
  202MOL    H3524557   5.937   0.454   0.004  1.8855 -2.8198  1.7731
  202MOL    H3624558   5.805   0.343   8.002  2.4612 -1.8170 -0.5250
  202MOL    H3724559   5.648   0.503   0.096  0.5513 -0.1210 -0.6531
  202MOL    C3824560   5.726   0.583   7.912 -1.0343 -0.4817  0.5650
  202MOL    C3924561   5.624   0.695   7.900 -0.0100 -0.0432 -0.2822
  202MOL    F4024562   5.629   0.750   7.774 -0.2829  0.1011 -0.1480
  202MOL    H4124563   5.819   0.625   7.872 -1.6378  1.3383  1.0133
  202MOL    H4224564   5.703   0.508   7.837  2.7332  1.1008 -2.3328
  202MOL    H4324565   5.653   0.783   7.958  1.1162  0.5792 -1.7667
  202MOL    C4424566   5.472   0.666   7.937 -0.0585  0.3473  1.0034
  202MOL    C4524567   5.381   0.788   7.935 -0.1088 -0.2979 -0.1510
  202MOL    F4624568   5.385   0.849   7.814 -0.1374  0.1938 -0.1870
  202MOL    H4724569   5.445   0.591   7.862 -0.4330  0.3249  1.1595
  202MOL    H4824570   5.469   0.626   0.035  0.3967 -0.5548  0.6726
  202MOL    H4924571   5.413   0.857   0.010 -1.7176 -1.6974  1.8098
  202MOL    C5024572   5.230   0.757   7.955 -0.5535 -0.3108  0.2065
  202MOL    C5124573   5.190   0.708   0.082  0.7563  0.0322 -0.0827
  202MOL    F5224574   5.265   0.766   0.178 -0.3240  0.0607 -0.1803
  202MOL    H5324575   5.191   0.858   7.947 -0.2491 -0.3989 -2.7826
  202MOL    H5424576   5.184   0.710   7.868  1.2906  0.4525 -1.2185
  202MOL    H5524577   5.219   0.603   0.085  0.7806  0.0567  0.6600
  202MOL    C5624578   5.038   0.719   0.112 -0.1431  0.2633  0.1693
  202MOL    C5724579   4.940   0.643   0.022 -0.3886  0.7526  0.1221
  202MOL    F5824580   4.970   0.518   0.030 -0.4427 -0.3145 -0.1236
  202MOL    H5924581   5.023   0.692   0.217  0.7439 -3.0697 -0.5089
  202MOL    H6024582   5.007   0.822   0.096  0.1278  0.5099  1.1677
  202MOL    H6124583   4.947   0.685   7.924 -2.8070  1.8922  0.3913
  202MOL    C6224584   4.797   0.647   0.068 -0.4395  0.1059  0.5571
  202MOL    C6324585   4.690   0.608   7.967  0.4054  0.2357 -0.4269
  202MOL    F6424586   4.719   0.490   7.916 -0.3697  0.3446 -0.2056
  202MOL    H6524587   4.788   0.578   0.151  0.3073 -2.4344 -1.4062
  202MOL    H6624588   4.770   0.746   0.106  1.5103  1.8696 -2.4592
  202MOL    H6724589   4.688   0.689   7.894  0.6302 -0.0413 -0.7448
  202MOL    C6824590   4.550   0.585   0.006  0.3277 -0.0032  0.1756
  202MOL    C6924591   4.476   0.727   0.041  0.1789  0.4773 -0.0006
  202MOL    F7024592   4.478   0.807   7.933 -0.3281 -0.1263 -0.3391
  202MOL    H7124593   4.489   0.536   7.933  0.9569 -1.0844  0.3577
  202MOL    H7224594   4.539   0.514   0.088 -1.0385  0.1834  0.1695
  202MOL    H7324595   4.544   0.775   0.111  1.0530  0.2225 -0.6761
  202MOL    C7424596   4.335   0.723   0.096  0.4543  0.3945 -0.5093
  202MOL    C7524597   4.321   0.661   0.243  0.0233  0.5201  0.5156
  202MOL    F7624598   4.410   0.717   0.324  0.6137  0.2055 -0.3388
  202MOL    H7724599   4.310   0.828   0.114 -0.1385 -0.1461  1.8959
  202MOL    H7824600   4.273   0.670   0.024  1.4089 -0.2075 -0.8988
  202MOL    H7924601   4.344   0.555   0.235  2.3493  0.9144  1.4075
  202MOL    C8024602   4.178   0.664   0.299  0.2430  0.5044  0.3018
  202MOL    C8124603   4.110   0.798   0.348 -0.7427  0.4344 -0.0073
  202MOL    F8224604   4.106   0.870   0.235 -0.0301  0.2079  0.6692
  202MOL    H8324605   4.105   0.623   0.229  1.0171  0.5861 -0.5617
  202MOL    H8424606   4.183   0.599   0.387 -0.1954  0.2687  0.1551
  202MOL    H8524607   4.180   0.853   0.411 -0.3313  0.0500 -0.1242
  202MOL    C8624608   3.963   0.778   0.404 -0.5361  0.6341  0.8443
  202MOL    C8724609   3.971   0.724   0.540 -0.3505 -0.0618  0.4146
  202MOL    F8824610   4.057   0.795   0.619  0.2434 -0.0897 -0.1419
  202MOL    H8924611   3.896   0.863   0.395 -1.5563  0.0424  2.6381
  202MOL    H9024612   3.911   0.701   0.348 -2.4311  1.6656  1.1468
  202MOL    H9124613   4.003   0.620   0.541  0.3751  0.1367  3.1618
  202MOL    C9224614   3.827   0.723   0.608  0.1590 -0.2206  0.2399
  202MOL    C9324615   3.818   0.687   0.756  0.0293  0.4359  0.6922
  202MOL    F9424616   3.868   0.788   0.832 -0.2274 -0.5339  0.3646
  202MOL    H9524617   3.776   0.819   0.597 -0.3448 -0.7282 -2.3821
  202MOL    H9624618   3.777   0.644   0.553  2.4774 -1.5571  0.0006
  202MOL    H9724619   3.894   0.613   0.782 -2.0791 -1.8500  0.5410
  202MOL    C9824620   3.680   0.642   0.808  0.3438  0.3897  0.2043
  202MOL    C9924621   3.626   0.511   0.745 -0.1184  0.1708  0.5187
  202MOL   F10024622   3.715   0.419   0.748  0.3399  0.0124 -0.3500
  202MOL   H10124623   3.683   0.637   0.917 -0.5262 -0.9907  0.1759
  202MOL   H10224624   3.611   0.724   0.787  1.1276  1.2739  1.0341
  202MOL   H10324625   3.605   0.541   0.642  0.7963 -0.6490  0.0904
  202MOL   C10424626   3.497   0.464   0.826  0.2848  0.2617  0.2142
  202MOL   C10524627   3.376   0.566   0.830  0.4866 -0.2897 -0.3012
  202MOL   F10624628   3.339   0.617   0.714  0.2060 -0.5891  0.0743
  202MOL   H10724629   3.460   0.368   0.791 -0.0459  0.0779  1.0471
  202MOL   H10824630   3.533   0.446   0.927  0.6975 -1.1585 -0.1830
  202MOL   H10924631   3.415   0.650   0.888 -2.6436  0.8552  0.2664
  202MOL   C11024632   3.248   0.511   0.899 -0.3099  0.5673 -0.3763
  202MOL   C11124633   3.274   0.471   1.048  0.2838 -0.2416  0.8368
  202MOL   F11224634   3.351   0.571   1.091 -0.1186 -0.4007  0.0207
  202MOL   H11324635   3.175   0.592   0.905 -1.3638 -0.5223  2.7239
  202MOL   H11424636   3.209   0.431   0.836  0.8229 -0.8940  0.7454
  202MOL   H11524637   3.342   0.386   1.037  0.9400  0.1037  2.1378
  202MOL   C11624638   3.142   0.444   1.119  0.1392  0.2806  0.7936
  202MOL   C11724639   3.168   0.406   1.264  0.1907 -0.6285 -0.2304
  202MOL   F11824640   3.236   0.296   1.278 -0.0272 -0.2667  0.2647
  202MOL   H11924641   3.082   0.534   1.130 -1.3665 -0.7505  1.1674
  202MOL   H12024642   3.076   0.379   1.062 -1.1764  1.3117  1.1205
  202MOL   H12124643   3.069   0.388   1.305  0.2078 -1.3149 -0.4715
  202MOL   H12224644   3.200   0.488   1.328 -2.0591  0.3603 -0.3381
  203MOL     C124645   5.287   3.913   6.982  0.1881  0.2692 -0.8651
  203MOL     C224646   5.252   3.794   6.891 -0.5878 -0.1588 -0.6244
  203MOL     F324647   5.304   3.820   6.771 -0.2420 -0.0977 -0.0611
  203MOL     H424648   5.382   3.896   7.033  0.1266 -0.8089 -1.0806
  203MOL     H524649   5.217   3.916   7.065  0.9733  0.7055 -0.2137
  203MOL     H624650   5.144   3.794   6.875 -1.1027  3.0300  2.2493
  203MOL     H724651   5.292   4.011   6.936 -1.9359  0.2955 -1.0916
  203MOL     C824652   5.296   3.661   6.937  0.0051 -0.3952  0.2211
  203MOL     C924653   5.209   3.601   7.056  0.7145 -0.3461 -0.3587
  203MOL    F1024654   5.080   3.597   7.021 -0.5769  0.0545 -0.0424
  203MOL    H1124655   5.285   3.588   6.857 -1.3281 -0.6284  0.6045
  203MOL    H1224656   5.401   3.657   6.968 -0.1131 -0.5948  0.6181
  203MOL    H1324657   5.223   3.670   7.139 -0.0349  0.0631 -0.5699
  203MOL    C1424658   5.237   3.458   7.091  0.1751  0.2121  0.1388
  203MOL    C1524659   5.353   3.449   7.192 -0.6491  0.1589  0.2826
  203MOL    F1624660   5.326   3.490   7.319  0.0409  0.0938  0.0826
  203MOL    H1724661   5.150   3.420   7.144  0.7859  1.5549  2.1868
  203MOL    H1824662   5.246   3.405   6.996  0.5612  0.9256 -0.2252
  203MOL    H1924663   5.433   3.518   7.168  1.3367 -1.0276  3.2778
  203MOL    C2024664   5.413   3.313   7.214 -0.2626  0.1620  0.4494
  203MOL    C2124665   5.316   3.212   7.270  0.3030 -0.5859  0.4974
  203MOL    F2224666   5.227   3.173   7.181  0.5191 -0.0553 -0.2065
  203MOL    H2324667   5.466   3.288   7.121  0.3349 -1.8906  1.3010
  203MOL    H2424668   5.492   3.329   7.287 -1.2925  1.9358  1.1894
  203MOL    H2524669   5.261   3.251   7.356 -0.5977 -1.4761  0.3458
  203MOL    C2624670   5.382   3.079   7.319 -0.4288  0.3468 -0.4198
  203MOL    C2724671   5.286   2.971   7.371 -0.0908  0.4012 -0.9729
  203MOL    F2824672   5.356   2.865   7.404 -0.4895 -0.9930 -0.1371
  203MOL    H2924673   5.444   3.041   7.239 -0.3623  0.2977 -0.3454
  203MOL    H3024674   5.447   3.113   7.399  2.2772  0.1081 -2.4728
  203MOL    H3124675   5.236   2.926   7.286 -1.3736  0.8085 -0.4538
  203MOL    C3224676   5.201   3.023   7.493  0.0395 -0.8456 -0.6514
  203MOL    C3324677   5.102   2.927   7.559  0.5578 -0.5074  0.0433
  203MOL    F3424678   5.014   2.883   7.475  0.4505 -0.3876  0.2748
  203MOL    H3524679   5.261   3.068   7.571 -1.7048 -0.3863  0.4556
  203MOL    H3624680   5.141   3.105   7.453 -0.3252  0.5214  2.5510
  203MOL    H3724681   5.036   2.987   7.622 -1.6479 -2.2959 -0.5345
  203MOL    C3824682   5.172   2.819   7.647 -0.1913  0.1034  0.1322
  203MOL    C3924683   5.270   2.862   7.752 -0.8358 -0.3857 -0.5091
  203MOL    F4024684   5.219   2.971   7.810  0.1899 -0.0518  0.4223
  203MOL    H4124685   5.105   2.761   7.711 -0.1586  0.8966  0.8924
  203MOL    H4224686   5.219   2.744   7.583  0.2114 -0.0075  0.5538
  203MOL    H4324687   5.355   2.900   7.695 -0.9851  1.3036  0.3585
  203MOL    C4424688   5.309   2.743   7.838 -0.4333  0.2664 -0.4753
  203MOL    C4524689   5.434   2.769   7.922 -0.5972 -0.0769  0.1557
  203MOL    F4624690   5.531   2.797   7.840  0.3470 -0.2996  0.6848
  203MOL    H4724691   5.229   2.723   7.910  0.8018  1.4765  1.2888
  203MOL    H4824692   5.323   2.653   7.779  0.1393 -2.5022  3.6419
  203MOL    H4924693   5.465   2.683   7.982  1.0093  0.7151  0.4907
  203MOL    C5024694   5.408   2.896   0.016 -0.1486 -0.1533 -0.5689
  203MOL    C5124695   5.482   2.887   0.151 -0.7236  1.0346 -0.2576
  203MOL    F5224696   5.614   2.891   0.125  0.2459 -0.2994 -0.1029
  203MOL    H5324697   5.441   2.982   7.960  1.6803 -0.7833 -0.5096
  203MOL    H5424698   5.308   2.924   0.048  0.4626  0.3375  0.9372
  203MOL    H5524699   5.469   2.794   0.206  0.9805  0.7204 -0.3658
  203MOL    C5624700   5.454   2.990   0.264  0.7820  0.1939  0.3297
  203MOL    C5724701   5.508   2.950   0.402  0.1725 -0.0831 -0.2107
  203MOL    F5824702   5.643   2.950   0.402 -0.2198  0.1977 -0.2209
  203MOL    H5924703   5.476   3.090   0.225  1.1367 -0.3216 -0.8138
  203MOL    H6024704   5.345   2.997   0.262  0.6848 -0.8282  1.6008
  203MOL    H6124705   5.470   2.849   0.416  2.8441 -0.8774  1.4579
  203MOL    C6224706   5.460   3.035   0.512  0.1995 -0.5159  0.7835
  203MOL    C6324707   5.317   3.030   0.569  0.7225  0.1508 -0.2134
  203MOL    F6424708   5.263   2.912   0.530  0.1284  0.5137 -0.0915
  203MOL    H6524709   5.519   3.004   0.598 -0.8622 -1.4924  1.1678
  203MOL    H6624710   5.483   3.142   0.505 -0.8750 -0.2865  0.5784
  203MOL    H6724711   5.269   3.101   0.501  2.0397  0.1894 -1.1291
  203MOL    C6824712   5.299   3.049   0.720 -0.5645 -0.2679  0.0002
  203MOL    C6924713   5.168   3.104   0.773 -0.2231  0.0483  0.4766
  203MOL    F7024714   5.141   3.214   0.703  0.5080 -0.0765  0.4944
  203MOL    H7124715   5.334   2.963   0.777  0.3069  0.0813  0.0106
  203MOL    H7224716   5.386   3.113   0.741  0.1534 -0.8147 -1.2629
  203MOL    H7324717   5.179   3.127   0.879 -1.8385 -0.8070  0.8525
  203MOL    C7424718   5.056   2.998   0.779 -0.0129  0.1999  0.5781
  203MOL    C7524719   4.927   3.028   0.856  0.4181  0.5908 -0.0117
  203MOL    F7624720   4.844   2.927   0.817  0.1483 -0.3812 -0.1503
  203MOL    H7724721   5.025   2.985   0.675 -2.9577  0.4332  1.3595
  203MOL    H7824722   5.099   2.903   0.809 -0.4269 -0.2732 -0.3094
  203MOL    H7924723   4.876   3.122   0.835 -1.7643 -0.3476  0.9679
  203MOL    C8024724   4.939   3.009   1.009  0.4982 -0.0270 -0.3509
  203MOL    C8124725   4.805   3.008   1.078 -0.4330 -0.1764 -0.0475
  203MOL    F8224726   4.818   2.980   1.214  0.0918  0.0610 -0.2081
  203MOL    H8324727   4.990   2.913   1.023  0.0253 -0.1109  0.8572
  203MOL    H8424728   5.013   3.074   1.056 -0.0585  0.0746  0.4033
  203MOL    H8524729   4.743   2.931   1.032  2.5044 -2.3120 -0.5945
  203MOL    C8624730   4.726   3.140   1.071 -0.2615  0.2516 -0.1458
  203MOL    C8724731   4.576   3.128   1.106  0.1204 -0.1643 -0.2226
  203MOL    F8824732   4.505   3.069   1.011  0.2495 -0.0485  0.0418
  203MOL    H8924733   4.783   3.215   1.127 -0.2088 -0.6343  1.0124
  203MOL    H9024734   4.723   3.173   0.967  1.2159 -0.9890 -0.5890
  203MOL    H9124735   4.542   3.232   1.106 -0.1883 -0.2616  0.5456
  203MOL    C9224736   4.538   3.073   1.246 -0.1955  0.5620  0.0365
  203MOL    C9324737   4.598   3.153   1.361 -0.1546 -0.4297 -0.5726
  203MOL    F9424738   4.541   3.279   1.362 -0.0601  0.1635  0.0628
  203MOL    H9524739   4.431   3.075   1.265 -0.4543  1.7180 -1.4432
  203MOL    H9624740   4.576   2.971   1.247  0.4417  0.7101 -3.2543
  203MOL    H9724741   4.706   3.168   1.356  0.0678 -1.6294  0.4080
  203MOL    C9824742   4.571   3.095   1.496 -0.6990  0.0689 -0.9004
  203MOL    C9924743   4.672   3.145   1.600  0.0579  0.6407 -0.1189
  203MOL   F10024744   4.601   3.178   1.702  0.7433 -0.2160 -0.4038
  203MOL   H10124745   4.467   3.110   1.525 -1.5212 -2.3308 -2.4883
  203MOL   H10224746   4.577   2.986   1.502  0.9963  0.2492  1.2636
  203MOL   H10324747   4.719   3.239   1.572  1.4952 -0.0719 -0.1652
  203MOL   C10424748   4.770   3.045   1.657  0.4368  0.0990  0.4902
  203MOL   C10524749   4.876   3.008   1.556  0.5983  0.7889  0.6225
  203MOL   F10624750   4.957   3.116   1.532 -0.0012  0.0294  0.3733
  203MOL   H10724751   4.824   3.082   1.744  1.0226  2.2703 -0.7490
  203MOL   H10824752   4.706   2.962   1.688  0.6972  0.0306  0.8527
  203MOL   H10924753   4.821   2.980   1.465 -0.0607  0.7552  1.0252
  203MOL   C11024754   4.964   2.891   1.602  0.0530 -0.2863  0.2156
  203MOL   C11124755   4.898   2.755   1.629  0.5799  0.2308  0.2951
  203MOL   F11224756   4.844   2.721   1.511  0.2464  0.1811  0.2816
  203MOL   H11324757   5.041   2.881   1.526 -2.2319 -1.8715 -1.9926
  203MOL   H11424758   5.027   2.930   1.681 -1.1846 -0.0115  1.0821
  203MOL   H11524759   4.822   2.748   1.707 -0.2841 -0.4170 -0.5999
  203MOL   C11624760   5.008   2.655   1.665  0.0354 -0.3427 -0.4071
  203MOL   C11724761   4.963   2.511   1.664 -0.5335  0.5244 -0.1004
  203MOL   F11824762   4.848   2.505   1.742 -0.1584  0.0747  0.0434
  203MOL   H11924763   5.090   2.668   1.595  0.5268 -1.1806  0.0158
  203MOL   H12024764   5.043   2.662   1.768 -0.1238  1.8770 -0.4858
  203MOL   H12124765   5.036   2.454   1.721  0.8400 -0.2484 -2.5812
  203MOL   H12224766   4.956   2.478   1.561 -1.2490  0.2533  0.0272
  204MOL     C124767   6.907   3.431   6.987 -0.4314 -0.1491  0.2909
  204MOL     C224768   6.914   3.509   7.116 -0.0345 -0.6027 -0.3281
  204MOL     F324769   6.903   3.436   7.223  0.1900 -0.0396 -0.1644
  204MOL     H424770   6.931   3.479   6.892 -3.6393  0.5102 -0.2321
  204MOL     H524771   6.815   3.373   6.984  0.6594 -1.9346  0.2155
  204MOL     H624772   6.833   3.581   7.116  0.1377 -0.4070 -0.3687
  204MOL     H724773   6.984   3.353   6.988 -2.3164 -2.0465  0.0884
  204MOL     C824774   7.044   3.582   7.125 -0.2023  0.2078 -0.2177
  204MOL     C924775   7.063   3.682   7.231  0.4471  0.4886 -0.1343
  204MOL    F1024776   7.057   3.628   7.353  0.2873  0.4264  0.5959
  204MOL    H1124777   7.112   3.497   7.127 -0.5754 -0.1523 -1.7191
  204MOL    H1224778   7.065   3.636   7.032 -0.4526  0.4486 -0.1352
  204MOL    H1324779   6.992   3.765   7.240 -2.1914 -1.7690  0.4910
  204MOL    C1424780   7.204   3.725   7.220 -0.3480 -0.4937 -0.7316
  204MOL    C1524781   7.239   3.831   7.112 -0.3869  0.0543  0.1435
  204MOL    F1624782   7.143   3.929   7.105  0.0801 -0.9967  0.2937
  204MOL    H1724783   7.230   3.773   7.314  1.4347 -0.9093 -0.9827
  204MOL    H1824784   7.273   3.640   7.220  0.4809  0.1778 -1.0538
  204MOL    H1924785   7.235   3.785   7.013  0.6035 -0.4629  0.3395
  204MOL    C2024786   7.376   3.899   7.130  1.0202 -0.2237  0.1600
  204MOL    C2124787   7.423   3.991   7.017 -0.1625  0.3271 -0.1688
  204MOL    F2224788   7.337   4.087   6.989  0.0229 -0.1439  0.8935
  204MOL    H2324789   7.369   3.950   7.226 -0.4314 -0.2711  0.0991
  204MOL    H2424790   7.443   3.814   7.143  1.1385 -0.1834 -0.2014
  204MOL    H2524791   7.431   3.933   6.925 -0.8430 -0.3890  0.2131
  204MOL    C2624792   7.560   4.060   7.038 -0.8812  0.3868  0.5143
  204MOL    C2724793   7.564   4.200   7.106  0.1031 -0.1119 -0.5115
  204MOL    F2824794   7.492   4.197   7.218  0.0503 -0.1163  0.1708
  204MOL    H2924795   7.623   3.998   7.102 -0.6323 -0.0567 -0.1632
  204MOL    H3024796   7.611   4.071   6.942 -0.4615 -0.5062  0.6287
  204MOL    H3124797   7.506   4.271   7.048  0.3426 -0.1734 -0.8282
  204MOL    C3224798   7.695   4.271   7.147  0.1612 -0.4155  0.3680
  204MOL    C3324799   7.780   4.320   7.018 -0.7721 -0.3587  0.6243
  204MOL    F3424800   7.718   4.414   6.950 -0.9268 -0.7651  0.5425
  204MOL    H3524801   7.677   4.354   7.216  1.7250 -0.0273  0.3353
  204MOL    H3624802   7.751   4.202   7.210 -0.7170 -1.7777 -0.3220
  204MOL    H3724803   7.796   4.238   6.948 -0.2990 -0.4514  0.8362
  204MOL    C3824804   7.916   4.372   7.073  0.4915  0.9735  0.2355
  204MOL    C3924805   0.022   4.402   6.967 -0.2466  0.2960  0.4515
  204MOL    F4024806   0.117   4.465   7.039  0.0952 -0.3383 -0.1052
  204MOL    H4124807   7.902   4.451   7.146 -1.4379  0.0733  0.8846
  204MOL    H4224808   7.956   4.296   7.141  0.2305  1.7809  1.2927
  204MOL    H4324809   7.972   4.465   6.895  0.3955  0.0245 -0.2557
  204MOL    C4424810   0.087   4.275   6.913 -0.2096 -0.1905  0.4228
  204MOL    C4524811   0.192   4.303   6.804 -0.3611  0.2047 -1.1087
  204MOL    F4624812   0.241   4.180   6.765  0.0377 -0.0720  0.2323
  204MOL    H4724813   0.131   4.220   6.997 -0.4771  0.1026  0.7591
  204MOL    H4824814   0.014   4.215   6.858 -0.7008 -0.3231  1.1977
  204MOL    H4924815   0.281   4.352   6.844 -1.3650  1.9974 -0.9721
  204MOL    C5024816   0.138   4.379   6.681 -0.4075  0.1105 -0.0363
  204MOL    C5124817   0.250   4.441   6.594 -0.6634  0.5165 -0.0763
  204MOL    F5224818   0.344   4.354   6.576 -0.1077  0.4218 -0.4999
  204MOL    H5324819   0.066   4.319   6.626 -1.8915 -0.0361  1.9945
  204MOL    H5424820   0.065   4.456   6.706 -1.8535 -1.4000  0.4569
  204MOL    H5524821   0.301   4.526   6.639 -1.2864  1.3754 -0.9610
  204MOL    C5624822   0.194   4.482   6.454 -0.7461 -0.0366 -0.0512
  204MOL    C5724823   0.097   4.598   6.441  0.3456 -0.0622  0.1788
  204MOL    F5824824   0.153   4.690   6.514 -0.0361  0.0615 -0.1873
  204MOL    H5924825   0.277   4.504   6.387 -0.8823 -0.6394 -0.4243
  204MOL    H6024826   0.137   4.400   6.409 -0.0666  0.6930 -2.3328
  204MOL    H6124827   0.005   4.573   6.495  0.7127  0.7892  1.2205
  204MOL    C6224828   0.065   4.647   6.300  0.6030 -0.1826 -0.1387
  204MOL    C6324829   0.007   4.790   6.301  1.1348  0.9844 -0.3161
  204MOL    F6424830   8.003   4.813   6.173  0.0981 -0.1432  0.6477
  204MOL    H6524831   0.157   4.643   6.242  0.4731 -0.6749 -0.3076
  204MOL    H6624832   0.000   4.580   6.244  1.6349 -1.3041 -0.0208
  204MOL    H6724833   0.073   4.863   6.346  1.7746  0.9636 -1.1913
  204MOL    C6824834   7.873   4.814   6.372  1.1065  0.5917 -1.4952
  204MOL    C6924835   7.828   4.963   6.374  0.3316 -0.0755  0.1654
  204MOL    F7024836   7.695   4.970   6.375  0.0821 -0.3887 -0.0539
  204MOL    H7124837   7.797   4.750   6.327 -0.8326  1.2351  0.7683
  204MOL    H7224838   7.880   4.783   6.476  3.9551 -0.1755 -1.8637
  204MOL    H7324839   7.861   5.014   6.284 -0.4921  2.3165  1.1550
  204MOL    C7424840   7.883   5.043   6.495  0.3181 -0.2003 -0.5416
  204MOL    C7524841   7.864   5.200   6.497 -0.2944  0.6482 -0.2010
  204MOL    F7624842   7.909   5.254   6.611 -1.2013  0.5981 -0.1688
  204MOL    H7724843   7.841   5.013   6.591  2.1738 -0.9491  0.0482
  204MOL    H7824844   7.990   5.024   6.499  0.1910 -0.6580  1.3806
  204MOL    H7924845   7.756   5.212   6.499 -0.6370 -2.0618  2.3649
  204MOL    C8024846   7.929   5.279   6.384  0.6622 -0.1224  0.2471
  204MOL    C8124847   0.087   5.268   6.382 -0.0509 -0.2637  0.2635
  204MOL    F8224848   0.124   5.147   6.348  0.2835  0.0553  0.3471
  204MOL    H8324849   7.891   5.255   6.285 -1.9211  0.1880  1.1249
  204MOL    H8424850   7.897   5.383   6.381  1.8728  0.2648  0.3292
  204MOL    H8524851   0.120   5.292   6.483 -0.9307  1.8317  0.0735
  204MOL    C8624852   0.143   5.370   6.272  0.6152  0.1744  1.2783
  204MOL    C8724853   0.296   5.385   6.276  0.2771  0.2896  0.2329
  204MOL    F8824854   0.338   5.447   6.389 -0.3007 -0.0916  0.0117
  204MOL    H8924855   0.119   5.348   6.168  1.3946  0.2103  1.0874
  204MOL    H9024856   0.103   5.470   6.288  1.5628  0.8199 -0.3229
  204MOL    H9124857   0.321   5.442   6.187  0.2811  1.0726  0.7275
  204MOL    C9224858   0.370   5.246   6.266  0.7164 -0.2420 -0.2026
  204MOL    C9324859   0.505   5.275   6.217 -0.3894  0.5808 -0.0454
  204MOL    F9424860   0.574   5.336   6.316 -0.3977 -0.1620  0.4116
  204MOL    H9524861   0.382   5.197   6.362  1.1439  0.5666  0.1568
  204MOL    H9624862   0.320   5.176   6.199 -0.0814 -0.1454  0.2893
  204MOL    H9724863   0.521   5.328   6.123  2.2771 -0.4754 -0.2229
  204MOL    C9824864   0.563   5.141   6.181 -0.5741  0.0253  0.1682
  204MOL    C9924865   0.709   5.161   6.144 -0.1072 -0.5921 -0.7192
  204MOL   F10024866   0.785   5.189   6.257 -0.0980  0.0332 -0.0204
  204MOL   H10124867   0.552   5.070   6.263  1.7738 -1.6134 -0.8714
  204MOL   H10224868   0.500   5.104   6.100  0.1495  0.5856 -0.6604
  204MOL   H10324869   0.716   5.253   6.085 -0.2231 -0.8090 -1.0720
  204MOL   C10424870   0.767   5.040   6.065  1.0976  0.1655 -0.0614
  204MOL   C10524871   0.910   5.074   6.015 -0.8395  0.7509  0.7689
  204MOL   F10624872   0.979   4.953   5.996  0.1648 -0.4914  0.4049
  204MOL   H10724873   0.777   4.952   6.128  1.7948  1.6108  1.8972
  204MOL   H10824874   0.716   5.013   5.972 -0.0184  2.0848 -0.0382
  204MOL   H10924875   0.973   5.121   6.090  0.8993 -0.6609  0.2403
  204MOL   C11024876   0.903   5.170   5.889  0.2025  0.3576 -0.4722
  204MOL   C11124877   1.043   5.194   5.814 -0.4411 -0.3095  0.2034
  204MOL   F11224878   1.099   5.076   5.760  0.5665 -0.0782  0.2513
  204MOL   H11324879   0.829   5.131   5.819 -0.3907 -0.0190  0.3522
  204MOL   H11424880   0.863   5.268   5.916 -1.9448 -0.5532 -0.2172
  204MOL   H11524881   1.116   5.225   5.890  0.9994  0.5787 -1.5076
  204MOL   C11624882   1.027   5.299   5.706 -0.0867 -0.0505  0.3175
  204MOL   C11724883   1.150   5.362   5.636 -0.1499  0.2787 -0.4041
  204MOL   F11824884   1.125   5.474   5.575  0.0565 -0.3707 -0.0916
  204MOL   H11924885   0.958   5.272   5.626 -1.0979 -0.2438  1.2388
  204MOL   H12024886   0.981   5.384   5.757  0.2402 -0.2581  0.9702
  204MOL   H12124887   1.185   5.297   5.556  0.1738 -1.8655  1.4318
  204MOL   H12224888   1.236   5.367   5.703 -0.2046 -0.4260 -0.2790
  205MOL     C124889   4.524   2.420   7.597 -0.1406  0.5267  0.6575
  205MOL     C224890   4.602   2.294   7.574 -0.0022  0.0498 -0.9192
  205MOL     F324891   4.513   2.210   7.525 -0.1535 -0.7656  0.2543
  205MOL     H424892   4.435   2.394   7.654 -1.6909 -0.3552 -2.0840
  205MOL     H524893   4.485   2.459   7.503 -4.3057  1.7230  2.7841
  205MOL     H624894   4.637   2.247   7.666 -0.5656  0.1933 -0.6265
  205MOL     H724895   4.596   2.492   7.635  0.9821  0.2434 -0.9035
  205MOL     C824896   4.719   2.295   7.475 -0.1396 -0.1007 -0.0369
  205MOL     C924897   4.840   2.377   7.523  0.3339  0.0072  0.1956
  205MOL    F1024898   4.883   2.328   7.635 -0.2323  0.4778  0.0119
  205MOL    H1124899   4.738   2.189   7.458 -2.9775 -0.8805  1.4188
  205MOL    H1224900   4.685   2.320   7.375  1.0870 -2.1587 -1.0117
  205MOL    H1324901   4.810   2.480   7.540 -0.5333 -0.5517  2.1842
  205MOL    C1424902   4.950   2.370   7.413 -0.0777 -0.3139  0.7448
  205MOL    C1524903   5.066   2.466   7.434 -0.0002  0.0969  0.0499
  205MOL    F1624904   5.134   2.446   7.546 -0.2707 -0.0063 -0.5891
  205MOL    H1724905   4.983   2.267   7.408  0.4736 -0.1052 -0.0880
  205MOL    H1824906   4.902   2.400   7.319  1.0434  2.7924  1.0997
  205MOL    H1924907   5.017   2.564   7.436 -1.2268 -0.4970 -0.6322
  205MOL    C2024908   5.156   2.454   7.316  0.4000 -0.4830 -0.3009
  205MOL    C2124909   5.264   2.566   7.304 -0.1143  0.3113  0.1880
  205MOL    F2224910   5.362   2.549   7.397  0.0830  0.1472 -0.0299
  205MOL    H2324911   5.192   2.351   7.314 -2.2385 -1.5091  2.1469
  205MOL    H2424912   5.103   2.458   7.221 -0.5247  1.3922  0.2559
  205MOL    H2524913   5.222   2.663   7.329  0.4061 -0.1701  3.0481
  205MOL    C2624914   5.324   2.578   7.161 -0.2409  0.4908  0.4051
  205MOL    C2724915   5.231   2.637   7.046  0.0634 -0.2602  0.0306
  205MOL    F2824916   5.162   2.740   7.099  0.4924 -0.3619 -0.3323
  205MOL    H2924917   5.415   2.639   7.169  1.1497 -1.5597  0.5647
  205MOL    H3024918   5.366   2.486   7.121  2.0078  0.7441  2.1284
  205MOL    H3124919   5.159   2.561   7.013 -0.7198 -0.1268  1.3810
  205MOL    C3224920   5.316   2.683   6.932 -0.6608 -0.1044  0.7673
  205MOL    C3324921   5.343   2.577   6.825  0.0398  0.4977 -0.2153
  205MOL    F3424922   5.225   2.546   6.780 -0.4746 -0.0294 -0.3131
  205MOL    H3524923   5.250   2.757   6.886 -1.1135  1.1964  3.3978
  205MOL    H3624924   5.412   2.720   6.968  0.3397 -0.8668 -1.0327
  205MOL    H3724925   5.388   2.491   6.875  1.0178  0.8624 -0.4437
  205MOL    C3824926   5.428   2.628   6.710 -0.1736 -0.1886  0.0597
  205MOL    C3924927   5.457   2.513   6.606  0.3498 -0.5446  0.0776
  205MOL    F4024928   5.498   2.579   6.498 -0.4152  0.3824  0.1967
  205MOL    H4124929   5.372   2.711   6.667 -1.3658  0.2308  2.3840
  205MOL    H4224930   5.524   2.667   6.745 -0.2142  0.3506 -0.4204
  205MOL    H4324931   5.362   2.471   6.573 -0.4174  1.2246 -0.0381
  205MOL    C4424932   5.555   2.403   6.657  0.2125 -0.3962  0.0159
  205MOL    C4524933   5.639   2.328   6.552 -0.3915 -0.1514 -0.8542
  205MOL    F4624934   5.727   2.239   6.614 -0.3359  0.2414 -0.1773
  205MOL    H4724935   5.613   2.433   6.744  1.1332  1.7324 -1.3023
  205MOL    H4824936   5.491   2.327   6.703 -0.7440  1.0968  1.2280
  205MOL    H4924937   5.704   2.394   6.495 -1.1428  1.6251  0.3250
  205MOL    C5024938   5.557   2.250   6.447 -0.1956  0.1856 -0.3599
  205MOL    C5124939   5.650   2.181   6.349 -0.2968 -0.3410  0.5626
  205MOL    F5224940   5.685   2.059   6.393  0.2808 -0.0313 -0.0759
  205MOL    H5324941   5.483   2.184   6.492 -0.6985  0.6889 -0.4478
  205MOL    H5424942   5.498   2.323   6.392 -4.3143 -2.6636  0.1148
  205MOL    H5524943   5.742   2.238   6.339  0.4477 -1.9993 -2.9592
  205MOL    C5624944   5.590   2.160   6.205  0.8938  0.4502  0.0022
  205MOL    C5724945   5.688   2.101   6.095 -0.0709  0.7245 -0.0499
  205MOL    F5824946   5.749   1.988   6.140  0.0557 -0.1693 -0.6595
  205MOL    H5924947   5.499   2.101   6.210  0.8469  0.2271 -2.7110
  205MOL    H6024948   5.568   2.259   6.164  0.9710  1.6449  2.6799
  205MOL    H6124949   5.768   2.174   6.109  0.6127  0.3021 -1.6453
  205MOL    C6224950   5.630   2.063   5.968 -0.1331 -0.4442 -0.0021
  205MOL    C6324951   5.720   2.067   5.845 -0.8116  0.0522  0.3055
  205MOL    F6424952   5.752   2.192   5.813  0.0040  0.1886  0.3594
  205MOL    H6524953   5.563   1.978   5.979  0.8918 -1.1518  0.8112
  205MOL    H6624954   5.556   2.142   5.953 -0.9130 -0.8579  1.5396
  205MOL    H6724955   5.652   2.052   5.761  0.7642 -0.5110 -0.8832
  205MOL    C6824956   5.835   1.968   5.825  0.0489 -0.0542  0.2436
  205MOL    C6924957   5.794   1.823   5.858 -0.5089  0.2095 -0.1737
  205MOL    F7024958   5.709   1.786   5.761 -0.0730 -0.7077  0.2127
  205MOL    H7124959   5.874   1.983   5.724  0.4393 -0.4308  0.3363
  205MOL    H7224960   5.917   2.004   5.888  1.5794  0.3033 -1.8942
  205MOL    H7324961   5.734   1.837   5.948 -2.0064  0.9496 -1.2774
  205MOL    C7424962   5.913   1.725   5.878  0.7844  0.1831 -0.5012
  205MOL    C7524963   5.853   1.583   5.915 -0.7194 -0.1837  0.4509
  205MOL    F7624964   5.781   1.542   5.806  0.4096 -0.0033  0.5739
  205MOL    H7724965   5.969   1.715   5.785 -0.5274  0.3967 -1.3310
  205MOL    H7824966   5.994   1.749   5.948  0.6635  0.0669 -0.3222
  205MOL    H7924967   5.784   1.602   5.998  1.8593  0.4610  2.5079
  205MOL    C8024968   5.951   1.471   5.960  0.1518 -0.5687 -0.0206
  205MOL    C8124969   6.047   1.517   6.066  0.1057 -0.1588  0.1001
  205MOL    F8224970   5.984   1.570   6.178 -0.4191  0.7541 -0.2478
  205MOL    H8324971   5.914   1.373   5.989  0.0138 -1.2298 -2.3044
  205MOL    H8424972   5.998   1.444   5.866 -1.0905  0.4454 -0.9585
  205MOL    H8524973   6.109   1.598   6.028  0.8811 -0.5873  0.4455
  205MOL    C8624974   6.146   1.408   6.111  0.7634 -0.5222 -0.0877
  205MOL    C8724975   6.242   1.368   5.997 -0.3654 -0.3307 -0.3078
  205MOL    F8824976   6.315   1.474   5.979 -0.2778  0.4999 -0.0630
  205MOL    H8924977   6.209   1.447   6.191  1.5209 -2.4070  0.2615
  205MOL    H9024978   6.100   1.322   6.161 -0.9552 -0.2623 -1.1912
  205MOL    H9124979   6.190   1.346   5.903  1.6746  2.2287 -2.1095
  205MOL    C9224980   6.322   1.247   6.038 -0.2275  0.1933 -0.6264
  205MOL    C9324981   6.420   1.189   5.930  0.4225 -0.2313 -0.4948
  205MOL    F9424982   6.504   1.112   5.992 -0.1781 -0.4738  0.3324
  205MOL    H9524983   6.384   1.263   6.126 -1.1639 -3.3284  0.7689
  205MOL    H9624984   6.253   1.164   6.055 -1.9190  1.4695 -1.1428
  205MOL    H9724985   6.474   1.267   5.876 -1.0110  1.0316 -0.1347
  205MOL    C9824986   6.352   1.104   5.816 -0.4161 -0.4770 -0.2695
  205MOL    C9924987   6.431   1.095   5.690  0.0319 -0.1349 -0.3502
  205MOL   F10024988   6.388   0.989   5.627 -0.3986 -0.2557  0.9211
  205MOL   H10124989   6.343   1.001   5.850  0.4155 -0.0010  1.4305
  205MOL   H10224990   6.249   1.134   5.800 -1.0180 -1.4943  1.5871
  205MOL   H10324991   6.536   1.067   5.704 -0.3164 -1.3662 -0.1005
  205MOL   C10424992   6.417   1.212   5.588  0.4227  0.1424  0.0953
  205MOL   C10524993   6.488   1.204   5.447  0.3448  0.2735 -0.4477
  205MOL   F10624994   6.483   1.325   5.390 -0.1104 -0.3087 -0.2340
  205MOL   H10724995   6.312   1.238   5.572  0.4315 -0.1370 -0.4171
  205MOL   H10824996   6.467   1.293   5.640 -0.6626  1.0914 -0.3154
  205MOL   H10924997   6.436   1.129   5.387  1.9522 -1.5083  0.3311
  205MOL   C11024998   6.639   1.163   5.460 -0.0491  0.3608  0.3668
  205MOL   C11124999   6.713   1.184   5.328  0.0303  0.4014 -0.0585
  205MOL   F11225000   6.737   1.314   5.314 -0.2090  0.3106  0.1007
  205MOL   H11325001   6.686   1.209   5.546  2.0323 -0.8077 -0.1270
  205MOL   H11425002   6.634   1.058   5.489  0.8666  0.7165  1.8354
  205MOL   H11525003   6.645   1.168   5.244  0.2605  2.0945 -0.5848
  205MOL   C11625004   6.839   1.106   5.331  0.2048  0.2558  0.7997
  205MOL   C11725005   6.928   1.115   5.199 -0.8674 -0.4563 -0.0913
  205MOL   F11825006   7.056   1.104   5.227 -0.4835  0.4012  0.2692
  205MOL   H11925007   6.893   1.144   5.418 -0.6592 -2.1564  2.4190
  205MOL   H12025008   6.808   1.003   5.348 -1.0998  0.8246  1.9651
  205MOL   H12125009   6.918   1.204   5.136  0.5208 -0.4592 -0.3290
  205MOL   H12225010   6.908   1.030   5.133  2.0624 -1.6784  0.5170
  206MOL     C125011   5.654   2.711   2.683  0.0321  0.0970 -0.1648
  206MOL     C225012   5.642   2.562   2.642 -0.1432 -0.1772 -0.1473
  206MOL     F325013   5.600   2.562   2.513 -0.0567 -0.4153 -0.0339
  206MOL     H425014   5.551   2.745   2.674 -0.4881 -1.1203  0.9001
  206MOL     H525015   5.723   2.773   2.627  1.0593 -2.0639 -1.3877
  206MOL     H625016   5.562   2.512   2.696 -0.4077  0.9744  0.5511
  206MOL     H725017   5.688   2.715   2.787  1.8085 -1.2461 -0.6822
  206MOL     C825018   5.770   2.479   2.647  0.7033 -0.1722 -0.4327
  206MOL     C925019   5.832   2.444   2.784  0.1654  0.6677  0.2376
  206MOL    F1025020   5.740   2.383   2.863 -0.2507  0.3993 -0.0067
  206MOL    H1125021   5.755   2.396   2.578 -0.4210 -0.3972  0.0702
  206MOL    H1225022   5.842   2.536   2.589  1.2288 -1.0416 -0.6431
  206MOL    H1325023   5.857   2.537   2.835  0.7405  2.7259 -3.5856
  206MOL    C1425024   5.962   2.355   2.773 -0.0959  0.4218 -0.2175
  206MOL    C1525025   6.069   2.404   2.679  0.0810 -0.5066 -0.3086
  206MOL    F1625026   6.103   2.527   2.730 -0.0654  0.0014 -0.0776
  206MOL    H1725027   6.002   2.328   2.871 -2.3162 -3.5848 -0.3017
  206MOL    H1825028   5.938   2.259   2.726 -0.6071  0.5920 -0.3021
  206MOL    H1925029   6.029   2.421   2.579 -1.7179 -0.3751  0.4109
  206MOL    C2025030   6.194   2.319   2.672 -0.0761  0.0741 -0.4337
  206MOL    C2125031   6.178   2.196   2.579 -0.7170  0.4393 -0.3383
  206MOL    F2225032   6.167   2.233   2.452 -0.2542  0.4920  0.4274
  206MOL    H2325033   6.267   2.382   2.622  0.1890 -1.6559 -2.2894
  206MOL    H2425034   6.226   2.294   2.773 -0.7687 -1.7932 -0.6477
  206MOL    H2525035   6.094   2.134   2.609  0.3430  0.2640  2.4254
  206MOL    C2625036   6.302   2.098   2.589  0.2173 -0.0354  0.6055
  206MOL    C2725037   6.293   1.981   2.682 -0.5197  0.2754 -0.0861
  206MOL    F2825038   6.409   1.913   2.682 -0.1740  0.4827  0.3812
  206MOL    H2925039   6.315   2.045   2.495  0.9308 -0.8266  1.1466
  206MOL    H3025040   6.396   2.149   2.609  1.2891 -1.8827  0.4287
  206MOL    H3125041   6.209   1.917   2.655  0.0124 -0.4012 -0.1555
  206MOL    C3225042   6.267   2.012   2.839  0.1695  0.6243  0.4627
  206MOL    C3325043   6.227   1.891   2.934  1.2000 -0.1233 -0.6523
  206MOL    F3425044   6.337   1.816   2.940 -0.5796  0.5681 -0.2818
  206MOL    H3525045   6.359   2.051   2.883 -0.3214  1.2862  0.9117
  206MOL    H3625046   6.188   2.087   2.840 -0.9635 -0.5541  2.5130
  206MOL    H3725047   6.155   1.828   2.881 -0.7703  1.0935  0.5200
  206MOL    C3825048   6.174   1.917   3.080 -0.9503 -0.3666 -0.3849
  206MOL    C3925049   6.283   1.975   3.185 -0.0681  0.2174  0.0954
  206MOL    F4025050   6.308   2.106   3.154 -0.1394  0.2681 -0.1807
  206MOL    H4125051   6.085   1.981   3.076  0.6314  1.9166 -0.2181
  206MOL    H4225052   6.136   1.823   3.117 -1.2062  0.0299  0.3617
  206MOL    H4325053   6.380   1.929   3.167 -0.4301 -1.1882  1.5795
  206MOL    C4425054   6.247   1.939   3.327  0.0303 -0.7247 -0.1407
  206MOL    C4525055   6.096   1.968   3.366 -0.7958  0.4265  0.6154
  206MOL    F4625056   6.067   1.883   3.464 -0.0752 -0.0748 -0.5729
  206MOL    H4725057   6.269   1.833   3.338  0.6543 -0.7830 -1.8714
  206MOL    H4825058   6.316   1.989   3.396 -0.1021  1.1030 -1.3126
  206MOL    H4925059   6.030   1.940   3.284  1.7398  1.4489 -1.8695
  206MOL    C5025060   6.083   2.114   3.419 -0.4817 -0.5708 -0.0030
  206MOL    C5125061   5.942   2.164   3.398  0.0983 -0.4442 -0.7075
  206MOL    F5225062   5.921   2.280   3.467  0.1917  0.3518  0.2830
  206MOL    H5325063   6.101   2.122   3.526  0.0330  1.4080 -0.2251
  206MOL    H5425064   6.153   2.185   3.377 -3.1214  1.7956 -0.5865
  206MOL    H5525065   5.862   2.101   3.438  1.0097 -0.6035  0.9266
  206MOL    C5625066   5.897   2.201   3.251  0.5427 -0.5964  0.8021
  206MOL    C5725067   5.751   2.259   3.234  0.0045 -0.0824  0.4813
  206MOL    F5825068   5.663   2.154   3.245  0.0681  0.5427 -0.1169
  206MOL    H5925069   5.965   2.280   3.221  1.1610 -0.9723  1.2018
  206MOL    H6025070   5.912   2.115   3.186  2.1531  0.1429  0.1910
  206MOL    H6125071   5.740   2.279   3.128 -0.9579 -3.2397 -0.0906
  206MOL    C6225072   5.704   2.382   3.314  0.2475 -0.2072 -0.2833
  206MOL    C6325073   5.807   2.503   3.285  0.1750  0.1876 -0.3239
  206MOL    F6425074   5.805   2.530   3.148  0.2717 -0.3434 -0.1815
  206MOL    H6525075   5.604   2.405   3.279 -0.4799 -1.4966  0.9431
  206MOL    H6625076   5.687   2.362   3.420 -1.4825 -2.6379 -0.9854
  206MOL    H6725077   5.910   2.473   3.303  0.3661  1.2550  0.3800
  206MOL    C6825078   5.779   2.630   3.359  0.2019 -0.2807 -0.2764
  206MOL    C6925079   5.645   2.697   3.317  0.4334  0.3874  0.4427
  206MOL    F7025080   5.546   2.663   3.391  0.0338 -0.0060  0.1306
  206MOL    H7125081   5.768   2.615   3.467  1.3601 -0.2463 -0.1522
  206MOL    H7225082   5.859   2.699   3.334  0.4837 -0.5373 -0.0880
  206MOL    H7325083   5.631   2.673   3.212 -0.4157 -1.2586  0.9198
  206MOL    C7425084   5.664   2.847   3.323 -0.7563 -0.0806 -0.2703
  206MOL    C7525085   5.554   2.944   3.307  0.8575 -0.6002 -0.1030
  206MOL    F7625086   5.475   2.936   3.414  0.4593  0.3302 -0.1149
  206MOL    H7725087   5.722   2.858   3.415 -0.6287  0.7421 -0.4473
  206MOL    H7825088   5.746   2.864   3.252  0.2637 -1.3211  0.5897
  206MOL    H7925089   5.495   2.911   3.222 -2.9361 -1.4016  2.7391
  206MOL    C8025090   5.598   3.093   3.280 -0.5196  0.4275 -0.0962
  206MOL    C8125091   5.475   3.180   3.245 -0.3311 -0.5318 -0.2366
  206MOL    F8225092   5.408   3.202   3.360 -0.0592 -0.4688  0.5055
  206MOL    H8325093   5.638   3.134   3.373 -0.0412  1.3483 -0.6933
  206MOL    H8425094   5.678   3.090   3.205 -2.5514 -2.4781 -2.2506
  206MOL    H8525095   5.412   3.120   3.179 -0.7086  0.4581 -0.7904
  206MOL    C8625096   5.506   3.310   3.184  0.0957 -0.2549  0.1564
  206MOL    C8725097   5.391   3.401   3.146 -0.0982 -0.4070 -0.0262
  206MOL    F8825098   5.347   3.465   3.258 -0.3234  0.4591  0.0360
  206MOL    H8925099   5.573   3.354   3.259  1.1119  0.5209 -1.1911
  206MOL    H9025100   5.571   3.290   3.099 -1.0055  1.0956 -1.0083
  206MOL    H9125101   5.307   3.349   3.102  1.3652 -1.7516 -1.2913
  206MOL    C9225102   5.448   3.503   3.045 -0.5252  0.5364 -0.3644
  206MOL    C9325103   5.357   3.620   3.022 -0.5884 -0.2868  0.8603
  206MOL    F9425104   5.430   3.702   2.950  0.2045 -0.5117 -0.1988
  206MOL    H9525105   5.548   3.535   3.077 -0.4531 -0.4400  0.4094
  206MOL    H9625106   5.468   3.457   2.949  0.7898 -0.8008  0.5269
  206MOL    H9725107   5.341   3.669   3.118 -0.0590  0.8312  0.3926
  206MOL    C9825108   5.227   3.593   2.951 -0.1323 -0.2107 -0.5749
  206MOL    C9925109   5.141   3.720   2.921  0.5057 -0.2186  0.3662
  206MOL   F10025110   5.048   3.693   2.828  0.1004 -0.0728  0.1509
  206MOL   H10125111   5.262   3.554   2.855 -1.1616  1.1845 -1.5420
  206MOL   H10225112   5.167   3.524   3.010  1.6461 -0.6759  0.7283
  206MOL   H10325113   5.213   3.795   2.886  1.1281 -0.8626  0.2624
  206MOL   C10425114   5.076   3.779   3.050 -0.4415  0.3117  0.0029
  206MOL   C10525115   5.006   3.914   3.032  0.1889 -0.4826  0.2075
  206MOL   F10625116   4.946   3.950   3.146 -0.2667 -0.3530 -0.3528
  206MOL   H10725117   5.003   3.705   3.084  0.7035  0.4694  2.9226
  206MOL   H10825118   5.151   3.790   3.128  0.9902  1.5857 -1.5068
  206MOL   H10925119   4.924   3.901   2.961 -0.6005 -0.0130  1.0232
  206MOL   C11025120   5.096   4.032   2.990 -0.2083  0.4719  0.2100
  206MOL   C11125121   5.024   4.167   2.990  0.5534  0.1395  0.0235
  206MOL   F11225122   5.114   4.262   2.979 -0.0913  0.5622 -0.3224
  206MOL   H11325123   5.181   4.045   3.057  0.3824 -0.4279 -0.3778
  206MOL   H11425124   5.130   4.009   2.890 -1.1285 -0.1965  0.0457
  206MOL   H11525125   4.992   4.183   3.093  0.0323 -1.2086  0.0793
  206MOL   C11625126   4.907   4.193   2.889  0.2495 -0.2559 -0.1930
  206MOL   C11725127   4.936   4.182   2.735 -0.3653  0.3794 -0.3587
  206MOL   F11825128   4.836   4.238   2.667 -0.4107  0.3243  0.0845
  206MOL   H11925129   4.828   4.121   2.909 -0.3830  0.8339  1.2423
  206MOL   H12025130   4.868   4.292   2.909  0.2508 -0.6514  1.8904
  206MOL   H12125131   4.953   4.083   2.693 -2.7020 -0.9172  1.6100
  206MOL   H12225132   5.027   4.230   2.698 -0.3270 -1.4485 -2.7482
  207MOL     C125133   5.408   3.433   3.603 -0.6310  0.2489 -0.5775
  207MOL     C225134   5.360   3.572   3.571 -0.1389  0.6351 -0.3073
  207MOL     F325135   5.255   3.590   3.657  0.0608  0.4968  0.0429
  207MOL     H425136   5.337   3.355   3.575  0.7128 -1.0501 -0.4167
  207MOL     H525137   5.433   3.420   3.708 -0.0036  0.8665 -0.6462
  207MOL     H625138   5.318   3.569   3.470 -1.2442  0.1697  0.1542
  207MOL     H725139   5.495   3.404   3.545  0.0925 -0.2168  0.7211
  207MOL     C825140   5.466   3.676   3.570  0.8868 -0.4589 -0.1624
  207MOL     C925141   5.588   3.672   3.472  0.6450 -0.1260 -0.2162
  207MOL    F1025142   5.587   3.790   3.406 -0.1361 -0.1189 -0.1568
  207MOL    H1125143   5.409   3.766   3.547  1.9746  0.5606  0.9579
  207MOL    H1225144   5.500   3.701   3.671  2.4547 -1.6021 -0.3985
  207MOL    H1325145   5.568   3.594   3.399 -1.0588 -0.5881  0.7054
  207MOL    C1425146   5.729   3.649   3.545 -0.3156  0.1216 -0.5468
  207MOL    C1525147   5.768   3.507   3.595  0.4311  0.3915  0.8870
  207MOL    F1625148   5.777   3.428   3.493 -0.5351  0.6332  0.6972
  207MOL    H1725149   5.812   3.672   3.478  0.6191 -0.6390  0.3298
  207MOL    H1825150   5.748   3.715   3.629  1.1461 -1.3708  0.3243
  207MOL    H1925151   5.686   3.459   3.647 -0.2801 -0.1578 -0.7073
  207MOL    C2025152   5.898   3.489   3.677 -0.7912 -0.2010 -0.7247
  207MOL    C2125153   6.036   3.517   3.601 -0.6194  0.4948  0.9149
  207MOL    F2225154   6.041   3.646   3.573 -0.0181  1.0456 -0.2749
  207MOL    H2325155   5.891   3.554   3.764  1.3957 -1.8862  0.7484
  207MOL    H2425156   5.909   3.391   3.723  0.2656  0.3006  0.1014
  207MOL    H2525157   6.030   3.468   3.504 -1.3272 -1.3375  1.8608
  207MOL    C2625158   6.167   3.470   3.668  0.2844 -0.5781  0.5371
  207MOL    C2725159   6.290   3.487   3.574 -0.5326  0.1399  0.4554
  207MOL    F2825160   6.285   3.388   3.488  0.2870 -0.0675  0.3333
  207MOL    H2925161   6.170   3.537   3.754  0.5503 -1.2633  1.0670
  207MOL    H3025162   6.173   3.369   3.709 -0.9659 -1.0756 -0.4757
  207MOL    H3125163   6.380   3.455   3.627  0.5080  1.9632 -0.1472
  207MOL    C3225164   6.321   3.616   3.502 -0.7601 -0.6529  0.2394
  207MOL    C3325165   6.463   3.626   3.445  0.2832 -0.2043  0.0573
  207MOL    F3425166   6.544   3.616   3.544  0.2190  0.3874  0.0835
  207MOL    H3525167   6.247   3.641   3.426  2.9799  0.5379 -3.1320
  207MOL    H3625168   6.311   3.695   3.577  1.4404 -2.0241  2.0270
  207MOL    H3725169   6.470   3.732   3.420  1.5057 -0.4337 -0.6353
  207MOL    C3825170   6.481   3.539   3.324  0.0109  1.0492  0.3500
  207MOL    C3925171   6.610   3.559   3.245  0.6129  0.0447  0.0624
  207MOL    F4025172   6.716   3.554   3.323 -0.7765  0.3232  0.0920
  207MOL    H4125173   6.476   3.435   3.358  0.3328  1.1723  0.7868
  207MOL    H4225174   6.395   3.543   3.258 -1.2892 -0.7450  1.8577
  207MOL    H4325175   6.609   3.659   3.201  1.1467  0.3209  0.6840
  207MOL    C4425176   6.623   3.473   3.119  0.2393  0.9464 -0.5684
  207MOL    C4525177   6.766   3.477   3.047 -0.3418  0.0745  0.0868
  207MOL    F4625178   6.757   3.393   2.944  0.1447  0.3557  0.6012
  207MOL    H4725179   6.611   3.368   3.145 -0.8075  1.4412  0.9813
  207MOL    H4825180   6.546   3.510   3.051 -1.1976 -0.7906  0.0845
  207MOL    H4925181   6.851   3.441   3.104 -0.0761  1.6989  0.7417
  207MOL    C5025182   6.799   3.615   2.985 -0.3494  0.8112  0.1469
  207MOL    C5125183   6.950   3.632   2.957 -0.4755  0.2451 -0.4157
  207MOL    F5225184   6.990   3.550   2.857 -0.4661 -0.3728 -0.0846
  207MOL    H5325185   6.745   3.626   2.891 -0.2350  0.5285  0.0461
  207MOL    H5425186   6.775   3.687   3.063 -0.7698 -1.6746  2.3986
  207MOL    H5525187   7.002   3.611   3.050  3.2926 -1.8919 -2.8526
  207MOL    C5625188   6.983   3.785   2.931 -0.1353 -0.2759 -0.4975
  207MOL    C5725189   7.130   3.814   2.899  0.2165 -0.0399 -0.9629
  207MOL    F5825190   7.180   3.747   2.801  0.3826  0.3219  0.4505
  207MOL    H5925191   6.934   3.831   2.846  0.0520 -0.7996 -0.8932
  207MOL    H6025192   6.959   3.843   3.021  0.3708  0.4138 -0.7981
  207MOL    H6125193   7.191   3.776   2.980 -0.6377 -2.2913 -1.3294
  207MOL    C6225194   7.149   3.970   2.878 -0.2610 -1.1256 -0.2602
  207MOL    C6325195   7.174   4.050   3.003 -0.3227  0.8210 -0.7663
  207MOL    F6425196   7.304   4.033   3.037 -0.8681 -0.1957 -0.3174
  207MOL    H6525197   7.230   3.984   2.807  0.5914  0.4968  0.9914
  207MOL    H6625198   7.069   4.007   2.815  0.5436  0.6709 -0.2555
  207MOL    H6725199   7.120   4.013   3.091  1.1901  2.5966  0.9700
  207MOL    C6825200   7.149   4.201   2.976  0.8111 -0.1417  0.1565
  207MOL    C6925201   7.133   4.304   3.089 -0.1230 -0.6709  0.6975
  207MOL    F7025202   7.043   4.266   3.179  0.0119  0.2590 -0.1017
  207MOL    H7125203   7.220   4.236   2.900  1.3547 -0.9285  0.3015
  207MOL    H7225204   7.053   4.211   2.925  1.3029  0.2786 -0.6986
  207MOL    H7325205   7.092   4.400   3.056 -2.5294 -0.6212  3.6242
  207MOL    C7425206   7.281   4.335   3.142 -0.5566  0.1007 -0.0982
  207MOL    C7525207   7.296   4.463   3.224  0.3500  0.4447  0.5189
  207MOL    F7625208   7.220   4.431   3.326  0.3227 -0.0256 -0.2568
  207MOL    H7725209   7.313   4.254   3.208 -2.6114  0.5975  1.5799
  207MOL    H7825210   7.339   4.340   3.050 -1.2161  2.5307 -0.3977
  207MOL    H7925211   7.247   4.549   3.179 -1.8166 -0.6713  0.7146
  207MOL    C8025212   7.445   4.485   3.268 -1.2091 -0.6238 -0.8620
  207MOL    C8125213   7.523   4.577   3.173  0.2505 -0.0676 -0.3115
  207MOL    F8225214   7.467   4.696   3.170 -0.1134  0.5753 -0.0926
  207MOL    H8325215   7.449   4.535   3.364  0.3469  0.8928 -1.6921
  207MOL    H8425216   7.495   4.391   3.293  1.2652  0.9808  0.4088
  207MOL    H8525217   7.540   4.536   3.073  0.8192 -2.0776  0.5830
  207MOL    C8625218   7.664   4.597   3.233  0.4492  0.3181  0.2334
  207MOL    C8725219   7.759   4.689   3.158 -0.4759  0.5381 -0.3988
  207MOL    F8825220   7.714   4.819   3.156  0.1326  0.0978 -0.2341
  207MOL    H8925221   7.671   4.631   3.337 -3.0264  0.6216  0.4092
  207MOL    H9025222   7.702   4.495   3.232  1.5152  0.7037  0.1088
  207MOL    H9125223   7.756   4.659   3.053  0.7965 -0.4157 -0.1729
  207MOL    C9225224   7.901   4.693   3.211 -0.9657 -0.4698  0.6946
  207MOL    C9325225   7.994   4.791   3.153  0.0104 -0.1319 -0.9033
  207MOL    F9425226   0.111   4.751   3.194 -0.3757  0.0308 -0.2079
  207MOL    H9525227   7.903   4.708   3.319  1.7704 -0.2655  0.6742
  207MOL    H9625228   7.936   4.593   3.189 -2.2598 -0.9423  0.7838
  207MOL    H9725229   7.985   4.892   3.196  3.6455  0.4992 -1.5063
  207MOL    C9825230   7.982   4.807   2.999 -0.2513 -0.0297 -0.1080
  207MOL    C9925231   0.082   4.900   2.928 -0.9429 -0.0428 -0.0429
  207MOL   F10025232   0.104   4.843   2.803  0.4197  0.0847  0.0785
  207MOL   H10125233   7.985   4.710   2.950 -0.3042 -0.2093  0.2429
  207MOL   H10225234   7.884   4.848   2.973 -0.7064 -0.7647  0.4231
  207MOL   H10325235   0.179   4.909   2.978 -0.9589  1.2359 -0.2358
  207MOL   C10425236   0.039   5.047   2.901 -0.1932 -0.8568  0.3052
  207MOL   C10525237   0.020   5.140   3.018 -0.1793  0.4627  0.0777
  207MOL   F10625238   0.120   5.127   3.101 -0.1463 -0.2367  0.0826
  207MOL   H10725239   0.124   5.086   2.846  1.0344 -1.3927  1.7835
  207MOL   H10825240   7.950   5.047   2.842 -0.0690 -1.8184  0.1003
  207MOL   H10925241   7.932   5.099   3.063 -0.5981  0.7465 -0.5000
  207MOL   C11025242   0.008   5.289   2.974 -0.6088 -0.2016 -0.2661
  207MOL   C11125243   7.978   5.393   3.079 -0.3716 -0.0632 -0.5797
  207MOL   F11225244   0.082   5.419   3.158  0.4083  0.0419  0.1748
  207MOL   H11325245   0.101   5.322   2.927 -1.3317 -0.0414 -1.6002
  207MOL   H11425246   7.950   5.304   2.886 -1.5952 -0.2516  0.4023
  207MOL   H11525247   7.916   5.343   3.154 -0.6468 -0.0084 -0.7711
  207MOL   C11625248   7.917   5.514   3.014 -0.0964 -0.2413  0.0344
  207MOL   C11725249   7.846   5.620   3.099  0.4722  0.0266  0.2672
  207MOL   F11825250   7.730   5.574   3.134  0.1212 -0.0359  0.6044
  207MOL   H11925251   7.992   5.566   2.955 -0.3625 -0.4627 -0.5115
  207MOL   H12025252   7.844   5.486   2.937  0.7845  3.0456 -2.0776
  207MOL   H12125253   7.832   5.709   3.037 -1.8322  0.4393  1.3352
  207MOL   H12225254   7.903   5.647   3.188  0.6369  0.1864  0.1144
  208MOL     C125255   7.656   3.127   6.600 -0.2976  0.2304 -0.5127
  208MOL     C225256   7.693   3.240   6.694 -0.0797  0.0605  0.4573
  208MOL     F325257   7.829   3.248   6.672  0.4309  0.1030  0.1594
  208MOL     H425258   7.693   3.142   6.499 -1.5913 -0.1355 -1.0574
  208MOL     H525259   7.550   3.102   6.590 -0.4638 -1.3904  4.0694
  208MOL     H625260   7.667   3.209   6.795 -0.2498 -0.8372  0.1444
  208MOL     H725261   7.714   3.039   6.627 -0.7754  0.6171  1.9067
  208MOL     C825262   7.617   3.365   6.658 -0.5042 -0.0777 -0.0381
  208MOL     C925263   7.603   3.466   6.777 -0.0807 -0.1125 -1.2238
  208MOL    F1025264   7.726   3.494   6.828  0.5119 -0.0693 -0.1839
  208MOL    H1125265   7.665   3.415   6.573  1.0168  0.1244  0.9232
  208MOL    H1225266   7.521   3.335   6.616 -0.1735 -1.3928  0.1489
  208MOL    H1325267   7.549   3.416   6.858 -0.6115  1.7959 -0.3604
  208MOL    C1425268   7.533   3.601   6.731 -0.5221  0.6190 -0.1451
  208MOL    C1525269   7.380   3.594   6.715  0.1628  0.0696  0.4197
  208MOL    F1625270   7.335   3.582   6.839  0.0878 -0.2050  0.1882
  208MOL    H1725271   7.552   3.682   6.801 -2.5096 -0.5054  1.7584
  208MOL    H1825272   7.583   3.626   6.637 -0.6252 -0.2292 -0.4324
  208MOL    H1925273   7.347   3.506   6.660 -1.8410  1.1288 -0.1223
  208MOL    C2025274   7.326   3.725   6.659  1.1623  0.5038  0.0612
  208MOL    C2125275   7.182   3.699   6.616  0.8274  0.2190  0.5366
  208MOL    F2225276   7.119   3.662   6.729  0.1070  0.0559 -1.0241
  208MOL    H2325277   7.325   3.800   6.738  0.7114  1.1817 -0.5838
  208MOL    H2425278   7.383   3.760   6.573 -0.1888  2.2173 -0.1606
  208MOL    H2525279   7.173   3.615   6.548 -1.6463 -1.7015  3.0644
  208MOL    C2625280   7.106   3.824   6.566 -0.4619 -0.1628  0.1838
  208MOL    C2725281   7.150   3.908   6.443  0.0181  0.4224  0.6606
  208MOL    F2825282   7.049   4.001   6.408  1.1025  0.0201 -0.1481
  208MOL    H2925283   7.004   3.793   6.541 -1.3550  1.9386  1.0729
  208MOL    H3025284   7.093   3.898   6.646  1.6621  0.9165 -0.4412
  208MOL    H3125285   7.160   3.850   6.351  2.4899 -0.5257  1.4700
  208MOL    C3225286   7.281   4.003   6.447  0.0778 -0.3864  0.7918
  208MOL    C3325287   7.315   4.075   6.323  0.3072 -0.9805 -0.1918
  208MOL    F3425288   7.416   4.157   6.352 -0.2671  0.3730 -0.0529
  208MOL    H3525289   7.252   4.071   6.526 -0.7114  0.0262  0.1540
  208MOL    H3625290   7.362   3.941   6.486 -0.0576 -1.2098 -0.2061
  208MOL    H3725291   7.227   4.134   6.297 -1.1416 -2.5770  1.0290
  208MOL    C3825292   7.346   3.991   6.198  0.7239 -0.3227 -0.7421
  208MOL    C3925293   7.347   4.070   6.063 -0.1748 -0.5864 -0.1022
  208MOL    F4025294   7.417   3.993   5.979 -0.2569  0.0194  0.7422
  208MOL    H4125295   7.448   3.959   6.214  0.7273  0.3378  0.5673
  208MOL    H4225296   7.290   3.898   6.189  0.8970 -0.4570 -0.4084
  208MOL    H4325297   7.396   4.167   6.072  0.1257 -0.8201  0.8828
  208MOL    C4425298   7.208   4.086   6.004 -0.7290  0.0353  0.1106
  208MOL    C4525299   7.186   4.187   5.886  0.3309 -0.1522  0.0933
  208MOL    F4625300   7.064   4.179   5.840  0.2996 -0.0969  0.6013
  208MOL    H4725301   7.164   3.987   5.994  0.5483 -0.6321  1.0085
  208MOL    H4825302   7.149   4.127   6.086 -0.2035  0.0613  0.4796
  208MOL    H4925303   7.252   4.161   5.803 -0.4452  0.9843 -0.8987
  208MOL    C5025304   7.201   4.333   5.927  0.7183 -0.3421 -0.0222
  208MOL    C5125305   7.193   4.423   5.803 -0.2685  0.6089  0.0351
  208MOL    F5225306   7.185   4.545   5.846 -0.1132  0.5124 -0.2045
  208MOL    H5325307   7.125   4.365   5.999 -0.6672 -0.7934 -1.2497
  208MOL    H5425308   7.295   4.343   5.981  1.0274 -0.4459 -0.5320
  208MOL    H5525309   7.109   4.395   5.740  1.0057 -1.1134 -0.9230
  208MOL    C5625310   7.311   4.420   5.706  0.2924 -0.4590 -0.3614
  208MOL    C5725311   7.292   4.490   5.574 -0.1198 -0.4183  0.3222
  208MOL    F5825312   7.419   4.506   5.528  0.2324 -0.0232  0.1704
  208MOL    H5925313   7.405   4.454   5.748  0.0289  0.0841 -0.2041
  208MOL    H6025314   7.347   4.319   5.686  1.2429 -0.2860  0.4427
  208MOL    H6125315   7.242   4.583   5.600  2.0587  0.4504  1.5917
  208MOL    C6225316   7.222   4.410   5.456  0.5124 -0.2582 -0.1515
  208MOL    C6325317   7.190   4.498   5.322  0.2225  0.2933  0.3107
  208MOL    F6425318   7.097   4.594   5.349 -0.4302  0.0504  0.6115
  208MOL    H6525319   7.290   4.335   5.414  3.6501  0.7494  2.9284
  208MOL    H6625320   7.134   4.359   5.494 -0.4745  1.9077  0.5515
  208MOL    H6725321   7.136   4.433   5.253  1.4016  1.3689 -1.6959
  208MOL    C6825322   7.323   4.549   5.258  0.0689 -0.2825  0.1476
  208MOL    C6925323   7.343   4.556   5.105  0.8998 -0.5574 -0.8861
  208MOL    F7025324   7.242   4.625   5.047 -0.5035 -0.1695 -0.0440
  208MOL    H7125325   7.346   4.642   5.308  0.6804 -0.0505 -0.5492
  208MOL    H7225326   7.405   4.486   5.292 -1.0772 -3.4183 -2.5701
  208MOL    H7325327   7.332   4.451   5.078  1.0915 -0.4552 -1.3780
  208MOL    C7425328   7.489   4.602   5.073 -0.0761  0.6045  0.3492
  208MOL    C7525329   7.523   4.590   4.926  0.5701 -0.2052  0.0127
  208MOL    F7625330   7.513   4.467   4.872 -0.3951 -0.0707 -0.1972
  208MOL    H7725331   7.506   4.700   5.117  3.3696  0.2405 -0.0543
  208MOL    H7825332   7.555   4.532   5.124 -1.2700 -1.3011 -0.6801
  208MOL    H7925333   7.631   4.604   4.923  0.7335 -1.2252  1.1813
  208MOL    C8025334   7.462   4.685   4.820  0.2322  0.0655  0.1481
  208MOL    C8125335   7.452   4.829   4.872  0.0386  0.1957 -0.4162
  208MOL    F8225336   7.570   4.881   4.920  0.0805  0.4707  0.4703
  208MOL    H8325337   7.512   4.673   4.724 -1.6692  2.0864 -1.1388
  208MOL    H8425338   7.363   4.643   4.805  0.5778 -0.8197  0.3016
  208MOL    H8525339   7.391   4.836   4.962  0.7039 -2.2710  0.2802
  208MOL    C8625340   7.398   4.914   4.759  0.1109 -0.3602 -1.0510
  208MOL    C8725341   7.492   4.943   4.642 -0.8832  0.9858  0.5763
  208MOL    F8825342   7.468   4.845   4.550 -0.4650  0.4147 -0.3812
  208MOL    H8925343   7.303   4.871   4.729 -0.1317  0.8678 -2.1147
  208MOL    H9025344   7.376   5.010   4.806  0.2180 -0.3403 -1.0406
  208MOL    H9125345   7.595   4.928   4.677 -0.8779 -1.0837 -0.2356
  208MOL    C9225346   7.471   5.088   4.571  0.5390  0.3553 -0.3125
  208MOL    C9325347   7.581   5.101   4.463 -0.1792  0.5782 -0.4262
  208MOL    F9425348   7.557   5.014   4.365 -0.1454  0.6926  0.7827
  208MOL    H9525349   7.367   5.095   4.538  0.1402 -1.2866  0.5422
  208MOL    H9625350   7.488   5.168   4.643 -2.1050  1.1903 -0.5653
  208MOL    H9725351   7.682   5.084   4.502  0.3067  2.8629 -0.6260
  208MOL    C9825352   7.573   5.234   4.394  0.0042  0.4484  1.0093
  208MOL    C9925353   7.586   5.349   4.485 -0.0941 -0.8143  0.5383
  208MOL   F10025354   7.674   5.328   4.576  0.6063  0.4745 -0.1989
  208MOL   H10125355   7.656   5.240   4.323 -0.6216 -1.7856  0.0366
  208MOL   H10225356   7.475   5.242   4.347  0.2752  2.0288  0.6937
  208MOL   H10325357   7.488   5.367   4.532  0.1311 -0.3313  0.8352
  208MOL   C10425358   7.617   5.489   4.411 -0.0478 -0.7798 -0.2249
  208MOL   C10525359   7.572   5.619   4.488 -0.0949  0.2354  0.2492
  208MOL   F10625360   7.649   5.635   4.601  0.3851 -0.5661  0.0207
  208MOL   H10725361   7.724   5.502   4.391 -0.0743  0.5727  0.4658
  208MOL   H10825362   7.563   5.489   4.316  1.8122  2.7468 -1.4137
  208MOL   H10925363   7.468   5.605   4.516 -0.2185  1.9404  0.7133
  208MOL   C11025364   7.587   5.738   4.393 -0.3136  0.2532  0.0678
  208MOL   C11125365   7.557   5.871   4.469 -0.1701 -0.3780  0.1341
  208MOL   F11225366   7.602   5.969   4.391 -0.2107  0.3027 -0.0678
  208MOL   H11325367   7.692   5.742   4.361 -0.4114  2.2224 -0.0611
  208MOL   H11425368   7.528   5.728   4.302 -0.0963  0.1482 -0.0619
  208MOL   H11525369   7.613   5.897   4.559  0.1782 -0.8178  0.0443
  208MOL   C11625370   7.409   5.892   4.491  0.2029  0.3513  0.1448
  208MOL   C11725371   7.364   6.023   4.555 -0.4679  0.4043  0.4508
  208MOL   F11825372   7.230   6.024   4.575  0.5317  0.1950  0.1893
  208MOL   H11925373   7.363   5.889   4.392  0.5173 -2.8796  0.0492
  208MOL   H12025374   7.369   5.806   4.544 -3.7287  0.4028 -2.4923
  208MOL   H12125375   7.399   6.111   4.501 -0.1114  2.0511  3.2326
  208MOL   H12225376   7.396   6.027   4.659  0.3974 -0.5193  0.2306
  209MOL     C125377   4.041   7.186   7.136  0.1818  0.2950 -0.6811
  209MOL     C225378   3.979   7.089   7.037  0.5564 -0.3101  0.0089
  209MOL     F325379   3.864   7.043   7.088  0.5436  0.0321  0.0122
  209MOL     H425380   4.059   7.148   7.237  1.4960 -0.0112 -1.0317
  209MOL     H525381   3.987   7.279   7.158  0.6062 -0.1066  2.3255
  209MOL     H625382   4.044   7.001   7.038  1.7790  0.5427 -1.4196
  209MOL     H725383   4.138   7.215   7.096  0.2896  0.7179 -0.1250
  209MOL     C825384   3.963   7.147   6.895  0.1160 -0.1223  0.3709
  209MOL     C925385   3.885   7.059   6.791  0.3344  0.4961  0.6402
  209MOL    F1025386   3.775   7.004   6.849 -0.0955  0.0233  0.8286
  209MOL    H1125387   3.911   7.242   6.911  1.4989  0.9121 -1.2062
  209MOL    H1225388   4.063   7.166   6.857 -0.2497  1.5442  0.1952
  209MOL    H1325389   3.944   6.972   6.762 -1.1902 -0.6704  0.9761
  209MOL    C1425390   3.839   7.137   6.668 -0.3957  0.2153 -0.1968
  209MOL    C1525391   3.783   7.037   6.556 -0.6168  0.1835  0.5552
  209MOL    F1625392   3.870   6.943   6.541 -0.0736 -0.1116  0.1382
  209MOL    H1725393   3.763   7.212   6.695 -0.4792 -0.2842  0.9906
  209MOL    H1825394   3.930   7.175   6.623 -0.0974  0.1107  0.3075
  209MOL    H1925395   3.765   7.092   6.463 -2.0973  1.2132  1.4367
  209MOL    C2025396   3.640   6.984   6.591  0.0365 -0.0672  0.6070
  209MOL    C2125397   3.560   6.906   6.476 -0.1710 -0.3956  0.6686
  209MOL    F2225398   3.629   6.802   6.442  0.3272 -0.9626 -0.4550
  209MOL    H2325399   3.647   6.913   6.673 -0.2088  0.0606  0.7373
  209MOL    H2425400   3.573   7.062   6.628  0.0060  1.7836 -3.1385
  209MOL    H2525401   3.560   6.969   6.388  0.4511 -0.7546  0.4125
  209MOL    C2625402   3.413   6.876   6.497  0.2515 -0.4432  0.3632
  209MOL    C2725403   3.338   6.862   6.370 -0.7331  0.1350  0.5826
  209MOL    F2825404   3.384   6.748   6.315 -0.0720 -0.3081  0.0991
  209MOL    H2925405   3.409   6.789   6.562 -0.7539  0.2748  1.2828
  209MOL    H3025406   3.370   6.957   6.555 -0.1758 -0.7382  0.4590
  209MOL    H3125407   3.360   6.944   6.301 -0.2331 -1.7546 -1.5858
  209MOL    C3225408   3.186   6.846   6.391 -0.0290  0.2971  0.5567
  209MOL    C3325409   3.122   6.821   6.248  0.3563  0.2423 -0.2536
  209MOL    F3425410   3.003   6.770   6.265  0.0227  0.0940  1.1637
  209MOL    H3525411   3.170   6.758   6.454  0.5308 -0.4298 -0.2978
  209MOL    H3625412   3.146   6.935   6.438  0.6804  0.7051  0.4054
  209MOL    H3725413   3.182   6.754   6.186  2.0205  0.5185  1.0242
  209MOL    C3825414   3.112   6.946   6.159  0.3481  0.2173 -0.2055
  209MOL    C3925415   2.990   7.040   6.200 -0.2634 -0.1018 -0.6306
  209MOL    F4025416   3.032   7.124   6.290 -0.4329  0.2791  0.3103
  209MOL    H4125417   3.204   7.004   6.171  1.4894 -1.8075  1.0680
  209MOL    H4225418   3.108   6.926   6.051  0.5997  0.4602 -0.2598
  209MOL    H4325419   2.909   6.975   6.232  1.1372 -0.6578  1.8505
  209MOL    C4425420   2.939   7.125   6.077 -0.1112  0.0355 -0.2077
  209MOL    C4525421   3.031   7.233   6.014 -0.0180  0.0774  0.3174
  209MOL    F4625422   3.117   7.160   5.948 -0.4579 -0.0337  0.4555
  209MOL    H4725423   2.909   7.066   5.991 -0.2849 -0.5837  0.2736
  209MOL    H4825424   2.852   7.186   6.100 -0.1249 -0.1065  0.1117
  209MOL    H4925425   3.087   7.291   6.087  1.4504 -0.8524 -0.0467
  209MOL    C5025426   2.960   7.322   5.911  0.2460  0.9588 -0.0698
  209MOL    C5125427   3.051   7.425   5.842 -0.7952 -0.0551 -0.1961
  209MOL    F5225428   3.118   7.489   5.943  0.1510 -0.3000  0.0382
  209MOL    H5325429   2.903   7.265   5.838  1.6196 -1.3216  0.6060
  209MOL    H5425430   2.883   7.369   5.973  1.8920  2.1880  1.1053
  209MOL    H5525431   2.988   7.500   5.794  1.4810  1.8494 -0.3128
  209MOL    C5625432   3.166   7.366   5.758 -0.2561 -0.0786 -0.1890
  209MOL    C5725433   3.124   7.290   5.632 -0.4794  0.2550 -0.3019
  209MOL    F5825434   3.017   7.342   5.574 -0.9742 -0.2925 -0.2184
  209MOL    H5925435   3.243   7.442   5.745  0.7930 -1.1013 -0.0284
  209MOL    H6025436   3.232   7.299   5.813 -0.2397 -0.8019 -1.0684
  209MOL    H6125437   3.097   7.187   5.657  2.1256 -0.5606 -0.7090
  209MOL    C6225438   3.238   7.290   5.523 -0.0309  0.8591 -0.5163
  209MOL    C6325439   3.216   7.207   5.396  0.2080 -0.5746  0.1268
  209MOL    F6425440   3.176   7.084   5.434 -0.1496  0.3281 -0.5701
  209MOL    H6525441   3.253   7.392   5.488 -0.2256  0.7778 -0.8324
  209MOL    H6625442   3.329   7.256   5.574 -0.9592 -0.4364  0.3063
  209MOL    H6725443   3.301   7.186   5.330 -1.7868  0.8448 -3.0063
  209MOL    C6825444   3.107   7.260   5.297 -0.2947 -0.1065 -0.1338
  209MOL    C6925445   3.106   7.219   5.152  0.4056  0.0726  0.0451
  209MOL    F7025446   3.216   7.272   5.099 -0.3341  0.0635  0.1521
  209MOL    H7125447   3.008   7.233   5.336 -0.0591 -0.7422  0.0275
  209MOL    H7225448   3.110   7.368   5.288 -1.2610 -0.1550 -1.1682
  209MOL    H7325449   3.029   7.258   5.086  2.3204  0.2019 -2.1790
  209MOL    C7425450   3.126   7.064   5.123  0.0068  0.0959 -0.3883
  209MOL    C7525451   3.021   6.978   5.183  0.3331 -0.4651 -0.1360
  209MOL    F7625452   2.907   7.030   5.138  0.2418 -0.8505  0.4228
  209MOL    H7725453   3.133   7.045   5.016  0.2984  0.3678 -0.4194
  209MOL    H7825454   3.222   7.035   5.166  0.2181  2.0949  0.5610
  209MOL    H7925455   3.009   6.992   5.291 -0.8562 -2.7161  0.0619
  209MOL    C8025456   3.041   6.823   5.138  0.3167 -0.3058 -0.3085
  209MOL    C8125457   2.928   6.735   5.197 -0.4079 -0.1704  1.0964
  209MOL    F8225458   2.924   6.750   5.326  0.0466  0.3368  0.4368
  209MOL    H8325459   3.058   6.802   5.033 -1.3741 -0.1870 -0.6201
  209MOL    H8425460   3.128   6.794   5.197 -1.2760 -0.9352  1.8109
  209MOL    H8525461   2.944   6.630   5.175 -1.7037 -0.3390  0.9481
  209MOL    C8625462   2.785   6.756   5.136  0.1204 -0.6195 -0.1131
  209MOL    C8725463   2.776   6.759   4.981 -0.4045  0.0364 -0.0921
  209MOL    F8825464   2.822   6.648   4.919  0.2752 -0.4646 -0.1400
  209MOL    H8925465   2.717   6.687   5.185 -0.7516  0.2358 -0.1188
  209MOL    H9025466   2.756   6.857   5.166  0.9382  0.0962 -1.6799
  209MOL    H9125467   2.838   6.836   4.935  0.0086 -0.5810 -0.5796
  209MOL    C9225468   2.631   6.781   4.935 -0.4609 -0.5099 -0.1701
  209MOL    C9325469   2.606   6.792   4.785  0.8487  0.5930  0.5427
  209MOL    F9425470   2.662   6.908   4.740 -0.0031 -0.2430 -0.0976
  209MOL    H9525471   2.569   6.701   4.975  0.2395 -0.9355  0.0690
  209MOL    H9625472   2.593   6.872   4.982  0.8172  0.4934 -1.0517
  209MOL    H9725473   2.501   6.807   4.761  1.5369  0.4653 -2.6608
  209MOL    C9825474   2.647   6.669   4.703 -0.1195  0.3534  0.5111
  209MOL    C9925475   2.582   6.645   4.569  0.1383  0.5696  0.5773
  209MOL   F10025476   2.587   6.752   4.487  0.4064 -0.1176  0.2335
  209MOL   H10125477   2.755   6.678   4.688  0.1366 -0.9224  1.5641
  209MOL   H10225478   2.628   6.590   4.775  0.8372 -0.5587 -0.2343
  209MOL   H10325479   2.474   6.631   4.579  0.1900 -0.4431 -0.2127
  209MOL   C10425480   2.659   6.545   4.473 -0.1190 -0.4763  0.2237
  209MOL   C10525481   2.659   6.402   4.522  0.4731  0.0315  0.2915
  209MOL   F10625482   2.533   6.355   4.544 -0.1532  0.1832  0.7859
  209MOL   H10725483   2.614   6.559   4.375  1.0049  1.1065 -0.0914
  209MOL   H10825484   2.765   6.571   4.471 -0.6308  1.7087  0.0316
  209MOL   H10925485   2.705   6.396   4.621 -1.4153  1.1930  1.2703
  209MOL   C11025486   2.732   6.317   4.417  0.3570  0.3321 -0.0072
  209MOL   C11125487   2.745   6.167   4.432  0.6261 -0.4451  0.1800
  209MOL   F11225488   2.777   6.111   4.318 -0.0554 -0.3855 -0.5399
  209MOL   H11325489   2.676   6.336   4.325 -1.4404  2.9512  1.5421
  209MOL   H11425490   2.828   6.360   4.390  1.7233 -2.8282 -0.3933
  209MOL   H11525491   2.645   6.136   4.463  0.5352 -0.0075  0.3237
  209MOL   C11625492   2.852   6.133   4.543 -0.3102 -0.0929 -0.0308
  209MOL   C11725493   3.004   6.146   4.502 -0.1226 -0.1797 -0.1385
  209MOL   F11825494   3.079   6.080   4.590  0.0295 -0.0957 -0.1065
  209MOL   H11925495   2.821   6.190   4.630  0.7884  1.8768 -0.9195
  209MOL   H12025496   2.844   6.025   4.556  0.1529 -0.1023  0.2188
  209MOL   H12125497   3.043   6.247   4.494 -0.5445  0.1658  1.9247
  209MOL   H12225498   3.029   6.103   4.404  2.4533  2.0358 -0.5063
  210MOL     C125499   3.841   1.397   0.215 -0.2589 -0.0776  0.1480
  210MOL     C225500   3.905   1.263   0.193 -0.1994 -0.2714  0.1308
  210MOL     F325501   3.875   1.190   0.306 -0.0547  0.5721  0.3184
  210MOL     H425502   3.838   1.463   0.128 -0.8106  0.7117  0.7563
  210MOL     H525503   3.893   1.450   0.294 -0.3441  1.3670 -0.7477
  210MOL     H625504   4.014   1.264   0.198 -0.2577 -0.6430  1.7378
  210MOL     H725505   3.737   1.389   0.246 -0.6489  0.7514 -0.8768
  210MOL     C825506   3.874   1.185   0.058  0.2699  0.1226 -0.0867
  210MOL     C925507   3.930   1.263   7.940 -0.1608 -0.2744 -0.0745
  210MOL    F1025508   4.052   1.293   7.979 -0.1326  0.1945 -0.7050
  210MOL    H1125509   3.922   1.089   0.078 -0.8629 -0.2578  0.9224
  210MOL    H1225510   3.768   1.168   0.042  0.6758 -1.2941 -1.3106
  210MOL    H1325511   3.887   1.361   7.924 -1.2334 -0.5652  0.9233
  210MOL    C1425512   3.926   1.177   7.811 -0.8776  0.4340  0.0521
  210MOL    C1525513   3.802   1.197   7.728 -0.3728  0.3143  1.1461
  210MOL    F1625514   3.808   1.323   7.682 -0.2191  0.1279 -0.3693
  210MOL    H1725515   4.015   1.206   7.755  0.3517 -1.7998  0.7639
  210MOL    H1825516   3.954   1.073   7.828 -0.4977  1.0249  3.3004
  210MOL    H1925517   3.710   1.183   7.785 -1.2947 -0.9102 -0.6005
  210MOL    C2025518   3.781   1.111   7.598 -0.0099 -0.1799  0.4957
  210MOL    C2125519   3.641   1.106   7.548 -0.4764  0.0475 -0.3294
  210MOL    F2225520   3.595   1.228   7.516 -0.4151  0.2344  0.1563
  210MOL    H2325521   3.843   1.144   7.514  0.1109 -2.6847 -0.4554
  210MOL    H2425522   3.803   1.005   7.611 -2.0771 -0.8770 -1.3931
  210MOL    H2525523   3.585   1.075   7.636  1.2382  0.5976  0.9899
  210MOL    C2625524   3.618   0.999   7.429 -0.1875 -0.4062  0.5162
  210MOL    C2725525   3.472   0.943   7.425 -1.0751 -1.0789 -0.0907
  210MOL    F2825526   3.439   0.863   7.523  0.8362 -0.4260  0.1495
  210MOL    H2925527   3.633   1.042   7.331 -3.6533  0.5081  0.3288
  210MOL    H3025528   3.673   0.905   7.440 -0.4562 -1.1485 -3.6922
  210MOL    H3125529   3.465   0.873   7.342 -1.9631 -0.2760 -0.7033
  210MOL    C3225530   3.369   1.060   7.393 -0.9241  0.8631  0.0964
  210MOL    C3325531   3.401   1.143   7.265 -0.0825 -0.7113 -0.7258
  210MOL    F3425532   3.431   1.064   7.163 -0.5297  0.4677  0.3416
  210MOL    H3525533   3.267   1.023   7.397  0.1736 -2.3396  0.3135
  210MOL    H3625534   3.366   1.134   7.473 -0.7588  0.5107  0.4296
  210MOL    H3725535   3.497   1.190   7.288 -0.9642  0.0383  1.4831
  210MOL    C3825536   3.295   1.253   7.235  0.0489 -0.1165  0.4342
  210MOL    C3925537   3.178   1.214   7.147 -0.2071  0.7196 -1.2765
  210MOL    F4025538   3.116   1.121   7.224 -0.1446  0.4516  0.1906
  210MOL    H4125539   3.261   1.300   7.327  0.8634  0.5301  0.4045
  210MOL    H4225540   3.357   1.330   7.189  0.0968 -1.0028 -0.9999
  210MOL    H4325541   3.213   1.164   7.056 -0.8304  2.1869 -2.3439
  210MOL    C4425542   3.076   1.332   7.123  0.3687  0.4596 -0.7766
  210MOL    C4525543   3.101   1.435   7.018 -0.4141  0.3869  0.2051
  210MOL    F4625544   3.110   1.368   6.898  0.2667  0.5057 -0.1680
  210MOL    H4725545   2.979   1.286   7.102 -0.4068  1.7095 -0.0103
  210MOL    H4825546   3.060   1.392   7.213 -2.3139  0.2444 -1.0737
  210MOL    H4925547   3.204   1.468   7.030 -0.1334 -0.0793 -0.8468
  210MOL    C5025548   3.001   1.550   7.005 -0.0423  0.1371  0.1075
  210MOL    C5125549   3.027   1.640   6.882  0.1243 -0.2961 -0.8188
  210MOL    F5225550   2.917   1.720   6.866 -0.1499 -0.1843  0.4446
  210MOL    H5325551   2.896   1.522   7.010 -0.2299  0.8823  0.4274
  210MOL    H5425552   3.008   1.606   7.099 -1.3569  0.1010  0.2322
  210MOL    H5525553   3.020   1.579   6.792 -1.3158  0.7001 -1.3871
  210MOL    C5625554   3.168   1.717   6.901 -0.3258 -0.1869  0.8358
  210MOL    C5725555   3.199   1.816   6.796 -0.0623 -0.3583 -0.1184
  210MOL    F5825556   3.294   1.881   6.851  0.3459 -0.3243  0.3750
  210MOL    H5925557   3.159   1.763   6.999 -0.2471  3.3876 -0.7788
  210MOL    H6025558   3.248   1.642   6.901 -0.2879 -0.1509  0.1902
  210MOL    H6125559   3.126   1.897   6.785 -0.3534 -0.6593 -0.4545
  210MOL    C6225560   3.262   1.752   6.667  0.4384  0.2716  1.6371
  210MOL    C6325561   3.336   1.838   6.562 -0.1464  0.5059 -0.0678
  210MOL    F6425562   3.252   1.937   6.521  1.0225  0.6618 -0.5799
  210MOL    H6525563   3.332   1.670   6.685  0.1206  0.1175  2.1942
  210MOL    H6625564   3.181   1.710   6.608  1.7243 -0.3793  0.3062
  210MOL    H6725565   3.359   1.775   6.476 -1.1280  0.4506 -0.2997
  210MOL    C6825566   3.484   1.886   6.603  0.0644 -0.2872 -0.1483
  210MOL    C6925567   3.541   1.975   6.494 -0.2989 -0.2898 -0.1666
  210MOL    F7025568   3.459   2.074   6.458 -0.5860 -0.8112  0.3861
  210MOL    H7125569   3.481   1.950   6.691  2.4402  2.8934 -2.2595
  210MOL    H7225570   3.548   1.805   6.638  1.5468  0.5477 -0.8830
  210MOL    H7325571   3.556   1.909   6.408 -1.1237 -1.1698  0.3765
  210MOL    C7425572   3.687   2.037   6.514 -0.0315 -0.2579 -0.4410
  210MOL    C7525573   3.763   2.101   6.398 -0.2227  0.4211  0.2616
  210MOL    F7625574   3.698   2.197   6.336 -0.1113  0.3750  0.0452
  210MOL    H7725575   3.671   2.105   6.597 -1.3377 -0.1082 -0.7991
  210MOL    H7825576   3.748   1.963   6.565  1.4350  1.8048  0.8655
  210MOL    H7925577   3.758   2.021   6.325  0.9034  0.3767  0.2272
  210MOL    C8025578   3.906   2.152   6.423  0.1160  0.5689 -0.3558
  210MOL    C8125579   3.929   2.271   6.524  0.9124  0.4120 -0.3025
  210MOL    F8225580   3.874   2.221   6.634  0.2279 -0.3379 -0.4858
  210MOL    H8325581   3.960   2.072   6.473  4.7655  4.0758  0.5895
  210MOL    H8425582   3.956   2.171   6.328  2.4145  1.6692  1.0493
  210MOL    H8525583   3.870   2.358   6.496 -0.2442 -0.1852  0.2306
  210MOL    C8625584   4.070   2.319   6.537 -0.4177  1.2046  0.3463
  210MOL    C8725585   4.085   2.431   6.646  0.0868  0.2131 -0.0202
  210MOL    F8825586   4.208   2.457   6.672  0.1696  0.0811 -0.0083
  210MOL    H8925587   4.141   2.238   6.553 -0.8589  0.3074 -2.0007
  210MOL    H9025588   4.096   2.359   6.439 -0.4285  0.7972  0.1733
  210MOL    H9125589   4.051   2.384   6.738  1.4350  0.0500  0.4101
  210MOL    C9225590   4.007   2.563   6.625 -0.2765 -0.5538 -0.4003
  210MOL    C9325591   3.992   2.650   6.748 -0.1246  0.1880  0.1408
  210MOL    F9425592   4.113   2.693   6.789  0.1447 -0.2996  0.1542
  210MOL    H9525593   4.051   2.620   6.543 -0.0501  0.1962  0.2343
  210MOL    H9625594   3.906   2.544   6.590  0.3921 -1.0504 -2.1255
  210MOL    H9725595   3.953   2.597   6.835  0.8075  0.8990  1.0103
  210MOL    C9825596   3.920   2.778   6.719 -0.2470 -0.4963 -0.2481
  210MOL    C9925597   3.780   2.765   6.678 -0.7748  0.2203 -0.5404
  210MOL   F10025598   3.715   2.683   6.763  0.4548  0.2046 -0.0171
  210MOL   H10125599   3.916   2.839   6.809 -1.9356  0.1606 -0.7556
  210MOL   H10225600   3.973   2.842   6.649 -0.1360  0.2001  0.4693
  210MOL   H10325601   3.777   2.718   6.579  1.7802 -1.8929  0.3395
  210MOL   C10425602   3.693   2.888   6.670 -0.4278 -0.3242 -1.3074
  210MOL   C10525603   3.646   2.973   6.798  0.2504  0.2487  0.0501
  210MOL   F10625604   3.759   3.029   6.841  0.1880 -0.1841 -0.1016
  210MOL   H10725605   3.735   2.954   6.595  1.6307 -0.2898 -0.1749
  210MOL   H10825606   3.597   2.856   6.629 -1.5766 -0.1435  1.1490
  210MOL   H10925607   3.632   2.904   6.881 -1.9758  0.9869  0.3149
  210MOL   C11025608   3.524   3.068   6.767 -0.2663 -0.8672 -0.0405
  210MOL   C11125609   3.488   3.169   6.878  0.4768 -0.5798  0.5963
  210MOL   F11225610   3.569   3.274   6.891  0.1027 -0.6476  0.0769
  210MOL   H11325611   3.526   3.123   6.674  0.3120 -0.1635  0.3888
  210MOL   H11425612   3.437   3.004   6.752 -1.4717  0.1021  2.4603
  210MOL   H11525613   3.479   3.132   6.980 -0.4419 -1.2983  0.2662
  210MOL   C11625614   3.352   3.232   6.855 -0.5757 -0.4070 -0.1413
  210MOL   C11725615   3.295   3.299   6.978 -0.6415 -0.5073 -0.6133
  210MOL   F11825616   3.159   3.311   6.969 -0.3574 -0.0167 -0.0728
  210MOL   H11925617   3.367   3.294   6.767 -1.2563 -0.0758 -0.0263
  210MOL   H12025618   3.284   3.149   6.832  0.5699 -1.2340 -0.5605
  210MOL   H12125619   3.328   3.402   6.993 -1.6834 -0.2762  0.1677
  210MOL   H12225620   3.314   3.245   7.071 -0.1938 -0.1486 -0.4895
  211MOL     C125621   5.976   6.817   3.735 -0.4130 -0.1005  0.4681
  211MOL     C225622   5.839   6.768   3.778 -0.1981 -0.8073  0.2523
  211MOL     F325623   5.759   6.877   3.769 -0.1759  0.0469 -0.2011
  211MOL     H425624   5.978   6.837   3.627  0.9005 -2.0062  0.1049
  211MOL     H525625   6.048   6.735   3.746 -1.4227 -1.0192  0.3826
  211MOL     H625626   5.842   6.747   3.884 -1.0360 -1.2163  0.2041
  211MOL     H725627   6.018   6.904   3.784 -0.0211 -0.8303  1.4450
  211MOL     C825628   5.771   6.661   3.698  0.4857  0.2211 -0.1085
  211MOL     C925629   5.843   6.524   3.703  0.4409 -0.0555 -0.6176
  211MOL    F1025630   5.860   6.483   3.832  0.1989  0.0342 -0.4477
  211MOL    H1125631   5.675   6.639   3.745 -0.0536 -0.7144 -1.5986
  211MOL    H1225632   5.752   6.696   3.596 -0.1411 -0.1599 -0.1290
  211MOL    H1325633   5.943   6.538   3.661  0.6663 -2.2662 -0.8766
  211MOL    C1425634   5.757   6.416   3.631  0.3662 -0.4234 -0.1619
  211MOL    C1525635   5.834   6.279   3.620  1.0293 -0.4203 -0.2428
  211MOL    F1625636   5.747   6.180   3.595  0.1012 -0.1674 -0.0128
  211MOL    H1725637   5.672   6.402   3.697  0.7434  1.6881  0.8243
  211MOL    H1825638   5.712   6.461   3.542  3.2158 -0.9848 -1.9875
  211MOL    H1925639   5.868   6.258   3.722 -0.5419 -1.8595 -0.0001
  211MOL    C2025640   5.946   6.265   3.512 -0.4377 -0.7348  0.0770
  211MOL    C2125641   6.025   6.133   3.525 -0.4983 -0.1265  0.0181
  211MOL    F2225642   6.101   6.129   3.422  0.1282  0.0562  0.3632
  211MOL    H2325643   5.897   6.276   3.415  0.9825 -0.5056 -0.6252
  211MOL    H2425644   5.999   6.360   3.517 -1.7970 -0.0103  1.3553
  211MOL    H2525645   5.956   6.048   3.520 -0.5263 -0.1877  1.1997
  211MOL    C2625646   6.116   6.125   3.641  0.1545  0.0651  0.1464
  211MOL    C2725647   6.194   5.988   3.650  0.4427 -0.5173 -0.2834
  211MOL    F2825648   6.252   5.988   3.770 -0.7485  0.2986  0.2259
  211MOL    H2925649   6.191   6.204   3.646  1.3407 -0.8818 -1.8956
  211MOL    H3025650   6.059   6.143   3.732  1.9118  3.8122  0.6075
  211MOL    H3125651   6.271   5.984   3.573 -0.7713  0.7383 -1.5668
  211MOL    C3225652   6.100   5.862   3.635 -0.0151 -0.0531 -0.8023
  211MOL    C3325653   6.167   5.727   3.678 -0.1893 -1.4193  0.0805
  211MOL    F3425654   6.076   5.633   3.661 -0.0767  0.6624  0.7361
  211MOL    H3525655   6.010   5.882   3.693 -0.9880  0.0173 -2.2999
  211MOL    H3625656   6.067   5.853   3.531  0.9374 -1.8951 -0.9620
  211MOL    H3725657   6.161   5.719   3.786 -1.9260 -0.8472  0.0436
  211MOL    C3825658   6.295   5.693   3.594  0.3087 -0.8739 -0.3681
  211MOL    C3925659   6.363   5.566   3.634  0.1571  0.4577 -0.4662
  211MOL    F4025660   6.278   5.472   3.590 -0.6263  0.0110  0.5847
  211MOL    H4125661   6.273   5.701   3.488  1.1974 -0.2307 -0.5122
  211MOL    H4225662   6.367   5.773   3.610 -0.8961 -0.1095  1.3687
  211MOL    H4325663   6.370   5.569   3.743 -1.3159  2.0897 -0.3895
  211MOL    C4425664   6.504   5.543   3.576  1.1738 -0.0011  0.0401
  211MOL    C4525665   6.607   5.664   3.602 -0.1616  0.2242  0.1525
  211MOL    F4625666   6.627   5.662   3.731 -0.1389  0.2671 -0.4334
  211MOL    H4725667   6.550   5.449   3.607  2.1765  0.6077  0.4082
  211MOL    H4825668   6.494   5.542   3.467 -2.7144  1.1948  0.2858
  211MOL    H4925669   6.565   5.761   3.572  0.3804  0.4316  0.0593
  211MOL    C5025670   6.754   5.648   3.551 -0.2800 -0.6896  0.7314
  211MOL    C5125671   6.778   5.703   3.410 -0.4450 -1.0791 -0.2891
  211MOL    F5225672   6.759   5.835   3.410  0.2716 -0.0103  0.2504
  211MOL    H5325673   6.827   5.694   3.618 -0.2750  0.5569 -0.1121
  211MOL    H5425674   6.769   5.541   3.552  0.8309 -0.5508 -0.0330
  211MOL    H5525675   6.702   5.657   3.347  0.3119 -1.4807 -0.9127
  211MOL    C5625676   6.917   5.683   3.361  0.3486 -0.4203  0.7642
  211MOL    C5725677   6.945   5.720   3.207 -0.4932  0.1597 -0.0016
  211MOL    F5825678   7.071   5.701   3.188 -0.5442  0.1042  0.0916
  211MOL    H5925679   6.986   5.733   3.428  0.4274  2.3375 -1.2793
  211MOL    H6025680   6.932   5.576   3.376 -2.2169 -1.0552 -0.8571
  211MOL    H6125681   6.924   5.826   3.196  0.7890  0.3231 -0.9898
  211MOL    C6225682   6.881   5.628   3.101 -0.3335 -0.2582 -0.6484
  211MOL    C6325683   6.909   5.473   3.127  0.3958  0.3490  0.1028
  211MOL    F6425684   6.821   5.433   3.218 -0.3918 -0.0285  0.1963
  211MOL    H6525685   6.774   5.649   3.092 -0.5247 -1.1882 -0.5780
  211MOL    H6625686   6.916   5.665   3.004 -1.5788  2.8026 -0.0016
  211MOL    H6725687   7.010   5.456   3.164  0.1093  0.1967  0.8338
  211MOL    C6825688   6.883   5.392   3.000  0.0968  0.4769 -0.4773
  211MOL    C6925689   6.980   5.409   2.884  0.1507  0.4553  0.4107
  211MOL    F7025690   7.099   5.410   2.940  0.1953  0.3002 -0.4842
  211MOL    H7125691   6.900   5.290   3.034  0.9818  1.0237  0.7466
  211MOL    H7225692   6.783   5.412   2.963 -0.4088  0.5293  0.8864
  211MOL    H7325693   6.963   5.511   2.850 -1.8855 -0.1553 -0.4929
  211MOL    C7425694   6.959   5.303   2.776  0.4447 -0.4397 -0.1927
  211MOL    C7525695   7.067   5.306   2.662  0.7735 -0.2510  0.4256
  211MOL    F7625696   7.049   5.217   2.569  0.4736 -0.0559  0.5082
  211MOL    H7725697   6.972   5.206   2.823 -0.1207 -1.0473 -1.2894
  211MOL    H7825698   6.856   5.303   2.740  1.1095  0.1185 -2.1470
  211MOL    H7925699   7.158   5.289   2.720 -0.9911  0.5891  3.5523
  211MOL    C8025700   7.078   5.435   2.582  0.0204 -0.3198  0.3651
  211MOL    C8125701   7.220   5.462   2.535 -0.3736 -0.2863 -0.8052
  211MOL    F8225702   7.315   5.463   2.627  0.1305 -0.5424 -0.6238
  211MOL    H8325703   7.018   5.427   2.492  0.2437  1.9448 -0.0132
  211MOL    H8425704   7.050   5.522   2.641  1.8761  0.9499 -0.5928
  211MOL    H8525705   7.221   5.564   2.495  0.9556  0.4359  0.9992
  211MOL    C8625706   7.258   5.360   2.430 -0.0292  0.3419  0.1764
  211MOL    C8725707   7.396   5.379   2.365 -0.1157 -0.8343  0.6465
  211MOL    F8825708   7.429   5.261   2.312  0.2718  0.4364  0.0735
  211MOL    H8925709   7.255   5.260   2.475 -1.5641  0.7081  0.9262
  211MOL    H9025710   7.184   5.337   2.354 -0.0915 -0.2303  0.4060
  211MOL    H9125711   7.466   5.392   2.448  1.4163  0.5615 -0.8299
  211MOL    C9225712   7.403   5.491   2.260 -0.4203 -0.0717 -0.2397
  211MOL    C9325713   7.548   5.512   2.223  0.1161 -0.3605 -0.2086
  211MOL    F9425714   7.535   5.595   2.121 -0.2887  0.4897 -0.4048
  211MOL    H9525715   7.350   5.452   2.173  0.5397  1.5483 -1.5785
  211MOL    H9625716   7.353   5.581   2.296 -0.0327  0.7873 -1.8250
  211MOL    H9725717   7.577   5.418   2.175 -1.5603 -0.5468 -0.8883
  211MOL    C9825718   7.650   5.561   2.325 -1.1415 -0.0388 -0.4544
  211MOL    C9925719   7.613   5.696   2.405  0.2032  0.4998 -0.4370
  211MOL   F10025720   7.493   5.677   2.463  0.1194  0.3982  0.1091
  211MOL   H10125721   7.676   5.477   2.390 -0.7224 -1.1302 -2.0226
  211MOL   H10225722   7.743   5.573   2.270 -1.7026 -0.0183 -1.3993
  211MOL   H10325723   7.605   5.784   2.341  0.0186  1.5085  0.9620
  211MOL   C10425724   7.728   5.729   2.506  0.0863  0.3151 -0.5067
  211MOL   C10525725   7.701   5.851   2.601 -0.1581 -0.0902  0.0797
  211MOL   F10625726   7.786   5.853   2.700  0.3108 -0.0374 -0.1894
  211MOL   H10725727   7.749   5.636   2.559  1.6129  0.3952 -0.9574
  211MOL   H10825728   7.829   5.737   2.467  1.0451  0.1595  1.8936
  211MOL   H10925729   7.603   5.852   2.649  0.4932  1.3319  1.4313
  211MOL   C11025730   7.713   5.983   2.525 -0.0179 -0.2293  0.2140
  211MOL   C11125731   7.718   6.113   2.605 -0.5685  0.1420  0.4157
  211MOL   F11225732   7.721   6.223   2.518 -0.4843 -0.1017 -0.2855
  211MOL   H11325733   7.803   5.975   2.464  0.2667  0.3993  0.5519
  211MOL   H11425734   7.631   6.007   2.456  1.2863  2.5750 -0.4332
  211MOL   H11525735   7.809   6.107   2.664 -0.2627 -1.5367 -0.1947
  211MOL   C11625736   7.604   6.143   2.696  0.2455 -0.6250 -0.7507
  211MOL   C11725737   7.618   6.277   2.761  0.7290 -0.7787  0.0028
  211MOL   F11825738   7.552   6.288   2.882  0.6271 -0.7721  0.1049
  211MOL   H11925739   7.507   6.135   2.649  0.2006  1.9795 -1.1662
  211MOL   H12025740   7.614   6.056   2.761  2.7957 -0.2716 -0.6140
  211MOL   H12125741   7.584   6.360   2.699  2.3012 -0.9119 -1.0595
  211MOL   H12225742   7.717   6.310   2.791  0.7906 -1.9595  1.1396
  212MOL     C125743   6.213   6.441   1.645  0.4132  0.0881 -0.1504
  212MOL     C225744   6.312   6.520   1.722  0.2151  0.4831  0.1908
  212MOL     F325745   6.435   6.463   1.707  0.3450  0.0355  0.4386
  212MOL     H425746   6.224   6.337   1.677 -2.9546  0.2615  1.7426
  212MOL     H525747   6.246   6.444   1.541 -0.9953  1.5760 -0.5614
  212MOL     H625748   6.299   6.528   1.830  0.9119 -0.2661  0.3347
  212MOL     H725749   6.109   6.473   1.650  0.7278  0.9580  1.3177
  212MOL     C825750   6.323   6.660   1.666 -0.2692  0.1582  0.3971
  212MOL     C925751   6.219   6.755   1.719 -0.7317 -0.6198  0.3132
  212MOL    F1025752   6.100   6.735   1.659 -0.1482 -0.0521 -0.0658
  212MOL    H1125753   6.417   6.707   1.694 -0.7179  2.2660 -1.5383
  212MOL    H1225754   6.326   6.666   1.557  1.3483  2.5895  0.5346
  212MOL    H1325755   6.247   6.854   1.683  1.0984 -1.5334 -0.8452
  212MOL    C1425756   6.199   6.753   1.867  0.6013  0.4156 -0.1007
  212MOL    C1525757   6.109   6.862   1.927 -0.4065  0.2665 -0.5743
  212MOL    F1625758   6.058   6.809   2.038 -0.1876 -0.3064  0.3145
  212MOL    H1725759   6.152   6.660   1.899  0.2003  1.1627  1.5315
  212MOL    H1825760   6.298   6.749   1.913  1.3595 -2.6978 -1.8815
  212MOL    H1925761   6.029   6.879   1.855 -2.6314 -2.1886  1.2312
  212MOL    C2025762   6.177   7.002   1.964  0.3917 -0.0014 -0.4483
  212MOL    C2125763   6.188   7.099   1.846  0.1096 -0.4924 -0.1193
  212MOL    F2225764   6.075   7.160   1.802 -0.0636 -0.6867  0.3666
  212MOL    H2325765   6.118   7.045   2.045 -0.3846 -0.8671 -0.5396
  212MOL    H2425766   6.271   6.981   2.015  0.2062 -1.1580 -0.5483
  212MOL    H2525767   6.206   7.053   1.749  0.5317 -0.8928  0.1466
  212MOL    C2625768   6.286   7.220   1.866  0.2841  0.6857 -0.0101
  212MOL    C2725769   6.240   7.329   1.966 -0.0078  0.1650  0.2239
  212MOL    F2825770   6.314   7.329   2.077 -0.1785  0.3068 -0.2005
  212MOL    H2925771   6.389   7.187   1.875 -0.6131 -1.5375  2.5718
  212MOL    H3025772   6.288   7.266   1.767 -2.4311  0.6232 -0.1448
  212MOL    H3125773   6.135   7.320   1.995 -0.5423 -0.0284 -1.6860
  212MOL    C3225774   6.252   7.479   1.934  0.3087  0.3181 -0.4243
  212MOL    C3325775   6.168   7.534   1.816  0.2731  0.7449 -0.0428
  212MOL    F3425776   6.043   7.496   1.843  0.6025 -0.3183  0.6027
  212MOL    H3525777   6.220   7.538   2.021  1.3665  0.5725 -0.2039
  212MOL    H3625778   6.354   7.507   1.909 -0.0750  1.0341 -1.2058
  212MOL    H3725779   6.197   7.481   1.725  0.5588  1.3643 -0.3128
  212MOL    C3825780   6.182   7.688   1.802  0.3265 -0.3901  0.0418
  212MOL    C3925781   6.133   7.726   1.667  0.3937 -0.3187 -0.2435
  212MOL    F4025782   5.999   7.711   1.660  0.0344 -0.2319  0.0183
  212MOL    H4125783   6.124   7.739   1.878 -1.9834 -3.3756  0.3874
  212MOL    H4225784   6.284   7.723   1.819  1.7154 -2.7125 -2.8117
  212MOL    H4325785   6.181   7.662   1.593 -1.5421 -1.6929 -0.3464
  212MOL    C4425786   6.143   7.879   1.636 -0.0259 -0.5258  0.0288
  212MOL    C4525787   6.089   7.923   1.499 -0.7081  0.4542 -0.7896
  212MOL    F4625788   5.958   7.903   1.488  0.4886  0.2382  0.2928
  212MOL    H4725789   6.077   7.922   1.712  1.2082  2.7196 -0.6323
  212MOL    H4825790   6.246   7.911   1.652  0.2702 -0.9618 -0.9992
  212MOL    H4925791   6.121   7.847   1.428  1.0642  0.3652  0.0807
  212MOL    C5025792   6.131   0.064   1.468 -0.1867 -0.0489 -0.1884
  212MOL    C5125793   6.118   0.107   1.318 -0.0655  0.8209  0.7144
  212MOL    F5225794   6.132   0.244   1.325 -0.2218 -0.3683 -0.4103
  212MOL    H5325795   6.086   0.142   1.529  0.0975 -0.3104  0.3515
  212MOL    H5425796   6.239   0.075   1.477  0.0294 -0.4017 -2.1265
  212MOL    H5525797   6.017   0.083   1.285  0.7836 -1.1034 -0.5561
  212MOL    C5625798   6.229   0.047   1.219 -0.3192  0.2305  0.2127
  212MOL    C5725799   6.213   0.098   1.076  0.0637  0.1527 -0.3836
  212MOL    F5825800   6.185   0.229   1.080 -0.2774  1.0456  0.2341
  212MOL    H5925801   6.329   0.078   1.249  0.2035 -2.1374  0.9667
  212MOL    H6025802   6.208   7.943   1.213 -0.3603  0.2329  0.3172
  212MOL    H6125803   6.131   0.045   1.029 -0.8050  0.2013  1.0271
  212MOL    C6225804   6.350   0.082   1.007 -0.1148 -0.2064 -0.0442
  212MOL    C6325805   6.346   0.080   0.854 -0.3053 -0.3559  0.1787
  212MOL    F6425806   6.263   7.993   0.808  0.2775  0.1763  0.6176
  212MOL    H6525807   6.406   0.168   1.043  0.6290 -0.7809  0.1790
  212MOL    H6625808   6.400   7.996   1.045  2.7902  1.6058  0.4952
  212MOL    H6725809   6.447   0.048   0.826 -0.1637 -0.4147  0.7514
  212MOL    C6825810   6.331   0.223   0.789 -0.7058  0.1288 -0.1310
  212MOL    C6925811   6.409   0.242   0.652 -0.2725  0.2786 -0.1719
  212MOL    F7025812   6.533   0.241   0.690  0.0265  0.5264  0.3487
  212MOL    H7125813   6.225   0.250   0.781 -0.6032  0.0218 -1.9088
  212MOL    H7225814   6.373   0.290   0.864 -0.5258  1.9953 -1.8501
  212MOL    H7325815   6.391   0.342   0.614  0.8825  0.1001 -1.2451
  212MOL    C7425816   6.384   0.131   0.546 -0.5499 -0.7598 -0.0983
  212MOL    C7525817   6.237   0.106   0.515 -0.3041 -0.7252  0.2876
  212MOL    F7625818   6.199   0.219   0.460  0.4281 -0.2800 -0.6391
  212MOL    H7725819   6.439   0.159   0.456 -1.7394  2.1339  0.0323
  212MOL    H7825820   6.433   0.042   0.586  0.8767 -1.5160 -3.3334
  212MOL    H7925821   6.168   0.096   0.599 -2.3674  1.7422 -1.0246
  212MOL    C8025822   6.218   7.995   0.411  0.5497 -0.0267 -0.1048
  212MOL    C8125823   6.193   7.858   0.469 -0.3469  0.2334 -0.1280
  212MOL    F8225824   6.091   7.865   0.553 -0.3439 -0.1368  0.2670
  212MOL    H8325825   6.129   0.021   0.354  2.3829  2.1251 -1.9582
  212MOL    H8425826   6.293   7.989   0.333  0.9423 -0.4096  0.3021
  212MOL    H8525827   6.283   7.836   0.526 -0.2613  2.9282  0.8367
  212MOL    C8625828   6.174   7.738   0.376  0.4559 -0.5471  0.2687
  212MOL    C8725829   6.180   7.600   0.445 -0.3365 -0.0504  0.0289
  212MOL    F8825830   6.309   7.569   0.462 -0.2367 -0.1261  0.2155
  212MOL    H8925831   6.085   7.746   0.313 -0.8878  2.1630  2.4091
  212MOL    H9025832   6.260   7.741   0.308  1.1327  2.2570  1.1956
  212MOL    H9125833   6.137   7.543   0.363 -0.9360 -2.2410  1.8197
  212MOL    C9225834   6.103   7.579   0.581  0.1774  0.0695  0.6752
  212MOL    C9325835   6.096   7.423   0.610  0.9194 -0.0720  0.2414
  212MOL    F9425836   6.221   7.372   0.610  0.2579 -0.2185 -0.4930
  212MOL    H9525837   6.146   7.639   0.661 -0.6819  1.0042  0.4458
  212MOL    H9625838   6.002   7.616   0.566 -0.4376 -2.1471 -0.8855
  212MOL    H9725839   6.050   7.364   0.530 -0.1975  1.8014 -0.5434
  212MOL    C9825840   6.027   7.383   0.737 -0.6524  0.1306 -0.4484
  212MOL    C9925841   5.992   7.235   0.759  0.2160  0.7088 -0.1276
  212MOL   F10025842   6.107   7.158   0.748 -0.0877 -0.1303  0.4482
  212MOL   H10125843   6.088   7.406   0.824 -0.8892  2.2759 -0.8142
  212MOL   H10225844   5.938   7.447   0.736  1.0225  2.5177 -1.2049
  212MOL   H10325845   5.931   7.212   0.672  1.7805 -0.6917 -0.8965
  212MOL   C10425846   5.924   7.218   0.902 -0.6122 -0.0466 -0.1069
  212MOL   C10525847   5.892   7.076   0.952  0.2502 -0.2766  0.1381
  212MOL   F10625848   5.815   7.101   1.062  0.1148  0.2283  0.8208
  212MOL   H10725849   5.958   7.278   0.987 -1.4041  0.7972 -0.3837
  212MOL   H10825850   5.836   7.278   0.880 -0.3853  0.5260  0.5416
  212MOL   H10925851   5.982   7.030   0.992 -0.6961 -1.2414  1.1936
  212MOL   C11025852   5.822   6.981   0.860  0.2334 -0.4206 -0.7802
  212MOL   C11125853   5.725   6.878   0.926  0.0158 -0.3951 -0.4572
  212MOL   F11225854   5.675   6.809   0.822 -0.2988 -0.2145 -0.3896
  212MOL   H11325855   5.770   7.040   0.784  1.2533 -1.2148 -2.1162
  212MOL   H11425856   5.907   6.938   0.807 -0.0534  0.6649 -2.1502
  212MOL   H11525857   5.639   6.932   0.969  0.2296 -1.5333  1.4652
  212MOL   C11625858   5.778   6.770   1.030  0.7282  0.0157 -0.0465
  212MOL   C11725859   5.677   6.661   1.080  0.9915  0.2958  0.4494
  212MOL   F11825860   5.739   6.564   1.144 -1.0751 -0.4242 -0.0569
  212MOL   H11925861   5.853   6.719   0.969  0.9363  1.0911 -0.6896
  212MOL   H12025862   5.828   6.818   1.114 -0.3497 -0.4815  0.8902
  212MOL   H12125863   5.626   6.615   0.996  2.3665  2.1154 -1.4144
  212MOL   H12225864   5.597   6.699   1.144  0.4375 -0.9906  0.5255
  213MOL     C125865   6.003   3.854   3.824  0.5955 -0.1879 -0.7752
  213MOL     C225866   6.109   3.798   3.918 -0.0088  0.6810 -0.2987
  213MOL     F325867   6.221   3.825   3.848  0.0545 -0.2605  0.6335
  213MOL     H425868   6.020   3.958   3.798  0.4378  0.0400  0.0189
  213MOL     H525869   5.900   3.851   3.861 -0.0775  1.4026 -2.4623
  213MOL     H625870   6.097   3.691   3.930 -1.7701  0.9452  0.4404
  213MOL     H725871   6.000   3.795   3.733  0.8949  0.4148 -1.1811
  213MOL     C825872   6.105   3.867   4.060  0.4563  0.1878  0.8389
  213MOL     C925873   6.000   3.822   4.158  0.0482  0.3768 -1.0813
  213MOL    F1025874   6.024   3.688   4.177  0.7461 -0.5630 -0.2644
  213MOL    H1125875   6.202   3.851   4.108  0.2921 -0.7261  0.8714
  213MOL    H1225876   6.093   3.972   4.033  0.9324  0.1963  0.6457
  213MOL    H1325877   5.905   3.823   4.106  0.4175 -1.6283 -1.8635
  213MOL    C1425878   5.992   3.906   4.290  0.2444 -0.1991  0.3655
  213MOL    C1525879   6.114   3.909   4.377  0.4429 -0.4430  0.7975
  213MOL    F1625880   6.203   3.980   4.316  0.2641  0.0609  0.0589
  213MOL    H1725881   5.966   4.009   4.263 -2.5754 -0.4789  1.8272
  213MOL    H1825882   5.906   3.866   4.344  1.5061 -1.6391  1.3223
  213MOL    H1925883   6.149   3.807   4.394  1.4098  0.0328  1.7171
  213MOL    C2025884   6.087   3.966   4.513  0.9753 -0.4782 -0.4225
  213MOL    C2125885   6.069   4.116   4.530 -0.1458 -0.3058  0.2758
  213MOL    F2225886   5.975   4.160   4.450 -0.0132  0.5899  0.5228
  213MOL    H2325887   6.002   3.911   4.555  0.5225 -0.0080 -0.7129
  213MOL    H2425888   6.170   3.945   4.581  1.9077 -0.5959 -1.5895
  213MOL    H2525889   6.159   4.169   4.498 -0.1713  0.8465  2.0354
  213MOL    C2625890   6.026   4.157   4.667 -0.7534 -0.6385 -0.5537
  213MOL    C2725891   6.131   4.136   4.784 -0.3324 -0.6921 -0.1800
  213MOL    F2825892   6.157   4.011   4.812 -0.1697  0.2757  0.3988
  213MOL    H2925893   6.004   4.261   4.642 -0.4466 -0.2344  0.8600
  213MOL    H3025894   5.930   4.107   4.684 -0.4804 -1.0868 -0.3502
  213MOL    H3125895   6.077   4.165   4.874 -0.6690 -0.5567 -0.4232
  213MOL    C3225896   6.268   4.201   4.771  0.5618  0.0987  0.4763
  213MOL    C3325897   6.365   4.190   4.889  0.5377  0.3069  0.2113
  213MOL    F3425898   6.309   4.259   4.994 -0.1058 -0.7494 -0.2874
  213MOL    H3525899   6.314   4.165   4.679  1.1751  0.5676  0.5906
  213MOL    H3625900   6.241   4.306   4.755 -2.9472 -0.7577  0.4934
  213MOL    H3725901   6.456   4.245   4.868  0.4793  0.1993 -0.3319
  213MOL    C3825902   6.424   4.053   4.926 -0.1744 -0.4512 -0.6808
  213MOL    C3925903   6.549   4.054   5.013  0.0754  0.6298  0.0860
  213MOL    F4025904   6.525   4.110   5.132  0.8805  0.1568  0.1963
  213MOL    H4125905   6.340   4.004   4.975  0.4213 -1.7270 -0.9219
  213MOL    H4225906   6.448   3.988   4.841  2.0786 -2.7577  1.6278
  213MOL    H4325907   6.625   4.116   4.964  1.3246  1.3090  2.8226
  213MOL    C4425908   6.595   3.916   5.050 -0.4712  0.0436 -0.0875
  213MOL    C4525909   6.729   3.914   5.124  0.4136  0.1905 -0.2152
  213MOL    F4625910   6.745   3.789   5.183 -0.2590 -0.0488  0.4409
  213MOL    H4725911   6.521   3.874   5.118 -2.0241  0.9210 -1.2083
  213MOL    H4825912   6.603   3.851   4.963  1.5280  0.9048 -0.5680
  213MOL    H4925913   6.729   3.984   5.207  0.1575 -0.2683  0.1713
  213MOL    C5025914   6.847   3.938   5.023 -0.7257 -0.5577 -0.1682
  213MOL    C5125915   6.982   3.945   5.099 -0.3896  0.6044  0.5008
  213MOL    F5225916   7.013   3.827   5.161  0.3254 -0.5300 -0.4121
  213MOL    H5325917   6.852   3.855   4.953 -0.2287 -0.1080 -0.6787
  213MOL    H5425918   6.836   4.035   4.973  0.7527  0.0013  0.5769
  213MOL    H5525919   6.987   4.025   5.173  0.0300  0.8126  0.2519
  213MOL    C5625920   7.097   3.963   5.004 -0.5207 -1.2382 -0.1271
  213MOL    C5725921   7.120   4.115   4.972  0.2762 -0.4864  0.3590
  213MOL    F5825922   7.165   4.186   5.078 -0.1908 -0.3433 -0.4624
  213MOL    H5925923   7.185   3.927   5.057  0.4358  0.4997 -0.5111
  213MOL    H6025924   7.089   3.902   4.914  0.2058 -1.4745 -0.0362
  213MOL    H6125925   7.027   4.165   4.944  0.3861  0.3351  1.4443
  213MOL    C6225926   7.232   4.146   4.863 -0.2959  0.6311  0.1430
  213MOL    C6325927   7.201   4.097   4.723  0.0249 -0.1617  0.8620
  213MOL    F6425928   7.081   4.145   4.688  0.1594  0.8616  0.1524
  213MOL    H6525929   7.227   4.255   4.863 -0.9324  0.6461  3.1263
  213MOL    H6625930   7.331   4.123   4.901 -1.5266 -1.2098  2.3317
  213MOL    H6725931   7.180   3.991   4.716 -1.1031 -0.1258  3.2219
  213MOL    C6825932   7.305   4.148   4.617 -0.5063 -0.1335  0.2334
  213MOL    C6925933   7.453   4.120   4.652 -0.2029 -0.0577  0.1622
  213MOL    F7025934   7.466   3.981   4.668  0.1278 -0.3725 -0.0083
  213MOL    H7125935   7.276   4.101   4.522 -0.8283 -3.9858  2.1456
  213MOL    H7225936   7.286   4.255   4.616 -0.3804 -0.0790  2.7412
  213MOL    H7325937   7.497   4.163   4.741 -0.2916 -2.4049  1.3749
  213MOL    C7425938   7.537   4.160   4.531 -0.0392  0.8038  1.0139
  213MOL    C7525939   7.687   4.128   4.543 -0.0703 -0.1185  0.1211
  213MOL    F7625940   7.707   4.003   4.510  0.0358  0.3817 -0.9758
  213MOL    H7725941   7.495   4.115   4.441  0.9521 -0.6767  1.2695
  213MOL    H7825942   7.524   4.267   4.516 -3.3082  0.3933  0.6307
  213MOL    H7925943   7.722   4.148   4.644 -1.9497  1.2180  0.5463
  213MOL    C8025944   7.768   4.220   4.448 -0.3693  0.2345 -0.0943
  213MOL    C8125945   7.919   4.202   4.468 -0.0305  0.2016 -0.0976
  213MOL    F8225946   7.977   4.243   4.358 -0.4612  0.5794  0.5021
  213MOL    H8325947   7.744   4.200   4.344  0.0416  0.8232 -0.3072
  213MOL    H8425948   7.743   4.325   4.465 -0.2162  0.6517 -2.3249
  213MOL    H8525949   7.944   4.096   4.474  2.7806  0.8688  1.0325
  213MOL    C8625950   7.970   4.282   4.595 -0.2339  0.1922  0.0001
  213MOL    C8725951   0.110   4.245   4.638 -0.5284  0.0294 -0.1153
  213MOL    F8825952   0.198   4.284   4.546  0.4466 -0.3078  0.3333
  213MOL    H8925953   7.969   4.391   4.598  0.7828  0.1928  1.0126
  213MOL    H9025954   7.903   4.250   4.675 -2.3978  3.1911 -0.5549
  213MOL    H9125955   0.122   4.137   4.649 -4.3314 -0.7438 -2.6984
  213MOL    C9225956   0.137   4.334   4.768  0.8601 -0.1325  0.1294
  213MOL    C9325957   0.269   4.281   4.831 -0.0182 -0.3868  0.5699
  213MOL    F9425958   0.319   4.386   4.893 -0.1220  0.6189  0.0709
  213MOL    H9525959   0.150   4.440   4.747  1.5547 -0.1649  0.3889
  213MOL    H9625960   0.052   4.334   4.836 -1.3588 -1.4040 -2.5247
  213MOL    H9725961   0.342   4.264   4.752  1.0083  0.9628  1.2074
  213MOL    C9825962   0.262   4.168   4.926 -0.5551  0.0540 -0.0917
  213MOL    C9925963   0.396   4.105   4.976  0.8714 -0.1540  0.2379
  213MOL   F10025964   0.460   4.056   4.874 -0.5620  0.2116 -0.3811
  213MOL   H10125965   0.204   4.204   5.011 -0.1707  0.1576  0.1313
  213MOL   H10225966   0.208   4.086   4.879 -0.8009 -0.5020  1.1256
  213MOL   H10325967   0.366   4.026   5.045 -3.2753  0.0904 -1.1108
  213MOL   C10425968   0.498   4.191   5.063  0.3460 -0.3227  0.5486
  213MOL   C10525969   0.441   4.245   5.196  0.0297  0.4297  0.2256
  213MOL   F10625970   0.543   4.277   5.276 -0.1142 -0.1136  0.3302
  213MOL   H10725971   0.588   4.136   5.089  0.0290 -1.4780 -0.7406
  213MOL   H10825972   0.534   4.264   4.990  3.4377 -1.0003  1.3338
  213MOL   H10925973   0.376   4.179   5.254  0.7007 -0.7609 -0.3617
  213MOL   C11025974   0.374   4.383   5.178  0.3437 -0.3553 -0.1879
  213MOL   C11125975   0.361   4.454   5.319 -0.4167  1.0610  0.7607
  213MOL   F11225976   0.317   4.576   5.289  0.3334  0.4107  0.0241
  213MOL   H11325977   0.432   4.446   5.111 -0.0579 -0.2123 -0.4010
  213MOL   H11425978   0.278   4.390   5.127  0.2886 -1.7903 -0.2921
  213MOL   H11525979   0.452   4.461   5.379  0.2064  1.1100 -0.1878
  213MOL   C11625980   0.261   4.381   5.410 -0.0407 -0.0470 -0.0644
  213MOL   C11725981   0.234   4.458   5.535 -0.4137 -0.1327 -0.1855
  213MOL   F11825982   0.132   4.403   5.594  0.1624 -0.1870  0.2105
  213MOL   H11925983   0.167   4.352   5.362  0.2565 -0.7822 -0.2019
  213MOL   H12025984   0.300   4.284   5.441 -1.8534 -1.3127 -1.6276
  213MOL   H12125985   0.220   4.565   5.519  0.3036 -0.2043 -1.3141
  213MOL   H12225986   0.308   4.447   5.615 -0.6855 -0.1380  0.0679
  214MOL     C125987   4.743   4.622   3.953  0.7573  0.3695 -0.3595
  214MOL     C225988   4.786   4.731   3.852 -0.3418 -0.4437 -0.5122
  214MOL     F325989   4.671   4.800   3.831  0.2479  0.0089  0.2286
  214MOL     H425990   4.707   4.667   4.045 -1.2883  0.7913 -1.3286
  214MOL     H525991   4.817   4.546   3.979  0.5939  0.1499 -0.5311
  214MOL     H625992   4.819   4.703   3.752  1.8038  0.3331 -0.0365
  214MOL     H725993   4.657   4.579   3.901  2.0192 -1.5464 -0.9275
  214MOL     C825994   4.893   4.833   3.914 -0.1591 -0.1714  0.6523
  214MOL     C925995   5.033   4.774   3.920  0.4409 -0.2563 -0.6923
  214MOL    F1025996   5.049   4.737   3.799 -0.1942 -0.3535  0.6564
  214MOL    H1125997   4.897   4.920   3.849  0.0120 -0.6807 -0.0341
  214MOL    H1225998   4.863   4.877   4.009  0.2362 -0.8979  1.1217
  214MOL    H1325999   5.022   4.688   3.986 -0.5168  0.7694  0.5022
  214MOL    C1426000   5.146   4.863   3.972  0.4179  0.4992  0.3181
  214MOL    C1526001   5.163   4.872   4.125  0.8315  0.0637 -0.3145
  214MOL    F1626002   5.171   4.752   4.170  0.1720  0.0925  0.0373
  214MOL    H1726003   5.240   4.833   3.925 -0.3661 -0.5486 -0.6246
  214MOL    H1826004   5.134   4.966   3.937 -0.2784  0.7170  1.1802
  214MOL    H1926005   5.068   4.915   4.158  0.9815 -0.6280  1.0239
  214MOL    C2026006   5.288   4.961   4.168 -0.9231  0.3177 -0.1167
  214MOL    C2126007   5.277   5.108   4.126 -0.1336  0.2006 -0.2716
  214MOL    F2226008   5.186   5.164   4.203 -0.4000  0.3129 -0.4627
  214MOL    H2326009   5.295   4.951   4.276 -0.2743  2.1742  0.0376
  214MOL    H2426010   5.375   4.915   4.123  0.7057  0.5078  2.7338
  214MOL    H2526011   5.239   5.103   4.025 -1.2858  0.0959  0.1658
  214MOL    C2626012   5.403   5.196   4.116  0.7433  0.2111 -0.7660
  214MOL    C2726013   5.466   5.223   4.251  0.1880  0.6314  0.1616
  214MOL    F2826014   5.523   5.106   4.290 -0.0697  0.0254  0.1843
  214MOL    H2926015   5.481   5.145   4.059 -1.2632 -2.0460 -1.5960
  214MOL    H3026016   5.382   5.293   4.071  0.9274  1.7061  2.2886
  214MOL    H3126017   5.393   5.251   4.327 -1.2059 -1.1855 -0.4685
  214MOL    C3226018   5.581   5.328   4.242  0.4850  0.4102  0.1219
  214MOL    C3326019   5.596   5.394   4.383  0.1277 -0.1603 -0.1110
  214MOL    F3426020   5.654   5.299   4.457  0.1808 -0.0086  0.2948
  214MOL    H3526021   5.672   5.286   4.201  1.8955  2.6765  0.8350
  214MOL    H3626022   5.562   5.401   4.163  2.2462 -0.1144 -0.7963
  214MOL    H3726023   5.504   5.412   4.439  0.2430 -2.2333  0.7911
  214MOL    C3826024   5.682   5.525   4.380 -0.2591 -0.3073  0.5331
  214MOL    C3926025   5.739   5.578   4.513  0.0579  0.2579  0.2333
  214MOL    F4026026   5.843   5.663   4.491  0.4548 -0.4922  0.2047
  214MOL    H4126027   5.774   5.510   4.324  0.1405  0.9348  0.8229
  214MOL    H4226028   5.631   5.601   4.321  0.5100  1.3425  1.9406
  214MOL    H4326029   5.785   5.497   4.570 -2.7891 -0.7778  1.1492
  214MOL    C4426030   5.631   5.648   4.602 -0.3995  0.5165 -0.8444
  214MOL    C4526031   5.678   5.659   4.748  0.4821 -0.8706 -0.0555
  214MOL    F4626032   5.750   5.765   4.747 -0.1851  0.3966 -0.2272
  214MOL    H4726033   5.599   5.744   4.562  0.0479  0.5178 -1.2107
  214MOL    H4826034   5.550   5.575   4.597  0.9876 -0.9742 -2.4491
  214MOL    H4926035   5.735   5.571   4.777  0.0494 -0.4694  2.0989
  214MOL    C5026036   5.569   5.673   4.858 -0.5062 -0.2306 -0.2978
  214MOL    C5126037   5.631   5.692   4.996  0.0899  0.7552 -0.7006
  214MOL    F5226038   5.670   5.812   5.010 -0.4226  0.1743 -0.0012
  214MOL    H5326039   5.505   5.759   4.835  0.7031  0.8823  0.4236
  214MOL    H5426040   5.505   5.585   4.855  1.2218 -1.4583 -1.1138
  214MOL    H5526041   5.718   5.628   5.009 -1.8918 -1.5745  1.6791
  214MOL    C5626042   5.546   5.659   5.117 -0.2604 -1.1755 -0.2001
  214MOL    C5726043   5.622   5.658   5.246 -0.6197  0.7611  0.4808
  214MOL    F5826044   5.651   5.773   5.295  1.0252  0.0519 -0.0693
  214MOL    H5926045   5.456   5.720   5.126 -1.6213 -2.8606 -1.8846
  214MOL    H6026046   5.523   5.553   5.111 -1.6238 -0.8009 -1.8531
  214MOL    H6126047   5.717   5.605   5.237 -2.6717 -3.2709  1.4235
  214MOL    C6226048   5.542   5.581   5.351  0.4797 -0.7744  0.3163
  214MOL    C6326049   5.552   5.431   5.338 -0.4081  0.2050  0.1604
  214MOL    F6426050   5.675   5.384   5.321  0.3861 -0.6302  0.4067
  214MOL    H6526051   5.579   5.609   5.450  0.7514  2.3725 -0.6218
  214MOL    H6626052   5.439   5.615   5.344  0.3885 -1.1352 -0.0939
  214MOL    H6726053   5.499   5.398   5.249  0.6391  1.0045 -0.7792
  214MOL    C6826054   5.510   5.358   5.468 -0.6029  0.6697  0.0708
  214MOL    C6926055   5.363   5.360   5.505 -0.2815  0.0689 -0.3259
  214MOL    F7026056   5.301   5.310   5.400 -0.1412 -0.2722 -0.3152
  214MOL    H7126057   5.541   5.254   5.457  0.1531  0.5530  2.8501
  214MOL    H7226058   5.562   5.401   5.554  2.6821 -2.5509 -0.1674
  214MOL    H7326059   5.314   5.457   5.513 -1.2679 -0.5278  1.2097
  214MOL    C7426060   5.330   5.268   5.628 -0.5173  0.0449  0.0429
  214MOL    C7526061   5.182   5.231   5.646 -0.1703 -0.2571 -0.0389
  214MOL    F7626062   5.111   5.336   5.625  0.2556  0.2287 -0.5036
  214MOL    H7726063   5.396   5.181   5.623 -0.3184  0.2169 -0.4053
  214MOL    H7826064   5.367   5.324   5.713 -0.0068 -1.8074  1.0754
  214MOL    H7926065   5.170   5.206   5.752 -1.4344 -0.4221 -0.2100
  214MOL    C8026066   5.137   5.112   5.565 -0.4197 -0.5357  0.0305
  214MOL    C8126067   4.996   5.053   5.594 -0.1574 -0.4128 -0.4810
  214MOL    F8226068   4.995   5.008   5.719 -0.2701 -0.0216 -0.3009
  214MOL    H8326069   5.159   5.135   5.461  1.9133 -1.0807  0.3690
  214MOL    H8426070   5.211   5.033   5.581 -0.3252 -0.3256  0.6268
  214MOL    H8526071   4.975   4.959   5.544  0.0876 -1.2445  0.9270
  214MOL    C8626072   4.884   5.153   5.553  0.2051 -0.1292 -0.9838
  214MOL    C8726073   4.868   5.182   5.402  0.2732  0.4488  0.7582
  214MOL    F8826074   4.851   5.074   5.328 -0.4728 -0.3235  0.3480
  214MOL    H8926075   4.795   5.103   5.591  0.8003 -0.6616 -0.2708
  214MOL    H9026076   4.890   5.243   5.615  0.6594 -2.1901  2.0594
  214MOL    H9126077   4.958   5.232   5.365  0.4970  0.8875  1.8876
  214MOL    C9226078   4.754   5.284   5.379  0.6316 -0.1247  0.6629
  214MOL    C9326079   4.705   5.306   5.230 -0.6075 -0.0965  0.2061
  214MOL    F9426080   4.639   5.202   5.183 -0.4557 -0.0503  0.1571
  214MOL    H9526081   4.665   5.258   5.438  0.0362  0.8003  0.1942
  214MOL    H9626082   4.788   5.379   5.421  1.1867 -0.0669  0.0862
  214MOL    H9726083   4.799   5.323   5.178 -2.4245  0.5529 -3.0455
  214MOL    C9826084   4.628   5.442   5.213 -0.9984  0.0634 -0.3851
  214MOL    C9926085   4.595   5.483   5.069 -0.5517  0.0084 -0.0931
  214MOL   F10026086   4.501   5.571   5.058 -0.1552  0.0825 -0.2558
  214MOL   H10126087   4.536   5.433   5.270  0.4884  1.4548  2.3369
  214MOL   H10226088   4.683   5.519   5.266 -2.8648  2.3489 -1.6673
  214MOL   H10326089   4.556   5.388   5.032  0.7357 -0.1898 -0.9685
  214MOL   C10426090   4.716   5.529   4.992 -0.0940 -0.2597  0.0108
  214MOL   C10526091   4.687   5.572   4.850 -0.8428 -0.3798  0.2331
  214MOL   F10626092   4.788   5.631   4.793  0.3741 -0.0733 -0.5620
  214MOL   H10726093   4.753   5.622   5.035 -1.7324 -1.1481  3.4520
  214MOL   H10826094   4.803   5.464   4.999 -1.8180 -2.4708  1.4520
  214MOL   H10926095   4.612   5.651   4.852 -1.6032 -1.1053  2.8497
  214MOL   C11026096   4.647   5.454   4.761 -0.6221 -0.2945 -0.1491
  214MOL   C11126097   4.765   5.362   4.723 -0.4798  0.2991  0.3179
  214MOL   F11226098   4.813   5.285   4.829  0.4679 -0.0318  0.0363
  214MOL   H11326099   4.568   5.392   4.804 -1.5782 -0.3716 -1.9798
  214MOL   H11426100   4.599   5.496   4.673  0.8356  1.1164 -0.3008
  214MOL   H11526101   4.857   5.420   4.713 -0.7267  0.7171  0.4556
  214MOL   C11626102   4.730   5.260   4.605 -0.3554 -0.2104 -0.6368
  214MOL   C11726103   4.685   5.318   4.472  0.5287  0.0255  0.4764
  214MOL   F11826104   4.645   5.211   4.405  0.3082 -0.2049 -0.6329
  214MOL   H11926105   4.819   5.198   4.587 -1.5623 -1.8210 -1.1662
  214MOL   H12026106   4.667   5.178   4.640  0.0509  0.8543  2.7744
  214MOL   H12126107   4.779   5.349   4.426  1.4470 -1.5452  1.2396
  214MOL   H12226108   4.607   5.393   4.468 -2.0163 -2.3900  2.5552
  215MOL     C126109   7.877   0.072   2.316  0.3470  0.2341 -0.2073
  215MOL     C226110   7.762   0.167   2.317  0.3576  0.2547  0.1236
  215MOL     F326111   7.731   0.215   2.190  0.3158 -0.1800 -0.2581
  215MOL     H426112   7.939   0.105   2.233  0.3831 -2.3922 -1.2749
  215MOL     H526113   7.854   7.970   2.297  0.9226  0.3336 -1.5181
  215MOL     H626114   7.784   0.257   2.375 -1.1025  0.7172  0.0030
  215MOL     H726115   7.933   0.069   2.409  0.8030  0.3067 -0.4742
  215MOL     C826116   7.632   0.102   2.360 -0.4484  0.4650  0.0051
  215MOL     C926117   7.519   0.196   2.408  0.0531  0.4980 -0.2975
  215MOL    F1026118   7.474   0.272   2.307  0.1942  0.1245 -0.5186
  215MOL    H1126119   7.603   0.031   2.283  0.5137  0.3469 -0.2603
  215MOL    H1226120   7.661   0.043   2.447 -1.4606  0.4633  0.3424
  215MOL    H1326121   7.551   0.264   2.487  0.9644 -0.5570  0.2541
  215MOL    C1426122   7.407   0.111   2.462 -0.1134  0.0014 -0.1111
  215MOL    C1526123   7.296   0.189   2.531  0.1033 -0.2256 -0.6960
  215MOL    F1626124   7.231   0.265   2.441 -0.1385  0.5992  0.4173
  215MOL    H1726125   7.353   0.060   2.383 -0.6305  3.2254 -1.9005
  215MOL    H1826126   7.452   0.038   2.530 -1.7624 -0.2631  0.7142
  215MOL    H1926127   7.349   0.250   2.604 -2.8418 -0.4618  1.7405
  215MOL    C2026128   7.196   0.106   2.610  0.6028  0.0180 -0.2395
  215MOL    C2126129   7.095   0.202   2.682 -0.2354  0.0988  0.5648
  215MOL    F2226130   6.984   0.130   2.703  0.6853 -0.1000 -0.4624
  215MOL    H2326131   7.139   0.034   2.551  0.0151  1.6014 -1.6683
  215MOL    H2426132   7.252   0.048   2.683  0.6804  1.2218  0.6771
  215MOL    H2526133   7.051   0.281   2.621  0.4293 -0.7820 -1.0857
  215MOL    C2626134   7.138   0.249   2.825 -0.1343  0.9593  0.4131
  215MOL    C2726135   7.027   0.311   2.909  0.5704 -0.4545 -0.0048
  215MOL    F2826136   7.077   0.374   3.016  0.0335  0.0658  0.6281
  215MOL    H2926137   7.185   0.169   2.882 -1.2583  0.2243  0.3281
  215MOL    H3026138   7.219   0.318   2.804  2.4687 -2.6420 -1.8319
  215MOL    H3126139   6.979   0.224   2.954 -0.5660 -0.0465 -0.3961
  215MOL    C3226140   6.921   0.406   2.833 -0.4191 -0.0360 -0.1516
  215MOL    C3326141   6.813   0.483   2.926 -0.4326  0.7049 -0.4157
  215MOL    F3426142   6.741   0.558   2.853 -0.3607 -0.6851 -0.2446
  215MOL    H3526143   6.972   0.485   2.777  1.8638 -0.5772  1.0988
  215MOL    H3626144   6.869   0.354   2.753 -1.2221  0.8523 -0.2206
  215MOL    H3726145   6.882   0.545   2.983 -1.1126  0.5307  0.6063
  215MOL    C3826146   6.712   0.387   2.994 -0.8869  0.4417 -0.3846
  215MOL    C3926147   6.651   0.280   2.898  0.4809  0.0357 -0.0059
  215MOL    F4026148   6.736   0.175   2.896  0.1388 -0.5616  0.7403
  215MOL    H4126149   6.759   0.328   3.072 -2.8034  0.8263  1.0987
  215MOL    H4226150   6.638   0.445   3.049 -0.1538 -0.2424  1.3441
  215MOL    H4326151   6.643   0.324   2.798 -2.8389  1.9739  1.0574
  215MOL    C4426152   6.514   0.217   2.935 -0.4744  0.3029  0.2687
  215MOL    C4526153   6.477   0.105   2.838  0.2480 -0.0787 -0.1370
  215MOL    F4626154   6.409   0.009   2.904  0.5956 -0.0256  0.5093
  215MOL    H4726155   6.531   0.170   3.032  1.5379  1.6198  0.5686
  215MOL    H4826156   6.432   0.287   2.953  0.8042  1.8634  0.1239
  215MOL    H4926157   6.564   0.057   2.793 -0.2857  0.9034 -2.3056
  215MOL    C5026158   6.391   0.157   2.722  0.5904  0.8894  0.5828
  215MOL    C5126159   6.376   0.054   2.611  0.0920  0.6506  0.3280
  215MOL    F5226160   6.304   0.112   2.512 -0.0536 -0.1930  0.0750
  215MOL    H5326161   6.298   0.200   2.758 -0.3165  1.7981 -2.6875
  215MOL    H5426162   6.443   0.247   2.690  0.5196  0.4936 -0.6705
  215MOL    H5526163   6.315   7.980   2.656  0.8210  0.2711  0.6785
  215MOL    C5626164   6.506   7.990   2.551 -0.4862 -0.0670 -0.6994
  215MOL    C5726165   6.470   7.892   2.436  0.3606 -0.6517 -0.5184
  215MOL    F5826166   6.586   7.853   2.374  0.3129  0.3645 -0.3194
  215MOL    H5926167   6.567   0.065   2.505  0.0443 -0.2416 -0.2978
  215MOL    H6026168   6.566   7.932   2.620  0.8642  1.5423 -0.4856
  215MOL    H6126169   6.418   7.940   2.353 -1.2400  2.0520  1.9461
  215MOL    C6226170   6.374   7.775   2.479 -0.2316 -0.2272  0.1360
  215MOL    C6326171   6.319   7.686   2.363 -0.2560  0.0593 -0.4710
  215MOL    F6426172   6.302   7.564   2.410  0.1107 -0.3150  0.2012
  215MOL    H6526173   6.435   7.706   2.538  2.8537  3.6839  1.7180
  215MOL    H6626174   6.296   7.802   2.550  1.1891  0.6772  1.3767
  215MOL    H6726175   6.399   7.675   2.289  0.2967 -0.6011  0.2201
  215MOL    C6826176   6.185   7.743   2.309  0.0907 -0.1875 -0.0246
  215MOL    C6926177   6.189   7.876   2.234  0.4962 -0.2740  0.3401
  215MOL    F7026178   6.293   7.864   2.146  0.0278  0.1356 -0.3195
  215MOL    H7126179   6.138   7.661   2.256  1.6181 -2.2584  1.6989
  215MOL    H7226180   6.127   7.764   2.399  2.2724  2.7168  0.7970
  215MOL    H7326181   6.223   7.958   2.298  2.7484  0.6143 -1.9036
  215MOL    C7426182   6.059   7.893   2.152  0.6648  0.2203  0.8508
  215MOL    C7526183   6.034   0.021   2.077 -0.1646  0.2558 -0.1514
  215MOL    F7626184   6.135   0.033   1.988 -0.0067  0.5350 -0.4354
  215MOL    H7726185   6.058   7.810   2.081 -0.0506  0.1072  0.9858
  215MOL    H7826186   5.977   7.883   2.223  0.6470  1.9343  1.0878
  215MOL    H7926187   6.040   0.093   2.159 -1.0106  0.1728 -0.0172
  215MOL    C8026188   5.901   0.041   2.010 -0.7272  0.1351  0.1733
  215MOL    C8126189   5.872   0.176   1.947 -0.4405  0.4894  1.2482
  215MOL    F8226190   5.940   0.272   2.015 -0.3048  0.0362  0.2394
  215MOL    H8326191   5.879   7.968   1.936 -0.9202 -1.2243  1.5924
  215MOL    H8426192   5.824   0.031   2.087 -0.3654  2.9605  0.9815
  215MOL    H8526193   5.766   0.202   1.941 -0.6183 -0.3251  0.7556
  215MOL    C8626194   5.909   0.187   1.804 -0.1871 -0.1558 -0.2272
  215MOL    C8726195   5.868   0.321   1.729  0.3163  0.0920 -0.2815
  215MOL    F8826196   5.740   0.343   1.751  0.1544  0.3184 -0.2379
  215MOL    H8926197   6.018   0.182   1.793 -0.2875  0.6806 -1.7138
  215MOL    H9026198   5.862   0.109   1.743  0.0674 -0.9352  0.5566
  215MOL    H9126199   5.879   0.307   1.622  1.6174 -0.2028 -0.1152
  215MOL    C9226200   5.950   0.445   1.763  1.0800 -0.4175  0.2179
  215MOL    C9326201   5.951   0.551   1.649 -0.0527 -0.2051 -0.2605
  215MOL    F9426202   6.022   0.496   1.552  0.0053  0.1149 -0.5578
  215MOL    H9526203   5.905   0.485   1.853 -1.3415  0.9423 -1.5286
  215MOL    H9626204   6.052   0.417   1.787  1.0839 -0.7321 -0.1415
  215MOL    H9726205   6.006   0.633   1.695 -0.2163  0.6098 -1.4938
  215MOL    C9826206   5.807   0.596   1.602 -0.0967 -0.7946 -0.0533
  215MOL    C9926207   5.708   0.635   1.717 -0.5215  0.4032 -0.1647
  215MOL   F10026208   5.748   0.737   1.787  0.6906 -0.2167 -0.1419
  215MOL   H10126209   5.817   0.679   1.533  1.2149  0.6576  1.8350
  215MOL   H10226210   5.752   0.515   1.555  0.2023 -1.2615  0.4010
  215MOL   H10326211   5.694   0.552   1.785 -0.8897 -0.5267 -1.3503
  215MOL   C10426212   5.568   0.670   1.660  0.1054  0.2837  0.2961
  215MOL   C10526213   5.558   0.799   1.570 -0.3734 -0.2730  0.6859
  215MOL   F10626214   5.607   0.766   1.449  0.6943  0.0516  0.0177
  215MOL   H10726215   5.533   0.582   1.605 -1.0457 -0.1265  1.6508
  215MOL   H10826216   5.506   0.682   1.749  0.6461 -0.5808  0.7957
  215MOL   H10926217   5.621   0.880   1.605 -0.9986  0.5903 -0.1691
  215MOL   C11026218   5.415   0.844   1.548  0.2955  0.4695  0.5713
  215MOL   C11126219   5.326   0.745   1.469  0.4418 -0.6715  0.1537
  215MOL   F11226220   5.307   0.634   1.545 -0.1113 -0.2775 -0.1116
  215MOL   H11326221   5.371   0.880   1.641 -0.2163  0.0975  0.4744
  215MOL   H11426222   5.407   0.934   1.487 -2.0978  0.8264  1.3981
  215MOL   H11526223   5.388   0.708   1.387  2.2981  2.8809 -0.1553
  215MOL   C11626224   5.197   0.809   1.443 -0.4303 -0.3648 -0.3279
  215MOL   C11726225   5.084   0.714   1.409 -1.0387 -0.4089 -0.0742
  215MOL   F11826226   5.117   0.646   1.297 -0.3650  0.4070  0.5673
  215MOL   H11926227   5.164   0.878   1.521 -1.5427  0.2764 -1.3677
  215MOL   H12026228   5.211   0.883   1.365  2.7872 -0.8640 -0.3074
  215MOL   H12126229   4.998   0.779   1.395 -1.1896 -0.8698 -1.3321
  215MOL   H12226230   5.058   0.650   1.494  2.1136  0.8964  1.9879
  216MOL     C126231   4.402   5.019   5.720  0.4186 -0.5633 -0.1199
  216MOL     C226232   4.285   5.027   5.824 -0.7115  0.1582  0.7110
  216MOL     F326233   4.290   5.145   5.887  0.3071 -0.0655  0.2097
  216MOL     H426234   4.414   4.924   5.669 -0.4997 -0.5005 -0.4421
  216MOL     H526235   4.497   5.051   5.764  0.7561  0.3186 -1.4462
  216MOL     H626236   4.295   4.957   5.907  0.4232  2.3364  2.4623
  216MOL     H726237   4.396   5.104   5.652  1.8475 -0.1380  0.2454
  216MOL     C826238   4.146   5.006   5.760 -0.2083  0.1919  0.0638
  216MOL     C926239   4.110   4.861   5.715  0.2739 -0.3739  0.1058
  216MOL    F1026240   4.112   4.780   5.830 -0.0149 -0.0079  0.0566
  216MOL    H1126241   4.070   5.030   5.834  0.5099 -0.0922  0.8943
  216MOL    H1226242   4.121   5.083   5.688 -0.5570  0.2763  0.2746
  216MOL    H1326243   4.186   4.821   5.648  0.7472  1.5195 -0.5165
  216MOL    C1426244   3.982   4.862   5.636  0.2483  0.7745 -0.6822
  216MOL    C1526245   3.932   4.726   5.586 -0.3182  0.6165  0.3064
  216MOL    F1626246   3.813   4.733   5.526  0.0087 -0.3369  0.7802
  216MOL    H1726247   3.909   4.903   5.705  1.1605 -0.3750  0.9973
  216MOL    H1826248   3.986   4.929   5.550  0.4008 -0.2395 -1.4740
  216MOL    H1926249   3.903   4.667   5.673 -0.9912  1.2265  0.4957
  216MOL    C2026250   4.022   4.652   5.487  0.2956 -0.3250 -0.1271
  216MOL    C2126251   4.003   4.499   5.487  0.3990  0.6131  0.4158
  216MOL    F2226252   3.885   4.478   5.432  0.1239 -0.0719 -0.5797
  216MOL    H2326253   4.012   4.694   5.387 -1.3494 -0.4923 -0.0341
  216MOL    H2426254   4.121   4.670   5.529 -0.1835  1.6180  0.2300
  216MOL    H2526255   4.001   4.453   5.586  0.6108 -0.5821 -0.1313
  216MOL    C2626256   4.104   4.421   5.400  0.4180 -0.0924  0.5780
  216MOL    C2726257   4.114   4.468   5.256  0.3022 -0.0967  0.0613
  216MOL    F2826258   4.172   4.585   5.261 -0.0977  0.4874  0.4965
  216MOL    H2926259   4.199   4.437   5.452  0.1322 -0.1451  1.1133
  216MOL    H3026260   4.083   4.314   5.405 -0.9141  0.0361 -1.5246
  216MOL    H3126261   4.013   4.485   5.221  0.1121 -2.9829 -0.9436
  216MOL    C3226262   4.199   4.379   5.166  0.1417 -0.0055 -0.7761
  216MOL    C3326263   4.129   4.249   5.120  0.6981  0.9230 -0.6992
  216MOL    F3426264   3.997   4.274   5.116  0.2269  0.2057  0.2266
  216MOL    H3526265   4.204   4.438   5.075  0.7477 -1.6026 -1.7834
  216MOL    H3626266   4.294   4.358   5.215 -0.3515  1.5693  0.9417
  216MOL    H3726267   4.134   4.168   5.193  0.4535 -0.7291 -2.4952
  216MOL    C3826268   4.176   4.191   4.990 -0.1326  0.5459  0.1400
  216MOL    C3926269   4.133   4.041   4.952  0.4989  0.0989 -0.0656
  216MOL    F4026270   4.194   3.957   5.041  0.2483 -0.0658 -0.7115
  216MOL    H4126271   4.142   4.256   4.909  0.2138 -2.4964 -2.5395
  216MOL    H4226272   4.284   4.188   4.975 -0.0060  0.1769  1.0548
  216MOL    H4326273   4.171   4.018   4.853 -0.7596  1.3131 -0.8650
  216MOL    C4426274   3.979   4.017   4.957  0.2312 -0.6002  0.0037
  216MOL    C4526275   3.896   4.087   4.848 -0.6671 -0.2324  0.0232
  216MOL    F4626276   3.956   4.068   4.735 -0.1677  0.2987 -0.0489
  216MOL    H4726277   3.966   3.917   4.918  1.7338 -0.1450 -1.7300
  216MOL    H4826278   3.947   4.024   5.061 -1.1399 -1.4510 -0.3507
  216MOL    H4926279   3.905   4.191   4.878 -1.3438 -0.2457  0.2621
  216MOL    C5026280   3.747   4.034   4.840  0.0002  0.5171  0.4736
  216MOL    C5126281   3.650   4.139   4.782  0.2278 -0.0640 -0.1619
  216MOL    F5226282   3.664   4.147   4.648  0.3713  0.1223  0.2669
  216MOL    H5326283   3.736   3.942   4.782 -0.4339  0.7038  0.2586
  216MOL    H5426284   3.713   4.008   4.940 -0.4324  2.0596  0.7446
  216MOL    H5526285   3.672   4.235   4.828 -1.7860  1.5884 -2.5730
  216MOL    C5626286   3.496   4.122   4.801  0.3040  0.0505 -0.1847
  216MOL    C5726287   3.450   4.107   4.948  0.8536  0.1318 -0.0600
  216MOL    F5826288   3.506   4.215   5.010  0.3954 -0.7764 -0.4657
  216MOL    H5926289   3.442   4.194   4.741 -0.7418 -1.5423 -1.1911
  216MOL    H6026290   3.469   4.035   4.742  1.1127 -0.2095 -0.1858
  216MOL    H6126291   3.497   4.023   4.999  2.1579  1.6168  1.2278
  216MOL    C6226292   3.298   4.096   4.964 -0.2394  0.1830 -0.0171
  216MOL    C6326293   3.237   4.062   5.101 -0.5749 -0.2366  0.3964
  216MOL    F6426294   3.287   3.942   5.128  0.5752  0.1339  0.6670
  216MOL    H6526295   3.245   4.184   4.930  1.4292  0.5416 -1.8459
  216MOL    H6626296   3.258   4.018   4.899 -3.4689 -0.2795  2.4501
  216MOL    H6726297   3.128   4.061   5.110 -0.6565  0.7983 -0.3922
  216MOL    C6826298   3.271   4.162   5.212 -0.2467  0.0414 -0.2705
  216MOL    C6926299   3.247   4.107   5.351 -0.1914  0.7710  0.0066
  216MOL    F7026300   3.327   4.158   5.442 -0.4423 -0.1915  0.0938
  216MOL    H7126301   3.378   4.181   5.200 -0.2365 -0.1646 -0.5163
  216MOL    H7226302   3.217   4.256   5.203 -0.7878 -0.3066 -0.7245
  216MOL    H7326303   3.264   3.999   5.355 -1.0081  0.5440 -2.3523
  216MOL    C7426304   3.107   4.138   5.397  0.2039  0.6489 -0.5670
  216MOL    C7526305   3.077   4.070   5.535  0.9444  0.2311  0.2855
  216MOL    F7626306   2.974   4.128   5.590  0.4592 -0.2229 -0.1104
  216MOL    H7726307   3.086   4.245   5.408  0.4490  0.7626 -1.1615
  216MOL    H7826308   3.031   4.095   5.331 -0.6322  1.0369  0.1275
  216MOL    H7926309   3.156   4.096   5.605  1.8564  0.1348 -0.7053
  216MOL    C8026310   3.044   3.923   5.529  0.4143  0.8079 -0.8357
  216MOL    C8126311   3.013   3.861   5.670 -0.5975  0.0969 -0.2620
  216MOL    F8226312   2.966   3.741   5.633 -0.2075  0.1615 -0.1690
  216MOL    H8326313   2.954   3.907   5.470  0.2224  2.2678 -0.9637
  216MOL    H8426314   3.123   3.860   5.489 -1.5934 -2.5561  0.2380
  216MOL    H8526315   2.933   3.909   5.727  0.5090 -1.6497  2.9235
  216MOL    C8626316   3.135   3.844   5.763 -0.1547  0.0038  0.0158
  216MOL    C8726317   3.115   3.774   5.901  0.4028  0.0303 -0.2898
  216MOL    F8826318   3.229   3.780   5.958 -0.2079  0.2526  0.1360
  216MOL    H8926319   3.202   3.775   5.713 -0.6123 -0.4465  0.0201
  216MOL    H9026320   3.192   3.936   5.775 -1.8489  1.1730 -0.5895
  216MOL    H9126321   3.092   3.668   5.894  0.1458  0.0072  0.7200
  216MOL    C9226322   3.006   3.844   5.994 -0.0208 -0.0992  0.0824
  216MOL    C9326323   3.012   3.811   6.143 -0.6810  0.2484  0.1832
  216MOL    F9426324   3.117   3.885   6.187  0.0762 -0.4461  0.0630
  216MOL    H9526325   3.014   3.952   5.985  2.9958 -0.3262 -0.4171
  216MOL    H9626326   2.905   3.831   5.956 -0.2641 -0.7142  0.9152
  216MOL    H9726327   3.026   3.706   6.166  1.5255  1.3162  4.2795
  216MOL    C9826328   2.881   3.853   6.206 -0.5156 -0.3191 -0.2314
  216MOL    C9926329   2.825   4.001   6.200  0.3098  0.4279  0.2480
  216MOL   F10026330   2.688   4.001   6.216  0.1973  0.0929 -0.4678
  216MOL   H10126331   2.798   3.802   6.158  0.0205 -0.1794 -1.3156
  216MOL   H10226332   2.889   3.814   6.307  2.0447  0.9934  0.1190
  216MOL   H10326333   2.832   4.053   6.104 -1.9747 -0.1818 -0.2970
  216MOL   C10426334   2.891   4.085   6.306 -0.0896  0.0063 -0.7714
  216MOL   C10526335   2.856   4.233   6.320 -0.2010 -0.1300  0.2308
  216MOL   F10626336   2.904   4.261   6.443  0.3515  0.1151 -0.4678
  216MOL   H10726337   2.882   4.041   6.406 -1.7937  2.0063 -0.0140
  216MOL   H10826338   2.995   4.070   6.277  0.3580 -0.9776  1.2372
  216MOL   H10926339   2.748   4.243   6.327 -0.0247  1.0716  1.2744
  216MOL   C11026340   2.920   4.324   6.216 -0.0384 -0.3358 -0.2537
  216MOL   C11126341   2.862   4.465   6.224 -0.0432 -0.2298 -0.1980
  216MOL   F11226342   2.879   4.521   6.346 -0.2729 -0.2612 -0.6543
  216MOL   H11326343   3.025   4.330   6.246 -0.5455  0.8703  1.3441
  216MOL   H11426344   2.900   4.282   6.118  1.0289  0.2392 -0.7228
  216MOL   H11526345   2.755   4.479   6.214  0.0610  0.0971 -0.9299
  216MOL   C11626346   2.912   4.560   6.112  0.1536  0.1369  1.0032
  216MOL   C11726347   2.818   4.684   6.109 -0.6906  0.3422  0.3681
  216MOL   F11826348   2.690   4.660   6.080 -0.1595 -0.2005 -0.1543
  216MOL   H11926349   3.012   4.594   6.139 -0.0410  0.4947  1.2784
  216MOL   H12026350   2.910   4.508   6.016  1.5416  0.1302  0.9783
  216MOL   H12126351   2.854   4.757   6.036 -0.3410 -0.8217 -0.6276
  216MOL   H12226352   2.818   4.738   6.204  0.6705  2.3273 -0.7153
  217MOL     C126353   7.031   0.935   3.960  0.0117  0.2633  0.3705
  217MOL     C226354   6.935   0.881   3.854  0.2573  0.3455 -0.1893
  217MOL     F326355   7.015   0.823   3.762  0.1469 -0.9545  0.3357
  217MOL     H426356   6.976   1.003   4.025 -3.3170 -0.2768 -1.7083
  217MOL     H526357   7.107   0.988   3.903  1.0555 -0.3827  1.1551
  217MOL     H626358   6.881   0.963   3.805 -0.6933 -0.6566 -0.8559
  217MOL     H726359   7.088   0.865   4.021  0.6961 -0.1533 -0.7227
  217MOL     C826360   6.830   0.785   3.906  0.0437  0.0727  0.3289
  217MOL     C926361   6.718   0.776   3.805  0.2395  0.1746 -0.3597
  217MOL    F1026362   6.762   0.745   3.686 -0.0611 -0.5984 -0.0699
  217MOL    H1126363   6.876   0.694   3.943 -1.3632 -1.3201 -1.2748
  217MOL    H1226364   6.783   0.827   3.996 -0.7800 -2.1189  0.9415
  217MOL    H1326365   6.664   0.871   3.796 -0.1170 -0.0826 -1.0069
  217MOL    C1426366   6.605   0.680   3.841 -0.0436  0.4933 -0.2385
  217MOL    C1526367   6.521   0.718   3.967  0.2286  0.8288  0.2910
  217MOL    F1626368   6.481   0.845   3.943 -0.3950  0.0991  0.2590
  217MOL    H1726369   6.529   0.674   3.763 -0.9921  2.2846  0.5029
  217MOL    H1826370   6.643   0.579   3.850  0.1368  0.4697 -1.2524
  217MOL    H1926371   6.585   0.713   4.055 -0.3310 -0.7159  0.6235
  217MOL    C2026372   6.401   0.622   3.973  0.4900 -0.2140  1.0288
  217MOL    C2126373   6.418   0.474   3.980 -0.0628  0.1465 -0.4959
  217MOL    F2226374   6.438   0.445   4.103  0.3722 -0.2741 -0.7304
  217MOL    H2326375   6.329   0.654   4.049 -0.2748 -1.6958  0.9368
  217MOL    H2426376   6.352   0.640   3.877 -1.2466  1.4346  2.1869
  217MOL    H2526377   6.503   0.428   3.929  0.6689  1.5234 -0.5255
  217MOL    C2626378   6.293   0.393   3.927  0.5358 -0.1422 -0.4325
  217MOL    C2726379   6.271   0.403   3.775 -0.4530 -0.1682 -0.6540
  217MOL    F2826380   6.389   0.365   3.720 -0.2502 -0.2815 -0.0853
  217MOL    H2926381   6.312   0.289   3.954  1.9474  0.0546 -0.6170
  217MOL    H3026382   6.201   0.423   3.977  1.3559 -2.0159  2.3115
  217MOL    H3126383   6.240   0.504   3.750  0.7328 -0.2067 -2.4145
  217MOL    C3226384   6.163   0.304   3.734  0.0908  0.0887  0.1672
  217MOL    C3326385   6.021   0.370   3.750  0.4536  0.4034 -0.2166
  217MOL    F3426386   6.009   0.471   3.664 -0.0227  0.5101 -0.1913
  217MOL    H3526387   6.183   0.287   3.628  3.4293 -2.1346  1.0893
  217MOL    H3626388   6.189   0.217   3.794  0.6428 -0.1915 -0.4771
  217MOL    H3726389   6.016   0.406   3.853 -2.8292  1.3062 -0.6393
  217MOL    C3826390   5.908   0.277   3.719  0.7604  0.5669 -0.9839
  217MOL    C3926391   5.767   0.322   3.783  0.1588 -0.0865  0.5028
  217MOL    F4026392   5.699   0.402   3.697  0.0708 -0.5289 -0.2458
  217MOL    H4126393   5.891   0.262   3.613  0.8490  0.0083 -0.9169
  217MOL    H4226394   5.924   0.178   3.762 -2.0459  1.9666  3.5734
  217MOL    H4326395   5.792   0.374   3.876  1.8118 -0.6554  0.3947
  217MOL    C4426396   5.672   0.204   3.804 -0.0070  0.2432  0.7305
  217MOL    C4526397   5.535   0.235   3.869 -0.4515 -0.4593  0.1013
  217MOL    F4626398   5.484   0.345   3.819  0.0281  0.5396  0.1376
  217MOL    H4726399   5.647   0.169   3.704 -1.3726 -0.4798  1.3105
  217MOL    H4826400   5.715   0.117   3.853  1.5684 -0.3424 -1.6125
  217MOL    H4926401   5.555   0.252   3.975  1.3584 -3.7106  0.3700
  217MOL    C5026402   5.439   0.122   3.859  0.6092 -0.1770 -0.8239
  217MOL    C5126403   5.302   0.132   3.936 -0.6028  0.2350 -0.0279
  217MOL    F5226404   5.228   0.036   3.873 -0.0366 -0.3616  0.5460
  217MOL    H5326405   5.429   0.121   3.750 -0.0545  0.7854 -0.7784
  217MOL    H5426406   5.476   0.024   3.889 -0.4092 -0.3346 -0.0258
  217MOL    H5526407   5.246   0.224   3.919  1.0533  1.9281  3.2447
  217MOL    C5626408   5.320   0.104   4.092 -0.3127  0.0163 -0.5944
  217MOL    C5726409   5.192   0.102   4.178  0.2211 -0.3686  0.5121
  217MOL    F5826410   5.138   0.228   4.148  0.7454  0.0200 -0.1979
  217MOL    H5926411   5.385   0.017   4.101  3.1780  2.6632  1.7535
  217MOL    H6026412   5.378   0.184   4.140 -3.2136  0.9123  1.5475
  217MOL    H6126413   5.218   0.114   4.283  2.6821  0.2043 -0.1517
  217MOL    C6226414   5.088   7.996   4.149 -0.2925  0.0151 -0.1798
  217MOL    C6326415   5.148   7.854   4.130 -0.7134 -0.2977  0.4726
  217MOL    F6426416   5.242   7.831   4.223 -0.1149 -0.5065 -0.2305
  217MOL    H6526417   5.010   8.001   4.225 -0.3784  1.2564 -0.3444
  217MOL    H6626418   5.038   0.017   4.055 -0.9950  0.0763  0.2034
  217MOL    H6726419   5.209   7.845   4.041  0.0085 -0.4770  0.9751
  217MOL    C6826420   5.042   7.736   4.127  0.2299 -0.3421  0.3584
  217MOL    C6926421   4.944   7.753   4.011 -0.6722 -0.2430 -0.6120
  217MOL    F7026422   5.015   7.781   3.895  0.0542  0.1427 -0.2518
  217MOL    H7126423   5.087   7.637   4.133 -0.4095 -0.5194  2.3668
  217MOL    H7226424   4.982   7.740   4.217 -0.4155 -0.5522 -0.0577
  217MOL    H7326425   4.885   7.840   4.039 -0.6790 -0.9445  1.7229
  217MOL    C7426426   4.838   7.646   3.976  0.3256  0.9443  0.3699
  217MOL    C7526427   4.732   7.613   4.089  0.0501  0.1869 -0.2436
  217MOL    F7626428   4.645   7.712   4.124 -0.1934 -0.1094  0.1728
  217MOL    H7726429   4.779   7.678   3.890 -1.2692  1.9683  1.8048
  217MOL    H7826430   4.882   7.552   3.942 -0.4998  0.5851  0.2648
  217MOL    H7926431   4.791   7.587   4.176  2.2865  0.3800 -1.6777
  217MOL    C8026432   4.636   7.497   4.056 -0.6757 -0.0984 -0.6525
  217MOL    C8126433   4.558   7.518   3.930 -0.4185 -0.4073 -0.6210
  217MOL    F8226434   4.649   7.500   3.839 -0.2809 -0.3653  0.2283
  217MOL    H8326435   4.698   7.409   4.039  0.4983  0.9947 -2.2059
  217MOL    H8426436   4.575   7.464   4.140  0.7454 -0.0691  0.4105
  217MOL    H8526437   4.530   7.623   3.922  2.3993  0.4165 -0.1446
  217MOL    C8626438   4.439   7.436   3.891 -0.1660 -0.1117 -0.4775
  217MOL    C8726439   4.473   7.289   3.882 -0.2804 -0.2347 -0.0129
  217MOL    F8826440   4.522   7.241   4.000  0.2744 -0.0789 -0.4014
  217MOL    H8926441   4.358   7.459   3.960 -0.1311 -0.9186 -0.1593
  217MOL    H9026442   4.406   7.473   3.794 -0.5433  0.6937 -0.0462
  217MOL    H9126443   4.562   7.290   3.818  1.6442 -1.2932  2.5489
  217MOL    C9226444   4.373   7.195   3.814 -0.3872 -0.2721  0.0340
  217MOL    C9326445   4.326   7.240   3.676  0.0435 -0.1493  0.1537
  217MOL    F9426446   4.438   7.235   3.598 -0.0935  0.2131  0.0541
  217MOL    H9526447   4.423   7.098   3.812  1.5907  0.6828  1.5676
  217MOL    H9626448   4.287   7.192   3.880 -0.2330  0.6863  0.2837
  217MOL    H9726449   4.293   7.343   3.688 -0.2354 -0.3265  0.8809
  217MOL    C9826450   4.210   7.149   3.614 -0.3858 -0.2243 -0.3672
  217MOL    C9926451   4.160   7.202   3.475 -0.5367  0.2336 -0.4446
  217MOL   F10026452   4.266   7.213   3.394 -0.3102  0.0973  0.0621
  217MOL   H10126453   4.253   7.050   3.598 -1.6319 -0.8567  0.1246
  217MOL   H10226454   4.134   7.143   3.692  0.8381  0.1715  0.8708
  217MOL   H10326455   4.100   7.293   3.484  0.6329  0.8480  1.2997
  217MOL   C10426456   4.064   7.106   3.407 -0.5029 -0.2818 -0.3273
  217MOL   C10526457   3.988   7.139   3.284  0.4401 -0.0624  0.5639
  217MOL   F10626458   3.919   7.249   3.323 -0.1713  0.0026 -0.0786
  217MOL   H10726459   4.124   7.019   3.384  1.4683  0.6201  1.1745
  217MOL   H10826460   3.996   7.080   3.488  0.5540  0.0798  0.6968
  217MOL   H10926461   3.921   7.055   3.264 -0.2247  0.1690  1.7109
  217MOL   C11026462   4.068   7.179   3.152  0.0193  0.1586 -0.1547
  217MOL   C11126463   4.156   7.063   3.089 -0.1732 -0.0297  0.9991
  217MOL   F11226464   4.079   6.983   3.011 -0.1705 -0.0230 -0.3890
  217MOL   H11326465   4.001   7.214   3.074  2.0028 -0.4152 -2.1832
  217MOL   H11426466   4.128   7.269   3.171  0.8526  0.4979 -3.9725
  217MOL   H11526467   4.201   6.999   3.165 -1.0917 -0.6492  1.0374
  217MOL   C11626468   4.253   7.127   2.986  0.1754  0.1235  0.0760
  217MOL   C11726469   4.363   7.217   3.044  0.2340 -0.7000  0.1380
  217MOL   F11826470   4.451   7.253   2.955 -0.1561 -0.5067  0.0012
  217MOL   H11926471   4.300   7.047   2.930 -1.3784  0.5456 -1.8621
  217MOL   H12026472   4.184   7.178   2.919 -0.4472 -2.6349 -1.4582
  217MOL   H12126473   4.424   7.173   3.124 -0.6432  0.1340  1.2685
  217MOL   H12226474   4.313   7.309   3.074 -1.3537 -1.1572 -1.0344
  218MOL     C126475   6.684   7.105   6.845  0.1070  0.0123 -0.2091
  218MOL     C226476   6.676   6.950   6.853  0.0575 -0.3707 -0.5535
  218MOL     F326477   6.632   6.926   6.973 -0.1739 -0.2901  0.1493
  218MOL     H426478   6.718   7.146   6.941  1.1883 -0.1227 -0.5289
  218MOL     H526479   6.590   7.152   6.819  0.9054  0.1537 -2.9333
  218MOL     H626480   6.774   6.903   6.863  0.1556 -0.1668 -0.5609
  218MOL     H726481   6.761   7.134   6.774  0.5111 -1.7223 -0.4972
  218MOL     C826482   6.587   6.883   6.743  0.1208  0.5136  0.1420
  218MOL     C926483   6.632   6.905   6.597 -0.0866  0.8261  0.1130
  218MOL    F1026484   6.764   6.886   6.601  0.2705  0.8325  0.7646
  218MOL    H1126485   6.590   6.774   6.748 -2.4922  0.4178  0.4294
  218MOL    H1226486   6.484   6.919   6.754  0.2021  0.3162  1.6870
  218MOL    H1326487   6.615   7.007   6.562  0.9717  0.8241 -0.4146
  218MOL    C1426488   6.580   6.811   6.491  0.0851 -0.2167  0.1430
  218MOL    C1526489   6.429   6.822   6.480  0.8922  0.1656  0.5205
  218MOL    F1626490   6.367   6.784   6.589  0.1537 -0.1352  0.6040
  218MOL    H1726491   6.626   6.844   6.397 -3.1656  1.9089 -0.7849
  218MOL    H1826492   6.612   6.708   6.509 -0.0215 -0.1788  0.5283
  218MOL    H1926493   6.390   6.750   6.408  0.4979  0.0986  0.8017
  218MOL    C2026494   6.380   6.963   6.441  0.4572 -0.3998  0.0412
  218MOL    C2126495   6.231   6.957   6.392  0.2165  0.0618  0.1426
  218MOL    F2226496   6.149   6.936   6.504  0.3561 -0.3059 -0.1128
  218MOL    H2326497   6.379   7.012   6.538  0.8834 -1.0463  0.3781
  218MOL    H2426498   6.445   7.008   6.365  0.4326 -2.5673 -1.3079
  218MOL    H2526499   6.233   6.864   6.336  5.2366  0.4190 -0.5212
  218MOL    C2626500   6.166   7.081   6.331  0.2680  0.4781  0.0357
  218MOL    C2726501   6.191   7.215   6.415 -0.4158  0.6110 -0.3700
  218MOL    F2826502   6.318   7.247   6.427 -1.1333  0.2013  0.2250
  218MOL    H2926503   6.205   7.102   6.231 -0.9824  0.3862 -0.4848
  218MOL    H3026504   6.061   7.057   6.319 -0.3222  2.2121  1.5678
  218MOL    H3126505   6.149   7.202   6.515  1.0670 -1.0449  0.0791
  218MOL    C3226506   6.128   7.334   6.345 -0.1456  0.3015  0.0407
  218MOL    C3326507   5.976   7.333   6.353  0.2753 -0.0940 -0.4976
  218MOL    F3426508   5.957   7.315   6.488 -0.0627 -0.0458  0.1866
  218MOL    H3526509   6.174   7.426   6.379  0.3408  0.1189 -0.1236
  218MOL    H3626510   6.152   7.326   6.239  1.3775 -3.2816  0.6152
  218MOL    H3726511   5.931   7.249   6.300 -0.3839  0.3437 -0.6337
  218MOL    C3826512   5.905   7.457   6.312  0.0997  0.2613 -0.9326
  218MOL    C3926513   5.944   7.515   6.178  0.5291  0.1858 -0.5452
  218MOL    F4026514   5.911   7.424   6.086 -0.1692  0.3388 -0.1705
  218MOL    H4126515   5.797   7.448   6.321  0.4374 -1.5686  2.3008
  218MOL    H4226516   5.929   7.529   6.390 -0.3034 -1.1590  0.5343
  218MOL    H4326517   6.051   7.540   6.182  0.3151  1.0027  0.3267
  218MOL    C4426518   5.869   7.646   6.149 -0.5114  0.2244  0.4350
  218MOL    C4526519   5.878   7.700   6.006 -0.0306 -0.1767  0.1287
  218MOL    F4626520   5.772   7.664   5.940  0.1920 -0.1864 -0.3531
  218MOL    H4726521   5.763   7.637   6.174 -0.4216 -1.7240  0.1699
  218MOL    H4826522   5.902   7.719   6.223  2.3939 -1.0380  0.4358
  218MOL    H4926523   5.967   7.653   5.964  1.1991 -0.8322  3.2706
  218MOL    C5026524   5.892   7.860   6.008  0.6877  0.7369  0.4654
  218MOL    C5126525   6.018   7.925   6.071  0.4056 -0.8841  0.0920
  218MOL    F5226526   6.118   7.901   5.988  0.6215  0.0280  0.6732
  218MOL    H5326527   5.870   7.897   5.908 -0.2628  1.9421  1.0989
  218MOL    H5426528   5.810   7.904   6.066  1.6240 -1.3474  3.4936
  218MOL    H5526529   6.048   7.876   6.164  0.1661  0.2486  0.7830
  218MOL    C5626530   6.001   0.074   6.097 -0.6348 -0.6389  0.2834
  218MOL    C5726531   5.890   0.121   6.192 -0.1425 -0.2229 -0.9110
  218MOL    F5826532   5.873   0.038   6.299  0.3671 -0.0077 -0.5629
  218MOL    H5926533   6.102   0.102   6.126 -0.9213  1.0727 -0.3032
  218MOL    H6026534   5.993   0.131   6.004  1.8972 -1.0847 -0.2345
  218MOL    H6126535   5.792   0.122   6.145 -0.9283 -2.5213  0.5732
  218MOL    C6226536   5.916   0.268   6.241  0.2327  0.0304  0.4255
  218MOL    C6326537   5.788   0.351   6.259 -1.0172  0.1248 -0.0114
  218MOL    F6426538   5.722   0.308   6.366 -0.0188  0.1419 -0.1407
  218MOL    H6526539   5.985   0.265   6.325 -1.7326  0.8904  2.0883
  218MOL    H6626540   5.961   0.315   6.154  2.2637 -1.3347  0.6943
  218MOL    H6726541   5.726   0.338   6.171 -0.4168 -0.6364 -0.3271
  218MOL    C6826542   5.819   0.505   6.267  0.2490 -0.4744 -0.2214
  218MOL    C6926543   5.710   0.607   6.245  0.2153  0.5499  0.3741
  218MOL    F7026544   5.761   0.724   6.254 -0.3659  0.7962  0.4259
  218MOL    H7126545   5.862   0.530   6.364 -0.9913 -0.5986  0.3746
  218MOL    H7226546   5.898   0.520   6.194 -1.0384 -1.2099 -1.8071
  218MOL    H7326547   5.627   0.593   6.315 -1.0935  1.7401 -0.9083
  218MOL    C7426548   5.660   0.601   6.098 -0.2406  1.4911  0.4134
  218MOL    C7526549   5.565   0.715   6.061 -0.3477 -0.7190 -0.2296
  218MOL    F7626550   5.546   0.721   5.930  0.2754 -0.1009 -0.1610
  218MOL    H7726551   5.744   0.612   6.029  0.6294 -1.6569  0.9403
  218MOL    H7826552   5.624   0.503   6.068 -1.7613  2.6601 -1.7651
  218MOL    H7926553   5.604   0.813   6.087 -1.7189 -0.3897  0.6273
  218MOL    C8026554   5.426   0.694   6.124  0.3418 -0.3567  0.7272
  218MOL    C8126555   5.334   0.813   6.141 -0.7912  0.2000  0.7857
  218MOL    F8226556   5.391   0.892   6.237 -0.2047  0.4600 -0.4490
  218MOL    H8326557   5.378   0.609   6.075 -2.2994  0.5809  1.6147
  218MOL    H8426558   5.451   0.661   6.225 -0.2588 -1.6669  0.4666
  218MOL    H8526559   5.237   0.786   6.182 -1.1160 -0.4677 -0.3982
  218MOL    C8626560   5.310   0.897   6.015  0.1888  0.0124 -0.4854
  218MOL    C8726561   5.222   0.822   5.916 -0.5669 -0.2092 -0.5080
  218MOL    F8826562   5.105   0.800   5.993  0.2157  0.0948  0.2231
  218MOL    H8926563   5.257   0.984   6.054 -2.0728 -1.4055 -0.3402
  218MOL    H9026564   5.404   0.936   5.973  0.0732 -0.3946 -1.1214
  218MOL    H9126565   5.250   0.719   5.894 -0.8952 -0.6013  0.8702
  218MOL    C9226566   5.188   0.912   5.795  0.0955 -0.2512  0.4524
  218MOL    C9326567   5.296   0.907   5.686 -0.1841  0.2116 -0.5161
  218MOL    F9426568   5.299   0.778   5.650 -0.1016 -0.0167 -0.1445
  218MOL    H9526569   5.091   0.887   5.752 -0.3648  0.7195  0.9120
  218MOL    H9626570   5.175   1.016   5.826 -1.8786 -0.4190  0.2293
  218MOL    H9726571   5.395   0.927   5.727  0.1065 -0.4551 -0.8830
  218MOL    C9826572   5.266   0.997   5.567  0.4895 -0.4158  0.2946
  218MOL    C9926573   5.357   0.982   5.446 -0.1804  0.1407 -0.3598
  218MOL   F10026574   5.324   0.875   5.369 -0.0714  0.1906 -0.0129
  218MOL   H10126575   5.159   1.004   5.547  0.4393  4.6243  1.5446
  218MOL   H10226576   5.282   1.099   5.603  1.1608 -0.9552  1.5486
  218MOL   H10326577   5.459   0.958   5.475 -0.7619 -1.4151  0.4843
  218MOL   C10426578   5.363   1.109   5.356 -0.1035  0.9344 -0.0765
  218MOL   C10526579   5.485   1.103   5.264 -0.4936 -0.2809 -0.1462
  218MOL   F10626580   5.585   1.043   5.319 -0.5847 -0.0565 -0.1166
  218MOL   H10726581   5.267   1.123   5.308 -0.2860 -1.2669 -0.4052
  218MOL   H10826582   5.378   1.191   5.427  2.8975  0.0817  0.3660
  218MOL   H10926583   5.516   1.204   5.237 -2.0864  0.3476  0.2943
  218MOL   C11026584   5.460   1.037   5.130  0.3566  1.0438  0.3372
  218MOL   C11126585   5.417   1.135   5.022 -0.3753 -0.6004 -0.1112
  218MOL   F11226586   5.516   1.228   4.996  1.1485  0.3051  0.7405
  218MOL   H11326587   5.550   0.988   5.095 -1.4018 -0.4559 -2.2429
  218MOL   H11426588   5.390   0.954   5.144 -0.6062  1.1395 -3.3906
  218MOL   H11526589   5.337   1.196   5.064  0.9052  0.8659  0.2442
  218MOL   C11626590   5.386   1.069   4.887  0.1789 -1.3696 -0.2144
  218MOL   C11726591   5.329   1.179   4.788 -0.2295 -0.0017 -0.0279
  218MOL   F11826592   5.297   1.118   4.675 -0.0700  0.2576 -0.0788
  218MOL   H11926593   5.491   1.049   4.864  0.9499  2.4258 -0.3552
  218MOL   H12026594   5.315   0.989   4.908 -0.9258 -0.6747 -1.2187
  218MOL   H12126595   5.408   1.247   4.755 -1.2692  1.3726  0.2809
  218MOL   H12226596   5.246   1.242   4.821 -1.6849  0.0222 -3.5709
  219MOL     C126597   7.425   5.712   1.794  0.0867  1.0137 -0.3262
  219MOL     C226598   7.561   5.696   1.720 -0.8624  0.1441  0.1847
  219MOL     F326599   7.646   5.792   1.769 -0.3047 -0.1132  0.0838
  219MOL     H426600   7.425   5.696   1.902  1.2332 -0.1964 -0.4881
  219MOL     H526601   7.353   5.644   1.746 -1.7271 -0.1435  3.7899
  219MOL     H626602   7.546   5.720   1.615 -1.8507  0.6984  0.4448
  219MOL     H726603   7.379   5.809   1.776 -0.5664  1.1370  1.8493
  219MOL     C826604   7.632   5.559   1.742 -0.2431  0.5447  0.4927
  219MOL     C926605   7.559   5.447   1.671  0.2896  0.3668  0.4230
  219MOL    F1026606   7.576   5.461   1.539  0.2952 -0.0693 -0.5189
  219MOL    H1126607   7.737   5.557   1.712 -0.3432  2.2122 -0.0508
  219MOL    H1226608   7.640   5.545   1.850  4.1979  0.5981  0.2836
  219MOL    H1326609   7.452   5.459   1.688  0.1720  1.3225 -0.9298
  219MOL    C1426610   7.609   5.300   1.700  0.1169 -0.1400  0.9316
  219MOL    C1526611   7.547   5.243   1.828 -0.3499  0.4016  0.2749
  219MOL    F1626612   7.412   5.242   1.814 -0.1810 -0.0219 -0.1897
  219MOL    H1726613   7.580   5.230   1.621 -0.2603  1.2152 -0.1621
  219MOL    H1826614   7.717   5.292   1.713  0.4105 -0.6283 -1.6476
  219MOL    H1926615   7.564   5.296   1.922 -2.6133 -0.4953  1.2312
  219MOL    C2026616   7.609   5.106   1.857 -0.4653 -0.3066  0.3997
  219MOL    C2126617   7.545   5.036   1.983 -0.1569 -0.5765  0.3751
  219MOL    F2226618   7.556   5.126   2.087 -0.1533 -0.2478  0.1354
  219MOL    H2326619   7.593   5.035   1.776  1.8559 -0.3166 -0.0824
  219MOL    H2426620   7.716   5.113   1.879 -0.5333 -1.2625  1.0720
  219MOL    H2526621   7.614   4.960   2.019  0.9828  0.2520 -0.0389
  219MOL    C2626622   7.397   4.996   1.981 -0.2910 -0.5942  0.5507
  219MOL    C2726623   7.359   4.899   1.870 -0.0720  0.0917  0.7846
  219MOL    F2826624   7.442   4.796   1.883  0.0271 -0.1148 -0.2037
  219MOL    H2926625   7.381   4.951   2.079 -2.1330 -1.7501 -0.2568
  219MOL    H3026626   7.332   5.082   1.965  1.6303  0.4693 -1.9323
  219MOL    H3126627   7.389   4.944   1.775 -1.0266 -2.5365 -0.8080
  219MOL    C3226628   7.208   4.845   1.882  0.7736 -0.3440  0.1929
  219MOL    C3326629   7.096   4.912   1.800  0.3712  0.3853  0.6615
  219MOL    F3426630   7.114   4.876   1.676 -0.3022 -0.1113  0.1751
  219MOL    H3526631   7.223   4.740   1.855 -0.2709 -0.3204 -0.4657
  219MOL    H3626632   7.181   4.832   1.987  1.4036  0.9153  0.5213
  219MOL    H3726633   7.114   5.020   1.797 -0.7993  0.5944  0.9479
  219MOL    C3826634   6.955   4.866   1.846 -0.9261 -0.8353 -0.2589
  219MOL    C3926635   6.842   4.942   1.785  0.2884  0.5524  0.6615
  219MOL    F4026636   6.735   4.873   1.817  0.3040  0.2909 -0.2746
  219MOL    H4126637   6.948   4.759   1.825 -0.0976 -0.6329 -1.6385
  219MOL    H4226638   6.940   4.868   1.954 -0.0128 -1.4588 -0.1101
  219MOL    H4326639   6.848   4.944   1.676  1.5524 -2.2667  0.6607
  219MOL    C4426640   6.812   5.095   1.827  0.1002  0.1712 -0.0288
  219MOL    C4526641   6.763   5.199   1.724 -0.2292  0.3388  0.3559
  219MOL    F4626642   6.643   5.160   1.691  0.2965  0.7132  0.3315
  219MOL    H4726643   6.747   5.092   1.915 -1.4924 -1.6241 -1.2204
  219MOL    H4826644   6.903   5.139   1.866 -0.3827 -0.9612  2.4791
  219MOL    H4926645   6.818   5.188   1.630 -2.5679  1.0632 -1.1326
  219MOL    C5026646   6.767   5.350   1.758 -0.1172  0.3049 -0.0039
  219MOL    C5126647   6.909   5.427   1.758 -0.7357 -0.1545  1.1933
  219MOL    F5226648   6.947   5.437   1.632  0.0360  0.2321  0.1890
  219MOL    H5326649   6.703   5.398   1.683 -1.1700 -1.2330 -0.1198
  219MOL    H5426650   6.717   5.358   1.855 -1.1573  0.5442 -0.5502
  219MOL    H5526651   6.985   5.366   1.808  0.1251 -0.2709 -0.2151
  219MOL    C5626652   6.916   5.569   1.819 -0.3548 -0.4937  0.8875
  219MOL    C5726653   6.897   5.579   1.965  0.3185 -0.3237  0.6651
  219MOL    F5826654   6.981   5.494   2.025 -0.0268  0.0891  0.1132
  219MOL    H5926655   7.022   5.588   1.802 -0.2131 -2.9497 -1.3455
  219MOL    H6026656   6.861   5.645   1.763  1.6182  2.5747  2.9060
  219MOL    H6126657   6.793   5.552   1.986 -0.1269  1.0926  0.3389
  219MOL    C6226658   6.923   5.721   2.023  0.5377 -0.1656  0.2384
  219MOL    C6326659   6.796   5.804   1.993 -0.0551  0.4587 -0.5024
  219MOL    F6426660   6.695   5.766   2.070  0.4442  0.0649  0.1156
  219MOL    H6526661   6.932   5.716   2.131 -2.0339 -1.4620  0.4429
  219MOL    H6626662   7.013   5.768   1.983  0.7385  1.5102  2.5936
  219MOL    H6726663   6.757   5.800   1.892 -1.3238 -0.4488  0.0138
  219MOL    C6826664   6.821   5.957   2.015 -0.3336 -0.3047  0.4091
  219MOL    C6926665   6.701   6.044   1.970  0.2733  0.0181 -0.2764
  219MOL    F7026666   6.655   6.020   1.840  0.2484  0.5920  0.1449
  219MOL    H7126667   6.844   5.978   2.119  1.4029 -1.1597  0.2161
  219MOL    H7226668   6.906   6.002   1.962  0.4873 -0.8719  1.2364
  219MOL    H7326669   6.746   6.143   1.966  0.4514  0.0679  2.2462
  219MOL    C7426670   6.583   6.031   2.065 -0.3103  0.2817  0.1782
  219MOL    C7526671   6.456   6.125   2.050 -0.3188  0.0399  0.4464
  219MOL    F7626672   6.503   6.253   2.069  0.3480  0.6580 -0.1631
  219MOL    H7726673   6.552   5.928   2.055  0.8079 -0.3490  2.8439
  219MOL    H7826674   6.619   6.031   2.168  0.6018  0.7236 -0.1388
  219MOL    H7926675   6.380   6.107   2.125 -1.6311 -0.5119 -0.9808
  219MOL    C8026676   6.384   6.122   1.907  0.4685 -0.4784 -0.3265
  219MOL    C8126677   6.281   6.011   1.895 -0.3455 -0.0289  0.1700
  219MOL    F8226678   6.191   6.024   1.991  0.1684  0.6033 -0.0626
  219MOL    H8326679   6.331   6.216   1.899 -1.2668 -0.9816  3.9240
  219MOL    H8426680   6.460   6.126   1.828  0.8432  1.4342  0.1256
  219MOL    H8526681   6.324   5.915   1.921 -1.2327 -0.1791  1.1168
  219MOL    C8626682   6.211   6.026   1.757  0.4081  0.0015 -0.8306
  219MOL    C8726683   6.153   5.888   1.707  0.2062 -0.5649 -0.4598
  219MOL    F8826684   6.250   5.798   1.714 -0.0441  0.2108 -0.1023
  219MOL    H8926685   6.140   6.108   1.752  0.6783  0.2316 -0.8710
  219MOL    H9026686   6.285   6.049   1.681 -1.1470 -0.9890 -2.7145
  219MOL    H9126687   6.145   5.885   1.598 -0.6972  1.1349 -0.4540
  219MOL    C9226688   6.030   5.834   1.785  0.6144 -0.5826  0.1903
  219MOL    C9326689   5.972   5.693   1.754  0.2636 -0.2566  0.1125
  219MOL    F9426690   5.852   5.684   1.815  0.1923 -0.0590 -0.3084
  219MOL    H9526691   6.033   5.843   1.894 -1.4673 -1.2346  0.3337
  219MOL    H9626692   5.940   5.894   1.775  0.1347 -1.2195  0.6161
  219MOL    H9726693   6.030   5.617   1.806  2.3950  1.6776  0.6104
  219MOL    C9826694   5.951   5.666   1.608 -0.2570 -0.0905 -0.2935
  219MOL    C9926695   5.873   5.765   1.518  0.2064  0.4413 -0.2397
  219MOL   F10026696   5.932   5.879   1.510  0.2711  0.5715 -0.1897
  219MOL   H10126697   6.049   5.646   1.565  0.0676 -1.5983  1.0921
  219MOL   H10226698   5.902   5.569   1.615  0.2919 -0.2810  1.1606
  219MOL   H10326699   5.780   5.769   1.574  0.3770 -3.1294  0.4631
  219MOL   C10426700   5.829   5.710   1.381 -0.0918  0.4811 -0.0658
  219MOL   C10526701   5.749   5.820   1.292 -1.0443  0.1351  0.4442
  219MOL   F10626702   5.708   5.744   1.184 -0.2371 -0.0746  0.0617
  219MOL   H10726703   5.916   5.673   1.326 -0.2640  2.0715 -1.4374
  219MOL   H10826704   5.766   5.622   1.384 -2.5566  2.2329  2.0013
  219MOL   H10926705   5.818   5.899   1.263  0.4033 -1.2537  0.0246
  219MOL   C11026706   5.629   5.862   1.368  0.0185  0.1441  1.1553
  219MOL   C11126707   5.536   5.955   1.290  0.6009 -0.2258 -0.6621
  219MOL   F11226708   5.608   6.048   1.242  0.1439  0.0947  0.6638
  219MOL   H11326709   5.569   5.785   1.417  0.4768 -0.4358  0.8227
  219MOL   H11426710   5.665   5.916   1.456 -0.9195  4.2864 -0.9023
  219MOL   H11526711   5.471   5.999   1.366  2.2711 -0.2686  0.8392
  219MOL   C11626712   5.449   5.890   1.183  0.8189  0.4738 -0.0495
  219MOL   C11726713   5.370   5.770   1.237  0.2779 -0.2490 -0.2288
  219MOL   F11826714   5.282   5.813   1.323 -0.3005 -0.0700 -0.4973
  219MOL   H11926715   5.375   5.963   1.150  0.6498 -0.5851 -2.1035
  219MOL   H12026716   5.516   5.869   1.099  0.0280 -0.2226 -0.5119
  219MOL   H12126717   5.432   5.692   1.282 -0.1957 -1.7230 -2.0622
  219MOL   H12226718   5.306   5.724   1.162 -1.2436 -1.4085  1.7385
  220MOL     C126719   2.380   2.801   7.384 -0.6142 -0.5534  1.0270
  220MOL     C226720   2.282   2.800   7.496 -0.1689  0.5898 -0.4173
  220MOL     F326721   2.326   2.839   7.617  0.3882 -0.1160 -0.2850
  220MOL     H426722   2.333   2.799   7.286 -0.6338  1.3121  0.9832
  220MOL     H526723   2.460   2.726   7.386 -0.4947 -0.5559 -1.6336
  220MOL     H626724   2.250   2.696   7.506  0.7603  0.2020 -1.3439
  220MOL     H726725   2.433   2.896   7.379 -1.1699 -0.3141 -0.6238
  220MOL     C826726   2.172   2.903   7.473 -0.2686  0.1359 -1.1132
  220MOL     C926727   2.076   2.866   7.356  0.0206 -0.6581  0.0307
  220MOL    F1026728   1.987   2.787   7.416  0.1508 -0.1258 -0.7502
  220MOL    H1126729   2.110   2.915   7.562  0.8176 -0.3060 -0.2843
  220MOL    H1226730   2.218   3.001   7.464  3.4554 -1.3764  0.3538
  220MOL    H1326731   2.111   2.807   7.271  2.8924 -0.3145  0.9343
  220MOL    C1426732   1.984   2.983   7.320 -0.8073  0.4698  0.0030
  220MOL    C1526733   2.063   3.092   7.242  0.0199  0.1123  0.1511
  220MOL    F1626734   2.099   3.033   7.129  0.4975 -0.0804  0.2493
  220MOL    H1726735   1.895   2.952   7.266 -0.8091  0.6378 -0.0903
  220MOL    H1826736   1.946   3.021   7.415  0.7110  0.5667  0.5919
  220MOL    H1926737   2.154   3.121   7.294 -0.0737  0.9750 -0.1600
  220MOL    C2026738   1.991   3.221   7.212  0.0439 -0.2406 -0.8661
  220MOL    C2126739   2.074   3.345   7.177  1.1338 -0.3781  0.1565
  220MOL    F2226740   2.173   3.301   7.100  0.4998  0.4458  0.6536
  220MOL    H2326741   1.917   3.206   7.133 -0.6218  0.9639 -0.4858
  220MOL    H2426742   1.923   3.237   7.296  0.8064  1.8062 -0.6091
  220MOL    H2526743   2.104   3.382   7.276 -1.6780 -2.2674  1.7798
  220MOL    C2626744   2.004   3.456   7.098  0.8884 -0.3728  0.7292
  220MOL    C2726745   2.087   3.582   7.067  0.6392 -0.1376 -0.4146
  220MOL    F2826746   2.125   3.631   7.181 -0.1678  0.3383 -0.5375
  220MOL    H2926747   1.975   3.409   7.004  1.1153  1.3841 -0.2361
  220MOL    H3026748   1.918   3.489   7.157 -1.3638 -0.8384 -2.1707
  220MOL    H3126749   2.028   3.663   7.023 -0.2480 -0.5325  0.0484
  220MOL    C3226750   2.217   3.566   6.985  0.8914 -0.8462  0.9627
  220MOL    C3326751   2.203   3.504   6.840 -1.0939  0.5568 -0.2535
  220MOL    F3426752   2.133   3.597   6.762  0.7960 -0.2700 -0.3280
  220MOL    H3526753   2.269   3.661   6.976 -1.5824  0.6596  2.0864
  220MOL    H3626754   2.280   3.504   7.049  1.2545  1.5052  2.9406
  220MOL    H3726755   2.142   3.414   6.848 -3.3585  2.0319 -0.7660
  220MOL    C3826756   2.336   3.463   6.774  0.0606  0.5135 -0.8176
  220MOL    C3926757   2.323   3.390   6.641  0.9206 -0.7219 -0.1489
  220MOL    F4026758   2.445   3.368   6.586 -0.1055 -0.2476  0.3058
  220MOL    H4126759   2.406   3.546   6.759 -0.4590  1.4233  1.5594
  220MOL    H4226760   2.382   3.398   6.848  0.1381 -0.1616 -1.4583
  220MOL    H4326761   2.274   3.461   6.573 -0.4745 -2.8606 -1.4313
  220MOL    C4426762   2.240   3.267   6.646 -0.0732 -0.0367  0.5518
  220MOL    C4526763   2.295   3.148   6.723  0.7576  0.9185 -0.0984
  220MOL    F4626764   2.283   3.181   6.851  0.7585  0.2545  0.3112
  220MOL    H4726765   2.140   3.279   6.688  0.2218 -0.2666  1.3224
  220MOL    H4826766   2.210   3.227   6.549  0.0905 -1.0575  0.9120
  220MOL    H4926767   2.399   3.128   6.698  1.3696  2.8688  0.7940
  220MOL    C5026768   2.206   3.017   6.700  0.1111 -0.2275  0.0833
  220MOL    C5126769   2.059   3.025   6.758 -0.7554 -0.5051  0.0165
  220MOL    F5226770   1.993   3.107   6.679  0.1939 -0.1257 -0.7633
  220MOL    H5326771   2.203   2.990   6.594  1.9147 -1.7483  0.3980
  220MOL    H5426772   2.257   2.932   6.745 -0.8164 -1.6327 -1.4220
  220MOL    H5526773   2.048   3.067   6.858 -2.5738  1.2959 -0.9227
  220MOL    C5626774   1.994   2.885   6.744 -0.1034 -0.0095  0.4466
  220MOL    C5726775   1.854   2.883   6.806  0.7055  0.2370  0.2259
  220MOL    F5826776   1.765   2.933   6.716 -0.1767 -0.1427 -0.8250
  220MOL    H5926777   1.982   2.881   6.636 -0.1646 -0.1086  0.4566
  220MOL    H6026778   2.055   2.808   6.791  0.2732  1.7437  2.9317
  220MOL    H6126779   1.856   2.957   6.887  2.6311  1.1706 -0.6490
  220MOL    C6226780   1.809   2.743   6.852  0.3520  0.4284 -0.4033
  220MOL    C6326781   1.885   2.709   6.988 -0.0114 -0.2874  0.3256
  220MOL    F6426782   1.871   2.798   7.089 -0.5365  0.2070 -0.3286
  220MOL    H6526783   1.701   2.739   6.862  0.4452  0.3823  0.7171
  220MOL    H6626784   1.832   2.667   6.777 -1.4056 -0.2582 -0.2674
  220MOL    H6726785   1.993   2.717   6.981 -0.2084  3.3752  0.4428
  220MOL    C6826786   1.860   2.564   7.048  0.2183 -0.1640 -0.1126
  220MOL    C6926787   1.948   2.529   7.169  0.4095 -0.3080  0.6343
  220MOL    F7026788   1.895   2.422   7.210 -0.6089 -0.4913 -1.1286
  220MOL    H7126789   1.758   2.572   7.084  0.2727  1.8293 -0.3385
  220MOL    H7226790   1.858   2.491   6.966  2.5330  0.5241 -0.8201
  220MOL    H7326791   1.941   2.603   7.249 -1.2575  1.9135 -1.4866
  220MOL    C7426792   2.108   2.516   7.148  1.0440 -0.1087  0.1818
  220MOL    C7526793   2.196   2.472   7.261  0.9113 -0.4794  0.1340
  220MOL    F7626794   2.143   2.373   7.331  0.3878  0.5003 -0.4202
  220MOL    H7726795   2.114   2.441   7.069 -1.2802  0.1782 -0.2882
  220MOL    H7826796   2.142   2.618   7.131 -0.1703  0.3556  0.4611
  220MOL    H7926797   2.205   2.553   7.333  1.9040  1.8533 -2.5210
  220MOL    C8026798   2.342   2.440   7.221 -0.6133  0.8505 -0.4787
  220MOL    C8126799   2.432   2.417   7.343 -0.3171  0.1432 -0.1087
  220MOL    F8226800   2.399   2.296   7.391 -0.2638  0.8042  0.5572
  220MOL    H8326801   2.337   2.352   7.156 -0.7367  0.6749 -0.2309
  220MOL    H8426802   2.382   2.522   7.161  0.3793  0.0561 -0.9278
  220MOL    H8526803   2.407   2.485   7.425  0.2480  0.7542 -0.4455
  220MOL    C8626804   2.576   2.412   7.311  0.2424 -0.1807 -1.0228
  220MOL    C8726805   2.676   2.406   7.433  0.2321  0.0215  0.5759
  220MOL    F8826806   2.659   2.283   7.474  0.4142  0.8091 -0.0067
  220MOL    H8926807   2.598   2.333   7.239 -0.0770 -1.1340 -0.0744
  220MOL    H9026808   2.603   2.500   7.252  1.9375 -0.2872 -0.4253
  220MOL    H9126809   2.650   2.480   7.509 -0.0834 -1.2643  1.7168
  220MOL    C9226810   2.828   2.427   7.381  0.3635  0.7690 -0.1543
  220MOL    C9326811   2.946   2.413   7.476 -0.3833 -0.5294 -0.4991
  220MOL    F9426812   2.973   2.283   7.483  0.0856  1.0236 -0.2064
  220MOL    H9526813   2.832   2.366   7.292 -1.5426  0.4791 -0.0820
  220MOL    H9626814   2.835   2.526   7.336 -2.1144  1.4127  0.7497
  220MOL    H9726815   2.918   2.445   7.576  0.4974 -1.0493 -0.0838
  220MOL    C9826816   3.069   2.478   7.418  0.7497 -0.0253 -0.1830
  220MOL    C9926817   3.190   2.444   7.511 -0.3861 -0.2675 -0.3233
  220MOL   F10026818   3.215   2.313   7.525  0.3261 -0.3967 -0.1324
  220MOL   H10126819   3.083   2.449   7.314 -1.6267  1.1563 -0.8773
  220MOL   H10226820   3.057   2.587   7.414 -3.0153 -0.3237  0.8458
  220MOL   H10326821   3.172   2.485   7.610 -0.6849 -0.7696 -0.1677
  220MOL   C10426822   3.320   2.501   7.447 -0.0096  0.7956  0.3659
  220MOL   C10526823   3.341   2.648   7.486  0.4362  0.0603 -0.2607
  220MOL   F10626824   3.358   2.646   7.618 -0.4328  0.0376 -0.4232
  220MOL   H10726825   3.405   2.450   7.493 -2.0518 -3.0546  0.0967
  220MOL   H10826826   3.314   2.485   7.340  2.1041 -4.8296  0.9376
  220MOL   H10926827   3.261   2.720   7.469 -0.3197 -0.2372  1.9501
  220MOL   C11026828   3.474   2.720   7.440  0.1291  0.1548 -0.0031
  220MOL   C11126829   3.471   2.742   7.292  0.0777  0.6472 -0.2217
  220MOL   F11226830   3.358   2.804   7.266 -0.0010 -0.1481  0.2174
  220MOL   H11326831   3.477   2.815   7.494  2.2620 -0.5764  1.2323
  220MOL   H11426832   3.563   2.664   7.468  1.2358  1.6896 -0.3804
  220MOL   H11526833   3.468   2.655   7.226 -2.8945 -0.2134  0.9643
  220MOL   C11626834   3.583   2.831   7.239  0.3675 -0.0972 -0.5808
  220MOL   C11726835   3.711   2.757   7.230 -0.6211 -0.3775  0.1061
  220MOL   F11826836   3.695   2.644   7.156 -0.0762 -0.0775  0.3879
  220MOL   H11926837   3.557   2.870   7.140  0.6197  2.6141  0.3915
  220MOL   H12026838   3.595   2.911   7.312 -0.4329  0.4824 -1.0685
  220MOL   H12126839   3.742   2.734   7.332 -1.7866  1.4399  0.8874
  220MOL   H12226840   3.790   2.810   7.177 -1.5560 -1.3686 -2.4115
  221MOL     C126841   6.761   1.247   6.134  1.1021 -0.7610  0.4506
  221MOL     C226842   6.681   1.375   6.154 -0.3317 -0.0772 -0.9591
  221MOL     F326843   6.611   1.379   6.272 -0.0737  0.1120  0.1773
  221MOL     H426844   6.806   1.245   6.035 -2.2415 -0.5755 -1.1502
  221MOL     H526845   6.695   1.160   6.133 -1.3925  1.0960 -0.4824
  221MOL     H626846   6.600   1.379   6.081  0.0822  1.9568 -1.3234
  221MOL     H726847   6.837   1.231   6.210 -0.8944  0.0427  2.6613
  221MOL     C826848   6.761   1.504   6.145  0.1670 -0.2226  0.3013
  221MOL     C926849   6.686   1.633   6.094 -0.3005  0.4418  0.0195
  221MOL    F1026850   6.642   1.614   5.974  0.0361  0.4660  0.0787
  221MOL    H1126851   6.813   1.529   6.238  0.0257 -0.5815  0.4779
  221MOL    H1226852   6.838   1.473   6.074  0.0067  1.2398 -0.5184
  221MOL    H1326853   6.755   1.717   6.085  2.3611 -1.6651  0.1870
  221MOL    C1426854   6.569   1.677   6.170 -0.7314  0.1604 -0.8847
  221MOL    C1526855   6.600   1.753   6.297 -0.3557  0.3077  0.5490
  221MOL    F1626856   6.669   1.861   6.269  0.1515 -0.4461 -0.3254
  221MOL    H1726857   6.515   1.730   6.092 -0.5814 -0.5295 -1.4638
  221MOL    H1826858   6.515   1.585   6.191  0.2756 -1.1714 -3.8998
  221MOL    H1926859   6.675   1.690   6.346 -2.3910 -1.6745  1.1695
  221MOL    C2026860   6.476   1.785   6.392  0.2247 -0.1608  0.2520
  221MOL    C2126861   6.408   1.662   6.452  0.2285 -0.5144 -0.3141
  221MOL    F2226862   6.498   1.613   6.542  0.1174 -0.1761  0.0493
  221MOL    H2326863   6.522   1.849   6.468  3.3986  0.6289 -2.2634
  221MOL    H2426864   6.408   1.851   6.338  2.7697  2.7607  0.5085
  221MOL    H2526865   6.392   1.593   6.370 -1.5829 -1.0963  0.5044
  221MOL    C2626866   6.269   1.689   6.516 -0.0868 -0.1367  0.3277
  221MOL    C2726867   6.214   1.570   6.598 -0.0665 -0.2984  0.4466
  221MOL    F2826868   6.288   1.560   6.710  0.4619 -0.2674  0.1015
  221MOL    H2926869   6.276   1.765   6.593  1.7683 -0.2447  0.2818
  221MOL    H3026870   6.191   1.707   6.442  1.0469 -3.6408 -1.8565
  221MOL    H3126871   6.231   1.477   6.543 -0.2726 -1.5885  2.4972
  221MOL    C3226872   6.062   1.573   6.630 -0.1063  0.6802  0.5607
  221MOL    C3326873   5.962   1.569   6.517 -1.0196 -0.0833  0.9847
  221MOL    F3426874   5.981   1.455   6.458 -0.4163 -0.3314 -0.6527
  221MOL    H3526875   6.033   1.485   6.686  0.9052  0.5860  0.9525
  221MOL    H3626876   6.043   1.655   6.700 -1.4196  0.1570  0.8174
  221MOL    H3726877   5.983   1.653   6.450  0.7049  1.4537  3.3630
  221MOL    C3826878   5.815   1.574   6.570 -0.6704  0.4787  0.0281
  221MOL    C3926879   5.704   1.554   6.465  0.2081 -0.1158  0.4214
  221MOL    F4026880   5.592   1.528   6.530 -0.2149 -0.2095  0.2662
  221MOL    H4126881   5.799   1.514   6.659  2.4603  0.2132  0.4963
  221MOL    H4226882   5.793   1.672   6.611  0.4407 -0.1307  2.1778
  221MOL    H4326883   5.720   1.474   6.393 -1.6028  1.4778 -1.8658
  221MOL    C4426884   5.688   1.684   6.377  0.2328  0.3205 -0.8246
  221MOL    C4526885   5.586   1.688   6.259  0.1876  0.0847 -0.1997
  221MOL    F4626886   5.624   1.586   6.180 -0.3716  0.1727  0.3478
  221MOL    H4726887   5.669   1.752   6.460  1.2933  1.4780 -1.5076
  221MOL    H4826888   5.790   1.698   6.339  0.2230  1.9347 -0.3005
  221MOL    H4926889   5.603   1.784   6.209 -1.1496  1.7139  2.3607
  221MOL    C5026890   5.442   1.659   6.290 -0.2072  0.4856 -0.1326
  221MOL    C5126891   5.381   1.772   6.376 -0.1636  0.0033 -0.8173
  221MOL    F5226892   5.374   1.882   6.303  0.2131 -0.0948  0.3507
  221MOL    H5326893   5.375   1.650   6.204 -1.5089 -1.1894  1.0290
  221MOL    H5426894   5.435   1.568   6.350  2.5264  0.0204 -0.4221
  221MOL    H5526895   5.450   1.792   6.458 -1.1737  1.8907 -0.4017
  221MOL    C5626896   5.240   1.741   6.438  0.1375 -0.0416  0.2469
  221MOL    C5726897   5.238   1.665   6.573  0.0368  0.3048  0.0653
  221MOL    F5826898   5.311   1.742   6.655 -0.2245 -0.5939 -0.1016
  221MOL    H5926899   5.183   1.833   6.450 -0.4926 -0.4973  0.8269
  221MOL    H6026900   5.188   1.679   6.364 -0.4226 -0.7768  1.2380
  221MOL    H6126901   5.298   1.576   6.555 -2.6017 -1.7317  1.0227
  221MOL    C6226902   5.108   1.635   6.633 -0.2661  0.3322  0.5174
  221MOL    C6326903   5.023   1.757   6.683  0.0854 -0.4035  1.0421
  221MOL    F6426904   4.983   1.841   6.589  0.0946 -0.3650  1.0213
  221MOL    H6526905   5.041   1.576   6.569 -0.7593  0.3231  1.0429
  221MOL    H6626906   5.126   1.557   6.706 -2.7338 -0.8912 -0.1215
  221MOL    H6726907   5.077   1.808   6.763  0.5454 -1.9158  1.6965
  221MOL    C6826908   4.895   1.703   6.761  0.1403  0.1766  0.2383
  221MOL    C6926909   4.774   1.655   6.671 -0.7231  0.7553 -0.7389
  221MOL    F7026910   4.802   1.542   6.608  0.2242 -0.1429  0.3057
  221MOL    H7126911   4.914   1.625   6.834  1.3516  2.2372  2.1927
  221MOL    H7226912   4.854   1.786   6.819 -0.2539 -0.2127  0.5217
  221MOL    H7326913   4.754   1.730   6.595 -0.0259  2.0899  0.3728
  221MOL    C7426914   4.648   1.643   6.753 -0.8314 -0.4714 -0.5582
  221MOL    C7526915   4.518   1.627   6.682 -0.2536  0.1440  0.1857
  221MOL    F7626916   4.424   1.605   6.777  0.3667 -0.0052 -0.2803
  221MOL    H7726917   4.672   1.556   6.814  0.5191 -0.0143 -0.4154
  221MOL    H7826918   4.637   1.720   6.830  2.1091 -0.5879  0.0422
  221MOL    H7926919   4.530   1.542   6.615 -1.5149  0.0569  0.0665
  221MOL    C8026920   4.475   1.755   6.601  0.0200 -0.0594  0.0664
  221MOL    C8126921   4.489   1.883   6.688 -0.2695  0.8418 -0.1211
  221MOL    F8226922   4.619   1.908   6.709 -0.1875 -0.2609  0.2261
  221MOL    H8326923   4.543   1.761   6.516  0.2461 -1.6368  0.1280
  221MOL    H8426924   4.373   1.747   6.564  0.5032  0.9498 -1.5521
  221MOL    H8526925   4.447   1.870   6.788  0.0749 -0.5931 -0.1665
  221MOL    C8626926   4.418   2.008   6.625 -0.3807 -0.1084  0.2143
  221MOL    C8726927   4.478   2.040   6.483  0.9041  0.3905 -0.3135
  221MOL    F8826928   4.462   1.935   6.397 -0.0355 -0.2582  0.5787
  221MOL    H8926929   4.309   2.001   6.617 -0.6746  3.1106  0.5666
  221MOL    H9026930   4.439   2.092   6.691 -2.4775 -0.2468  1.0817
  221MOL    H9126931   4.585   2.056   6.471  0.8470  1.2055  0.1665
  221MOL    C9226932   4.404   2.173   6.434  0.2202  1.1597 -0.1045
  221MOL    C9326933   4.454   2.248   6.302 -0.1221  0.0223  0.7498
  221MOL    F9426934   4.424   2.169   6.206  0.1321  0.0182 -0.4385
  221MOL    H9526935   4.302   2.138   6.419  0.3343  1.1508 -0.8800
  221MOL    H9626936   4.421   2.247   6.513  1.3703 -0.0084  0.7665
  221MOL    H9726937   4.563   2.256   6.297 -0.2843  1.8238 -0.0278
  221MOL    C9826938   4.390   2.377   6.281  0.2681  0.8205  0.4509
  221MOL    C9926939   4.441   2.492   6.370 -0.2036  0.0236  0.2901
  221MOL   F10026940   4.567   2.524   6.339  0.2851  0.1378 -0.3297
  221MOL   H10126941   4.418   2.405   6.179 -1.7499  2.8297  0.4191
  221MOL   H10226942   4.281   2.373   6.277  0.3568 -1.5977 -0.9263
  221MOL   H10326943   4.439   2.463   6.475 -1.0597 -0.2822  0.1873
  221MOL   C10426944   4.364   2.617   6.345  0.2870  0.2290 -0.2506
  221MOL   C10526945   4.407   2.736   6.423 -0.3226  0.1645 -0.6855
  221MOL   F10626946   4.351   2.849   6.367  0.5006  0.1691 -0.4061
  221MOL   H10726947   4.350   2.639   6.239 -2.2555  0.3287  0.0755
  221MOL   H10826948   4.260   2.597   6.371  0.4469  1.1633  1.1702
  221MOL   H10926949   4.515   2.746   6.422 -0.4218  2.5075  2.2314
  221MOL   C11026950   4.369   2.730   6.570  0.4990  0.0172  0.5673
  221MOL   C11126951   4.451   2.841   6.646 -0.0514  0.4194 -0.6359
  221MOL   F11226952   4.402   2.960   6.619  0.4610 -0.1982 -0.1133
  221MOL   H11326953   4.263   2.744   6.590  0.7569  1.2564  1.1273
  221MOL   H11426954   4.397   2.633   6.612 -0.5918 -1.0404 -1.0860
  221MOL   H11526955   4.556   2.842   6.616  0.2042  1.5278  0.2829
  221MOL   C11626956   4.433   2.831   6.801  0.3993  0.5252  0.5440
  221MOL   C11726957   4.519   2.938   6.877  0.6219  0.5945 -1.0001
  221MOL   F11826958   4.485   2.955   7.004  0.2766  0.2446  0.0340
  221MOL   H11926959   4.330   2.843   6.832  0.5856  2.8307  0.3088
  221MOL   H12026960   4.466   2.729   6.826 -1.1762 -0.2304 -0.4164
  221MOL   H12126961   4.506   3.039   6.836 -2.5518 -0.0853 -1.7787
  221MOL   H12226962   4.627   2.923   6.869  1.1973  3.6547  0.2196
  222MOL     C126963   5.317   0.224   0.717 -0.4926 -0.0845 -0.2890
  222MOL     C226964   5.171   0.164   0.716 -0.2158 -0.1072 -0.9237
  222MOL     F326965   5.138   0.173   0.586 -0.1402 -0.0195  0.0258
  222MOL     H426966   5.353   0.216   0.820 -0.3520 -0.9230 -0.4016
  222MOL     H526967   5.319   0.332   0.704 -0.6612 -0.1788 -1.1162
  222MOL     H626968   5.101   0.220   0.777 -0.6874 -1.4541 -0.1976
  222MOL     H726969   5.388   0.173   0.651 -0.6635 -0.9000  0.1441
  222MOL     C826970   5.181   0.012   0.749 -0.2238  1.3710  0.5079
  222MOL     C926971   5.175   7.964   0.893 -0.3592 -0.1831  0.7963
  222MOL    F1026972   5.068   0.003   0.963 -0.5938 -0.4347 -0.0579
  222MOL    H1126973   5.105   7.958   0.695  1.4121  0.3075 -0.7086
  222MOL    H1226974   5.277   7.978   0.713 -3.0243 -3.2162 -2.8149
  222MOL    H1326975   5.273   7.983   0.938 -0.5280  1.4431  0.5029
  222MOL    C1426976   5.161   7.809   0.891 -0.4468 -0.1252 -0.6161
  222MOL    C1526977   5.172   7.748   1.036  0.2413 -0.8815  0.5028
  222MOL    F1626978   5.122   7.620   1.044  0.1361  0.5735  0.3878
  222MOL    H1726979   5.056   7.789   0.871  0.1264 -1.9344 -1.9507
  222MOL    H1826980   5.220   7.759   0.814 -1.2293 -2.8448  0.5051
  222MOL    H1926981   5.099   7.802   1.095  1.6029  1.8530 -0.2324
  222MOL    C2026982   5.311   7.768   1.103  0.5799  1.2136 -0.8765
  222MOL    C2126983   5.316   7.704   1.245 -0.2611  0.3423 -0.8160
  222MOL    F2226984   5.298   7.575   1.243 -0.0846  0.3415 -0.5082
  222MOL    H2326985   5.390   7.722   1.044 -0.3692 -1.4199 -0.1563
  222MOL    H2426986   5.314   7.876   1.119 -1.3243  0.9887  1.2358
  222MOL    H2526987   5.228   7.739   1.299  0.4521 -1.0922  1.3135
  222MOL    C2626988   5.454   7.718   1.320 -0.0286  0.1590  0.7129
  222MOL    C2726989   5.468   7.862   1.370  0.0629 -0.5323 -0.0374
  222MOL    F2826990   5.371   7.885   1.457  0.3374  0.2985 -0.6360
  222MOL    H2926991   5.441   7.649   1.404  0.3437  0.5193  1.0661
  222MOL    H3026992   5.535   7.701   1.249 -0.7184  1.5197 -0.4300
  222MOL    H3126993   5.456   7.932   1.288 -1.2375 -2.5391 -1.5848
  222MOL    C3226994   5.596   7.889   1.450 -1.3892 -0.3018 -0.1532
  222MOL    C3326995   5.639   0.036   1.437 -0.6932  0.2360  0.5811
  222MOL    F3426996   5.729   0.045   1.540  0.2965 -0.1947  0.1419
  222MOL    H3526997   5.580   7.863   1.554  1.0334 -0.3325  0.2241
  222MOL    H3626998   5.686   7.836   1.420 -1.1447 -0.3251  0.6103
  222MOL    H3726999   5.559   0.105   1.465 -0.9687  0.3196 -0.3899
  222MOL    C3827000   5.711   0.080   1.311 -0.4014 -0.5345 -0.1920
  222MOL    C3927001   5.774   0.222   1.330 -0.2748  0.0370  0.0168
  222MOL    F4027002   5.835   0.256   1.221 -0.4226  0.3981 -0.9597
  222MOL    H4127003   5.793   0.014   1.284  0.5858  0.8828 -0.7138
  222MOL    H4227004   5.638   0.081   1.229 -0.3828 -1.5057 -0.2189
  222MOL    H4327005   5.853   0.225   1.406  1.4167 -0.7206 -1.6741
  222MOL    C4427006   5.683   0.336   1.367 -0.3536  0.3695 -0.0687
  222MOL    C4527007   5.549   0.353   1.288 -0.2217  0.7275  0.3634
  222MOL    F4627008   5.467   0.440   1.352 -0.3920 -0.3106 -0.3467
  222MOL    H4727009   5.653   0.316   1.470  0.7816  3.3894  0.8905
  222MOL    H4827010   5.743   0.427   1.370  1.5242 -0.7889 -1.2377
  222MOL    H4927011   5.502   0.255   1.301  0.0823  0.3869 -0.9920
  222MOL    C5027012   5.563   0.387   1.139 -0.2894 -0.4966  0.5530
  222MOL    C5127013   5.588   0.533   1.105  0.7497 -0.0350  0.5410
  222MOL    F5227014   5.660   0.534   0.995 -0.0623 -0.4605  0.7631
  222MOL    H5327015   5.643   0.329   1.094 -0.6331 -1.3936  1.0941
  222MOL    H5427016   5.468   0.354   1.097 -1.5176 -0.4603  3.1916
  222MOL    H5527017   5.653   0.581   1.178  0.1216  0.3839  0.8333
  222MOL    C5627018   5.459   0.617   1.077 -0.2542 -0.4553  0.1454
  222MOL    C5727019   5.489   0.766   1.037  0.7462 -0.6699  0.1841
  222MOL    F5827020   5.368   0.815   0.994  0.5832  0.1764 -0.2104
  222MOL    H5927021   5.414   0.563   0.994 -1.0387  0.2065  0.1361
  222MOL    H6027022   5.397   0.604   1.166 -1.2571  2.6206 -0.0622
  222MOL    H6127023   5.563   0.773   0.958  0.0002 -1.1319 -0.5621
  222MOL    C6227024   5.539   0.845   1.159 -0.0852 -0.1680 -0.1156
  222MOL    C6327025   5.573   0.999   1.137 -0.2750 -0.1339 -0.2545
  222MOL    F6427026   5.672   0.992   1.053  0.6626 -0.0902  0.7431
  222MOL    H6527027   5.478   0.834   1.249 -0.8507  0.5027 -0.5428
  222MOL    H6627028   5.635   0.798   1.182 -0.3720 -0.0571  1.3782
  222MOL    H6727029   5.628   1.050   1.216 -2.0871  1.9135 -0.2616
  222MOL    C6827030   5.453   1.090   1.093  0.6524 -0.3218  0.0756
  222MOL    C6927031   5.345   1.125   1.201 -0.4094  0.1486  0.5960
  222MOL    F7027032   5.403   1.155   1.318 -0.0786 -0.3543  0.4309
  222MOL    H7127033   5.493   1.185   1.059 -0.7138  0.6370  1.0611
  222MOL    H7227034   5.401   1.047   1.008 -1.1037 -0.5689  1.2375
  222MOL    H7327035   5.285   1.038   1.223  1.6737 -1.2212  1.0497
  222MOL    C7427036   5.246   1.233   1.155 -0.1109  0.7176 -0.2301
  222MOL    C7527037   5.103   1.200   1.190  0.9742 -1.1506 -0.5788
  222MOL    F7627038   5.046   1.319   1.195  1.0455 -0.2758 -0.0385
  222MOL    H7727039   5.271   1.323   1.210  0.0278 -0.3180  1.4241
  222MOL    H7827040   5.245   1.272   1.053  0.3448 -0.5811 -0.7460
  222MOL    H7927041   5.085   1.161   1.290  1.1601  0.4416  0.1012
  222MOL    C8027042   5.021   1.121   1.092 -0.1980 -0.7503 -0.0255
  222MOL    C8127043   5.020   0.976   1.104 -0.2597  0.0457  0.3136
  222MOL    F8227044   4.955   0.955   1.221  0.1161  0.1134  0.5576
  222MOL    H8327045   4.919   1.159   1.099  0.8999  2.0683  1.8284
  222MOL    H8427046   5.056   1.139   0.990  2.0106  0.5528  0.9148
  222MOL    H8527047   5.123   0.942   1.115  0.4287  1.3151 -1.9324
  222MOL    C8627048   4.942   0.907   0.991  0.0018  0.6448  0.1428
  222MOL    C8727049   4.912   0.760   1.013 -0.2764  0.3189 -0.6010
  222MOL    F8827050   4.818   0.721   0.926 -0.0679  0.0929 -0.1876
  222MOL    H8927051   4.843   0.952   0.987  0.0682  0.6469 -1.5206
  222MOL    H9027052   4.984   0.917   0.892  2.1812  0.7039  1.0405
  222MOL    H9127053   4.875   0.756   1.115  1.5808 -1.1668  0.0492
  222MOL    C9227054   5.026   0.666   1.000 -0.6219  0.6548 -0.0498
  222MOL    C9327055   5.004   0.513   1.036 -0.2699 -0.2128  0.1630
  222MOL    F9427056   4.914   0.456   0.955 -0.1302  0.1887 -0.1361
  222MOL    H9527057   5.056   0.670   0.896  1.3308  0.8269  0.4884
  222MOL    H9627058   5.106   0.704   1.065  0.3884 -0.0681 -0.8670
  222MOL    H9727059   4.964   0.500   1.136  0.9121 -1.9672  0.4257
  222MOL    C9827060   5.130   0.428   1.030  0.2355 -0.2276  0.2707
  222MOL    C9927061   5.120   0.286   1.097  0.0186 -0.9418  0.6759
  222MOL   F10027062   5.230   0.226   1.054 -0.1359 -0.3052  0.5720
  222MOL   H10127063   5.163   0.425   0.926  1.7431 -2.7699  0.7936
  222MOL   H10227064   5.208   0.487   1.077 -0.4133  0.5270  0.4153
  222MOL   H10327065   5.039   0.222   1.061 -1.3323 -0.1284  2.2251
  222MOL   C10427066   5.137   0.283   1.246 -0.0988 -0.2254  0.2035
  222MOL   C10527067   5.082   0.149   1.300 -0.3060 -0.1008  0.9771
  222MOL   F10627068   5.167   0.048   1.274  0.8556 -0.0510 -0.5635
  222MOL   H10727069   5.239   0.296   1.281  0.0001  0.5428 -0.3542
  222MOL   H10827070   5.078   0.365   1.288 -1.3748  0.1995 -2.2859
  222MOL   H10927071   4.986   0.122   1.255  0.1186  0.2605 -0.1530
  222MOL   C11027072   5.053   0.169   1.448  0.3777  0.1625 -0.1651
  222MOL   C11127073   4.991   0.055   1.519  0.2825  0.4025 -0.4104
  222MOL   F11227074   4.979   0.114   1.638  0.1421  0.7229 -0.2569
  222MOL   H11327075   5.148   0.190   1.497  1.4537 -0.6168 -1.8677
  222MOL   H11427076   4.992   0.254   1.477 -0.8476 -0.2709 -1.4119
  222MOL   H11527077   5.048   7.965   1.523 -1.8863 -0.9169  0.1481
  222MOL   C11627078   4.847   0.027   1.488  0.2585  0.2249 -1.0106
  222MOL   C11727079   4.801   7.902   1.560  0.6195 -0.2352  0.0368
  222MOL   F11827080   4.672   7.859   1.535 -0.2016 -0.6565 -0.3505
  222MOL   H11927081   4.781   0.108   1.520 -1.2446 -1.0074 -0.9283
  222MOL   H12027082   4.832   0.016   1.381  1.3117 -0.0593 -1.1370
  222MOL   H12127083   4.793   7.925   1.666  0.3305  1.5863 -0.3526
  222MOL   H12227084   4.875   7.824   1.542 -0.2547 -0.6250 -2.0134
  223MOL     C127085   4.700   2.979   6.385  0.4577  0.1230  0.3718
  223MOL     C227086   4.659   2.989   6.236  0.2807  0.5392  0.4358
  223MOL     F327087   4.672   3.117   6.204 -0.3442 -0.5347 -0.4108
  223MOL     H427088   4.632   3.022   6.458 -1.3809 -1.6718 -0.2402
  223MOL     H527089   4.789   3.040   6.403 -2.1917  3.8139  1.4027
  223MOL     H627090   4.553   2.972   6.218  0.7997 -1.0214 -1.2735
  223MOL     H727091   4.735   2.885   6.429 -0.6790 -0.0759  0.8645
  223MOL     C827092   4.750   2.908   6.144  0.7312 -0.1483 -0.4145
  223MOL     C927093   4.724   2.759   6.130  0.1334  0.0435  0.0364
  223MOL    F1027094   4.600   2.739   6.088 -0.0570 -0.0418 -0.0662
  223MOL    H1127095   4.745   2.957   6.046 -3.0342  0.5190  0.0367
  223MOL    H1227096   4.850   2.945   6.166  0.3972 -0.7424  2.1823
  223MOL    H1327097   4.717   2.715   6.230  0.8599  0.3674  0.2285
  223MOL    C1427098   4.822   2.688   6.033  0.4112  0.2866 -1.0071
  223MOL    C1527099   4.960   2.666   6.087  0.5324 -0.3221  0.2439
  223MOL    F1627100   4.945   2.583   6.193 -0.0794  0.2180  0.2893
  223MOL    H1727101   4.782   2.590   6.007  1.7426 -0.7231  0.6402
  223MOL    H1827102   4.825   2.748   5.942  0.9638  2.9203  0.7073
  223MOL    H1927103   5.002   2.759   6.124  0.6328  0.5181 -1.9531
  223MOL    C2027104   5.041   2.590   5.984 -0.4705 -0.4928 -0.2483
  223MOL    C2127105   5.193   2.551   6.010  0.0570  0.6041  0.1847
  223MOL    F2227106   5.198   2.474   6.122  0.2658 -0.9989 -0.5602
  223MOL    H2327107   4.986   2.497   5.972 -1.7644  0.2119  0.0897
  223MOL    H2427108   5.029   2.638   5.886  3.0099  0.9070 -0.0653
  223MOL    H2527109   5.252   2.642   6.024 -0.9943  1.3701 -0.3626
  223MOL    C2627110   5.262   2.476   5.894  0.2131  0.2532 -0.6336
  223MOL    C2727111   5.411   2.431   5.918  0.4960 -0.5438  0.0124
  223MOL    F2827112   5.391   2.317   5.983 -0.1244  0.6894 -0.1060
  223MOL    H2927113   5.187   2.400   5.869 -0.9720  0.5558  1.8391
  223MOL    H3027114   5.252   2.547   5.812  0.9045 -0.0916 -1.0197
  223MOL    H3127115   5.464   2.494   5.990  0.6713 -0.5775 -0.0879
  223MOL    C3227116   5.501   2.393   5.803  0.1128  0.0059  0.1983
  223MOL    C3327117   5.533   2.512   5.712  1.1057  0.4597 -1.1682
  223MOL    F3427118   5.603   2.602   5.783 -0.3078 -0.5501  0.3881
  223MOL    H3527119   5.604   2.370   5.831 -0.1342  0.9144  1.8975
  223MOL    H3627120   5.459   2.303   5.757  0.6059 -0.4010  0.5324
  223MOL    H3727121   5.445   2.566   5.676  1.3337  1.4067 -0.3021
  223MOL    C3827122   5.629   2.470   5.601  0.2413  0.6033 -0.4455
  223MOL    C3927123   5.662   2.584   5.500 -0.0245  0.2294  0.1972
  223MOL    F4027124   5.548   2.640   5.450 -0.6587 -0.5572 -0.6326
  223MOL    H4127125   5.726   2.440   5.641  0.3008 -0.3841 -1.3062
  223MOL    H4227126   5.595   2.373   5.565  0.5413  0.1770  0.4060
  223MOL    H4327127   5.713   2.539   5.415 -1.0559 -0.3116 -0.1487
  223MOL    C4427128   5.764   2.691   5.555  0.3756  0.2961  0.1327
  223MOL    C4527129   5.774   2.810   5.458  0.5061 -0.2373  0.3402
  223MOL    F4627130   5.820   2.914   5.534  0.3528 -0.7347 -0.2600
  223MOL    H4727131   5.722   2.733   5.646  0.8639 -2.0515  1.5009
  223MOL    H4827132   5.848   2.623   5.573 -1.0929 -2.4854 -3.0086
  223MOL    H4927133   5.674   2.841   5.426 -0.1161 -0.9689  1.5020
  223MOL    C5027134   5.868   2.784   5.340 -0.5003  0.2160 -0.2123
  223MOL    C5127135   5.809   2.858   5.212 -0.2306 -0.7401  0.3231
  223MOL    F5227136   5.768   2.981   5.230 -0.0190  0.4570 -0.3324
  223MOL    H5327137   5.972   2.811   5.362 -0.6638  0.1617  0.6397
  223MOL    H5427138   5.890   2.683   5.305  0.2922  1.0010 -2.0600
  223MOL    H5527139   5.719   2.810   5.175 -0.1801  0.6552 -1.7055
  223MOL    C5627140   5.912   2.854   5.095  0.0617 -0.3624  0.8018
  223MOL    C5727141   5.878   2.921   4.958  0.6265 -0.6659  0.5794
  223MOL    F5827142   5.991   2.929   4.891 -0.0041 -0.0362  1.0254
  223MOL    H5927143   6.003   2.896   5.137 -0.6749  2.3737 -0.2176
  223MOL    H6027144   5.926   2.747   5.086 -1.1111 -0.4317 -0.4775
  223MOL    H6127145   5.838   3.023   4.962  0.5720 -0.6900  0.6358
  223MOL    C6227146   5.787   2.830   4.866  0.3043  0.1710  0.4431
  223MOL    C6327147   5.720   2.907   4.750 -0.4850  0.4856  0.0619
  223MOL    F6427148   5.814   2.926   4.658 -0.0514  0.1705  0.3073
  223MOL    H6527149   5.842   2.744   4.830  0.5820  0.9119 -0.9190
  223MOL    H6627150   5.711   2.780   4.927 -1.4195  0.1664 -1.6664
  223MOL    H6727151   5.688   3.003   4.791  0.8228  0.7303  0.5123
  223MOL    C6827152   5.619   2.822   4.671 -0.6948 -0.8227  0.0142
  223MOL    C6927153   5.478   2.828   4.729 -0.2466  0.0713  0.0923
  223MOL    F7027154   5.434   2.955   4.751  0.7112 -0.0309 -0.0640
  223MOL    H7127155   5.622   2.849   4.566  2.1097  1.2002  0.5537
  223MOL    H7227156   5.644   2.717   4.656  0.8589 -0.4327 -0.1579
  223MOL    H7327157   5.496   2.788   4.828  2.8027 -1.1177 -0.8712
  223MOL    C7427158   5.363   2.741   4.661  0.2606  0.2257 -1.2530
  223MOL    C7527159   5.391   2.586   4.658 -0.4682  0.1937  0.0619
  223MOL    F7627160   5.439   2.533   4.770 -0.0231 -0.3134 -0.5016
  223MOL    H7727161   5.271   2.746   4.718  0.3554 -1.2456 -0.9478
  223MOL    H7827162   5.351   2.775   4.558  0.1028 -1.5023 -1.8193
  223MOL    H7927163   5.471   2.568   4.586 -0.6615 -0.4250 -0.0007
  223MOL    C8027164   5.275   2.500   4.616  0.0422 -0.2346 -0.1513
  223MOL    C8127165   5.209   2.537   4.484 -0.7832  0.8171 -0.5660
  223MOL    F8227166   5.310   2.527   4.393  0.3134 -0.0434  0.1459
  223MOL    H8327167   5.302   2.394   4.612  2.7240  0.4113 -0.5586
  223MOL    H8427168   5.196   2.503   4.691  3.0614 -2.9209  3.3579
  223MOL    H8527169   5.171   2.639   4.490  1.4466  1.6168  0.4061
  223MOL    C8627170   5.086   2.442   4.444  0.4563  0.0686  0.0901
  223MOL    C8727171   4.958   2.432   4.529  0.2568 -0.2406  0.0009
  223MOL    F8827172   4.896   2.552   4.504 -0.0367  0.5222 -0.2382
  223MOL    H8927173   5.054   2.469   4.344  0.6102  0.4658  0.1466
  223MOL    H9027174   5.126   2.341   4.434 -0.7327 -0.4418  0.3749
  223MOL    H9127175   4.971   2.426   4.637  2.6628  1.4955 -0.1675
  223MOL    C9227176   4.855   2.329   4.475 -0.8241  0.0937  0.1289
  223MOL    C9327177   4.907   2.185   4.497  0.2718 -0.0927  0.2488
  223MOL    F9427178   4.894   2.159   4.624  0.1615 -0.4670  0.2111
  223MOL    H9527179   4.750   2.343   4.503 -0.2217  1.8717  1.5805
  223MOL    H9627180   4.852   2.350   4.368 -0.9814 -1.9845 -0.3017
  223MOL    H9727181   5.008   2.162   4.462  0.1312  0.3766 -0.4753
  223MOL    C9827182   4.822   2.092   4.412  0.1429 -0.9461 -0.8140
  223MOL    C9927183   4.857   1.947   4.440 -0.7482 -0.1717  0.6567
  223MOL   F10027184   4.752   1.880   4.382  0.2668  0.0524  0.3308
  223MOL   H10127185   4.717   2.104   4.439  0.8120  0.4670  1.2511
  223MOL   H10227186   4.831   2.122   4.307  1.0300 -0.0361 -0.4904
  223MOL   H10327187   4.859   1.919   4.546  0.8815  3.6777  1.7283
  223MOL   C10427188   4.983   1.886   4.364  0.0139 -0.2625 -0.4183
  223MOL   C10527189   4.983   1.731   4.391  0.3929  0.6170 -0.4450
  223MOL   F10627190   5.073   1.670   4.316 -0.1942  0.4784 -0.3283
  223MOL   H10727191   4.966   1.888   4.257  0.0673 -2.1757 -0.4703
  223MOL   H10827192   5.074   1.940   4.390  0.0852 -0.3823 -0.4208
  223MOL   H10927193   4.886   1.689   4.364 -0.0089  2.5030 -2.0507
  223MOL   C11027194   5.022   1.689   4.536  0.6535  0.5030  0.2349
  223MOL   C11127195   5.158   1.625   4.561 -0.4408  0.5099 -0.2966
  223MOL   F11227196   5.182   1.629   4.692 -0.0800  0.3482 -0.4522
  223MOL   H11327197   5.028   1.784   4.588  0.3407 -0.6422  2.4051
  223MOL   H11427198   4.945   1.627   4.582  0.0710  0.8954 -0.2090
  223MOL   H11527199   5.242   1.686   4.529  1.1336 -0.7895  1.2882
  223MOL   C11627200   5.168   1.478   4.516 -0.2154 -0.1106 -0.3383
  223MOL   C11727201   5.315   1.435   4.516 -0.1604 -0.5252 -0.1018
  223MOL   F11827202   5.377   1.477   4.410 -0.3221  0.1641 -0.1469
  223MOL   H11927203   5.095   1.412   4.565  0.5177 -0.9780 -0.3983
  223MOL   H12027204   5.132   1.471   4.414  0.2430  0.5648 -0.5522
  223MOL   H12127205   5.322   1.326   4.510 -0.7746 -0.6013  0.5866
  223MOL   H12227206   5.366   1.463   4.608  1.5632 -0.5583 -1.0225
  224MOL     C127207   0.121   2.312   5.651 -0.7889 -0.0116  0.3935
  224MOL     C227208   0.069   2.269   5.784  0.1579 -1.0017  0.0588
  224MOL     F327209   0.173   2.249   5.871  0.0063 -0.0149  0.1004
  224MOL     H427210   0.189   2.396   5.655 -0.3641 -0.3944  1.3933
  224MOL     H527211   0.045   2.331   5.575  0.8294  1.3251 -0.9207
  224MOL     H627212   0.022   2.171   5.769 -2.8665  0.4772 -0.5347
  224MOL     H727213   0.182   2.228   5.617 -1.4691 -1.0622  1.7178
  224MOL     C827214   7.962   2.368   5.827 -0.1133 -0.2426 -0.0655
  224MOL     C927215   7.890   2.326   5.953  0.8529 -0.0818  0.0105
  224MOL    F1027216   7.818   2.432   5.985  0.6093 -0.3948  0.1897
  224MOL    H1127217   8.002   2.469   5.836  0.4924 -0.5378  0.6572
  224MOL    H1227218   7.888   2.375   5.747  2.1570 -0.6072 -2.2824
  224MOL    H1327219   7.973   2.333   6.023  0.0527  0.6828  0.8811
  224MOL    C1427220   7.804   2.205   5.954  0.2123  0.6426  0.1318
  224MOL    C1527221   7.686   2.202   5.858 -0.3372  0.0086 -0.4188
  224MOL    F1627222   7.738   2.164   5.737 -0.4166 -0.8626  0.0707
  224MOL    H1727223   7.864   2.116   5.936 -1.2542 -0.5881  1.1535
  224MOL    H1827224   7.771   2.193   6.057 -0.6644  0.6125 -0.1514
  224MOL    H1927225   7.647   2.303   5.859 -1.0033 -0.2501  0.0232
  224MOL    C2027226   7.593   2.088   5.886  0.9157 -0.1040  0.3110
  224MOL    C2127227   7.455   2.118   5.820  0.5103  0.4415  0.1105
  224MOL    F2227228   7.376   2.016   5.852  0.1264  0.0400 -0.1166
  224MOL    H2327229   7.635   1.993   5.853 -3.0185 -0.7842 -3.2435
  224MOL    H2427230   7.572   2.082   5.993 -0.4312  0.5423  0.0924
  224MOL    H2527231   7.460   2.111   5.711 -1.4754 -1.1769  0.1071
  224MOL    C2627232   7.378   2.238   5.868 -0.4216 -0.2354  0.1320
  224MOL    C2727233   7.355   2.252   6.023  0.3304  0.2078 -0.7092
  224MOL    F2827234   7.469   2.281   6.078  0.0673  0.3681 -0.0625
  224MOL    H2927235   7.417   2.333   5.831 -1.7796  0.3961  0.2989
  224MOL    H3027236   7.281   2.222   5.820 -0.8783  0.6177  0.7538
  224MOL    H3127237   7.326   2.156   6.066  0.4425  0.4584 -0.0690
  224MOL    C3227238   7.247   2.370   6.046 -0.5210  0.1899 -0.7200
  224MOL    C3327239   7.239   2.410   6.197 -0.7822  0.2173 -0.4205
  224MOL    F3427240   7.361   2.454   6.235 -0.3454  0.2086  0.1284
  224MOL    H3527241   7.297   2.446   5.986  0.2682 -1.2366 -1.8946
  224MOL    H3627242   7.148   2.340   6.012 -1.7837  2.2945  0.9719
  224MOL    H3727243   7.208   2.328   6.261  0.9438  0.7878  1.2050
  224MOL    C3827244   7.136   2.522   6.226 -0.6300 -0.1002 -0.6296
  224MOL    C3927245   7.112   2.550   6.381 -0.3934  0.3339 -0.3433
  224MOL    F4027246   7.214   2.589   6.442  0.3699  0.1117 -0.0831
  224MOL    H4127247   7.165   2.612   6.173  0.7643 -0.1343  0.0697
  224MOL    H4227248   7.045   2.479   6.184 -2.3922  0.8958  2.0206
  224MOL    H4327249   7.084   2.458   6.432  0.4066  0.2525 -0.0345
  224MOL    C4427250   7.006   2.652   6.418  0.0727  0.6698  0.3470
  224MOL    C4527251   6.961   2.672   6.567 -0.0210  0.4750 -0.2677
  224MOL    F4627252   6.928   2.797   6.585  0.5990 -0.2838  0.1470
  224MOL    H4727253   7.039   2.747   6.375 -0.5173  1.3774  1.4261
  224MOL    H4827254   6.913   2.642   6.362 -0.6522  0.7987  1.5146
  224MOL    H4927255   7.058   2.650   6.613  0.1384  0.5779 -0.5499
  224MOL    C5027256   6.848   2.580   6.623  0.8059  0.5575 -0.0925
  224MOL    C5127257   6.812   2.606   6.769 -0.4605 -0.0210 -0.5556
  224MOL    F5227258   6.711   2.530   6.784 -0.4481  0.7680 -0.2168
  224MOL    H5327259   6.765   2.586   6.553  0.8493 -0.2192 -0.2162
  224MOL    H5427260   6.882   2.477   6.622 -0.6181  0.0680 -3.4869
  224MOL    H5527261   6.771   2.706   6.783  1.0181  0.7880 -1.7629
  224MOL    C5627262   6.929   2.575   6.873  0.4208  0.3711 -0.1790
  224MOL    C5727263   6.883   2.569   7.020 -0.4549 -0.8272  0.5394
  224MOL    F5827264   6.992   2.570   7.101  0.5167 -0.2306  0.0575
  224MOL    H5927265   6.989   2.488   6.847  0.5388  0.6865 -0.9785
  224MOL    H6027266   7.006   2.651   6.859 -0.7815  1.8680  1.0782
  224MOL    H6127267   6.842   2.470   7.038 -0.1603 -1.1058 -0.3114
  224MOL    C6227268   6.792   2.688   7.061 -0.1160 -0.1841 -0.1444
  224MOL    C6327269   6.767   2.704   7.213  0.4270  0.1659  0.0636
  224MOL    F6427270   6.680   2.803   7.232  0.0689 -0.0787  0.0883
  224MOL    H6527271   6.833   2.782   7.025 -1.2631 -0.6598 -2.7597
  224MOL    H6627272   6.701   2.665   7.005  0.9847 -3.1189 -0.8018
  224MOL    H6727273   6.852   2.733   7.274  1.2382 -1.7303 -0.1408
  224MOL    C6827274   6.711   2.577   7.283  0.0040 -0.6798  0.1158
  224MOL    C6927275   6.670   2.606   7.425 -0.2893  0.3621 -0.8909
  224MOL    F7027276   6.570   2.519   7.452 -0.5195  0.4258  0.8345
  224MOL    H7127277   6.630   2.540   7.219  1.1045 -2.6229 -0.1911
  224MOL    H7227278   6.777   2.491   7.276  0.3631 -0.3561 -0.4877
  224MOL    H7327279   6.627   2.707   7.430  0.5414  0.7043 -0.5638
  224MOL    C7427280   6.785   2.603   7.524 -0.2860 -0.3099  0.4166
  224MOL    C7527281   6.833   2.463   7.561  0.6312  0.0448 -0.6560
  224MOL    F7627282   6.916   2.410   7.466  0.3428  0.0578 -0.0199
  224MOL    H7727283   6.862   2.678   7.504  0.7585 -1.1404  1.2643
  224MOL    H7827284   6.734   2.635   7.616 -2.6286  2.1226 -1.6488
  224MOL    H7927285   6.743   2.401   7.569  0.0095  0.7479 -1.9006
  224MOL    C8027286   6.906   2.461   7.699  0.2309  0.8606  0.5583
  224MOL    C8127287   7.048   2.513   7.695 -0.0213 -0.1699  0.5537
  224MOL    F8227288   7.044   2.634   7.643 -0.0580  0.4068 -0.1166
  224MOL    H8327289   6.841   2.509   7.772  0.4941  1.2933  0.5102
  224MOL    H8427290   6.911   2.357   7.731 -0.7979 -0.1134 -2.2761
  224MOL    H8527291   7.108   2.455   7.625 -2.2616 -1.9512  0.0778
  224MOL    C8627292   7.120   2.514   7.836 -0.0155 -0.1035 -0.2730
  224MOL    C8727293   7.172   2.370   7.873 -0.0134  0.2414 -0.1304
  224MOL    F8827294   7.069   2.289   7.873  0.4601  0.2857  0.0331
  224MOL    H8927295   7.210   2.573   7.854  0.2799 -1.1959  2.1278
  224MOL    H9027296   7.054   2.559   7.910 -0.5388 -0.8012 -0.3062
  224MOL    H9127297   7.200   2.379   7.978  3.2024  0.6149 -0.9755
  224MOL    C9227298   7.294   2.332   7.794 -0.0005  0.3822  0.3052
  224MOL    C9327299   7.322   2.181   7.807 -0.7677  1.1737 -1.2049
  224MOL    F9427300   7.427   2.149   7.727 -0.2050  0.3481  0.4184
  224MOL    H9527301   7.263   2.354   7.692  2.0463  0.4435 -0.3305
  224MOL    H9627302   7.386   2.390   7.807 -1.5797  2.8932  0.7202
  224MOL    H9727303   7.240   2.116   7.777  2.5518 -3.7240 -0.1542
  224MOL    C9827304   7.373   2.133   7.941  0.0045  0.3881 -0.0265
  224MOL    C9927305   7.375   1.985   7.982 -0.3549  0.4107  0.0598
  224MOL   F10027306   7.475   1.968   0.058 -0.2018 -0.4001 -0.2733
  224MOL   H10127307   7.470   2.179   7.958  1.7992 -2.6431 -1.6529
  224MOL   H10227308   7.316   2.183   0.016  0.1906 -0.1533  0.4552
  224MOL   H10327309   7.395   1.923   7.894 -0.6247 -0.6506  0.7409
  224MOL   C10427310   7.249   1.932   0.042  0.2716  0.1009  0.7951
  224MOL   C10527311   7.125   1.933   7.952  0.2363 -0.6631  0.3913
  224MOL   F10627312   7.153   1.877   7.835  0.2308  0.1974  0.2098
  224MOL   H10727313   7.279   1.831   0.071 -0.1077 -0.1236  0.4137
  224MOL   H10827314   7.225   1.982   0.136  0.3199 -0.5259  1.1476
  224MOL   H10927315   7.111   2.039   7.934  1.2937 -0.3606  1.2895
  224MOL   C11027316   6.997   1.870   8.000 -0.3982 -0.0656 -0.5295
  224MOL   C11127317   6.885   1.891   7.890  0.3461 -0.3230 -0.1523
  224MOL   F11227318   6.797   1.795   7.914 -0.5116  0.5796 -0.0840
  224MOL   H11327319   7.004   1.764   0.021 -0.5327  0.1581  0.5112
  224MOL   H11427320   6.956   1.918   0.086 -0.0524  1.8440 -1.3606
  224MOL   H11527321   6.932   1.881   7.792  0.3934 -0.5680 -0.1061
  224MOL   C11627322   6.813   2.027   7.907 -0.0481 -0.4464  0.4462
  224MOL   C11727323   6.704   2.049   7.806 -0.1010 -0.1905  0.0887
  224MOL   F11827324   6.742   2.038   7.681 -0.0736 -0.1647 -0.1343
  224MOL   H11927325   6.769   2.044   0.002 -1.1192 -1.2746  0.1111
  224MOL   H12027326   6.886   2.108   7.900  0.4202 -0.8418  0.7661
  224MOL   H12127327   6.666   2.151   7.807  0.9521  0.2010  0.4861
  224MOL   H12227328   6.618   1.982   7.811 -1.7281  1.8753  0.8010
  225MOL     C127329   2.232   5.668   0.945 -0.0109 -0.4066  0.2517
  225MOL     C227330   2.221   5.609   1.087  0.2331 -0.3536 -0.3197
  225MOL     F327331   2.302   5.498   1.089 -0.2385  0.1699 -0.3473
  225MOL     H427332   2.337   5.693   0.929  0.1181 -1.0551  0.0755
  225MOL     H527333   2.179   5.763   0.939 -0.4508 -0.6312  0.5533
  225MOL     H627334   2.120   5.572   1.104  1.0370 -2.2422  0.4718
  225MOL     H727335   2.206   5.587   0.876  0.6780 -0.2801 -0.1550
  225MOL     C827336   2.274   5.705   1.194  0.4269 -0.1985 -0.7376
  225MOL     C927337   2.213   5.665   1.332 -0.6665 -0.0780  0.1267
  225MOL    F1027338   2.288   5.714   1.425  0.1258 -0.0558  0.1045
  225MOL    H1127339   2.382   5.694   1.204  0.4816  1.5715  0.9378
  225MOL    H1227340   2.254   5.811   1.177 -0.5033 -0.2909 -0.2745
  225MOL    H1327341   2.214   5.559   1.356 -0.9057 -0.0324  0.3397
  225MOL    C1427342   2.065   5.710   1.352  0.2641  0.2160 -0.2773
  225MOL    C1527343   1.974   5.642   1.454  0.0575  0.3433 -0.6860
  225MOL    F1627344   1.961   5.515   1.420  0.3756  0.0227 -0.0457
  225MOL    H1727345   2.064   5.818   1.367 -0.3500  0.3298 -1.1194
  225MOL    H1827346   2.015   5.706   1.255  0.1471  0.1772 -0.2148
  225MOL    H1927347   1.876   5.689   1.459  0.8592  1.8987  0.9191
  225MOL    C2027348   2.021   5.640   1.596  0.1488 -0.5617 -0.0289
  225MOL    C2127349   1.919   5.592   1.705  0.3652  0.6487 -0.0056
  225MOL    F2227350   1.976   5.587   1.823  0.7640  0.0943 -0.1198
  225MOL    H2327351   2.117   5.592   1.610  0.3174 -0.6417 -1.4071
  225MOL    H2427352   2.041   5.744   1.623  0.4152 -0.5058 -0.4337
  225MOL    H2527353   1.896   5.488   1.683 -0.0923  0.3495  1.8274
  225MOL    C2627354   1.788   5.672   1.710 -0.9486  0.1996 -0.5006
  225MOL    C2727355   1.671   5.626   1.798 -1.2873  0.2468  0.0265
  225MOL    F2827356   1.562   5.694   1.759 -0.3645  0.1065  0.1138
  225MOL    H2927357   1.814   5.772   1.745 -2.9101 -0.1770  2.2715
  225MOL    H3027358   1.749   5.696   1.611  0.6800  0.9270 -0.9764
  225MOL    H3127359   1.703   5.661   1.896 -0.7092  0.9605 -0.4001
  225MOL    C3227360   1.622   5.479   1.789 -0.2393 -0.6072  0.1880
  225MOL    C3327361   1.546   5.442   1.658  0.4747 -0.3012 -0.1817
  225MOL    F3427362   1.627   5.442   1.548  0.4554  0.2812  0.0869
  225MOL    H3527363   1.694   5.402   1.817 -0.4592 -1.3331 -1.1965
  225MOL    H3627364   1.546   5.473   1.866 -0.3860 -0.8420  0.0271
  225MOL    H3727365   1.465   5.513   1.645  1.0608  0.1622 -1.3601
  225MOL    C3827366   1.506   5.291   1.656  0.2638  0.3543  0.5392
  225MOL    C3927367   1.379   5.276   1.738 -0.3282  0.3366 -0.7190
  225MOL    F4027368   1.287   5.360   1.689  0.2920  0.3617 -0.3235
  225MOL    H4127369   1.492   5.254   1.554 -3.7021  2.5729  0.1768
  225MOL    H4227370   1.587   5.236   1.704 -0.8683 -2.8657 -1.0924
  225MOL    H4327371   1.391   5.296   1.845 -1.2084  1.0920 -0.7577
  225MOL    C4427372   1.325   5.133   1.718 -0.6205  0.4977 -0.0018
  225MOL    C4527373   1.194   5.108   1.792  0.3161 -0.3271  0.4084
  225MOL    F4627374   1.147   4.991   1.749 -0.6586  0.7302 -0.0526
  225MOL    H4727375   1.311   5.115   1.611 -0.0234 -2.1865  0.3324
  225MOL    H4827376   1.406   5.062   1.733 -3.0163 -2.1216  0.9432
  225MOL    H4927377   1.123   5.182   1.755  0.8706 -1.0001 -2.0868
  225MOL    C5027378   1.190   5.088   1.942  0.1889  0.2936 -0.7642
  225MOL    C5127379   1.270   4.962   1.996 -0.0377  0.6387 -0.5152
  225MOL    F5227380   1.395   4.993   2.034 -0.5982  0.2026  0.2073
  225MOL    H5327381   1.216   5.171   2.008  1.2900 -1.4529  1.0397
  225MOL    H5427382   1.084   5.083   1.967  0.1484  2.4761 -0.3827
  225MOL    H5527383   1.291   4.907   1.905  1.1295 -1.9175  1.2378
  225MOL    C5627384   1.189   4.886   2.107 -0.1391  0.1093  0.3867
  225MOL    C5727385   1.244   4.747   2.155  0.5220 -0.4240  0.0023
  225MOL    F5827386   1.162   4.708   2.251 -0.0468 -0.0287 -0.6358
  225MOL    H5927387   1.184   4.946   2.198 -0.8422  2.1610 -0.9755
  225MOL    H6027388   1.085   4.880   2.076  0.6943  0.8481 -2.6765
  225MOL    H6127389   1.343   4.762   2.197  0.5385  0.1852 -0.2401
  225MOL    C6227390   1.254   4.638   2.041  0.9876 -0.0104  0.1459
  225MOL    C6327391   1.325   4.498   2.084 -0.0235  0.0564  0.1403
  225MOL    F6427392   1.444   4.537   2.124  0.3288 -0.7716 -0.4581
  225MOL    H6527393   1.152   4.617   2.009  0.9360 -1.0720  0.9889
  225MOL    H6627394   1.310   4.677   1.955  2.0430 -1.0727  0.3298
  225MOL    H6727395   1.336   4.448   1.988 -3.7259  0.6426 -0.6711
  225MOL    C6827396   1.259   4.406   2.186  0.6917  0.4511  0.0790
  225MOL    C6927397   1.115   4.384   2.169 -0.9076  0.2192  0.5685
  225MOL    F7027398   1.093   4.321   2.052  0.1052 -0.3726  0.2389
  225MOL    H7127399   1.300   4.307   2.166  0.5424  0.6595 -1.2777
  225MOL    H7227400   1.287   4.431   2.289 -1.7533 -1.2840  1.2125
  225MOL    H7327401   1.059   4.478   2.168 -2.8180 -0.8461 -2.6866
  225MOL    C7427402   1.054   4.290   2.278 -0.2391 -0.6690  0.4227
  225MOL    C7527403   0.900   4.282   2.297 -0.3538 -0.9548 -0.2957
  225MOL    F7627404   0.845   4.233   2.187 -0.3154 -0.2325  0.1481
  225MOL    H7727405   1.099   4.190   2.282  0.4872 -0.3373  0.5301
  225MOL    H7827406   1.090   4.318   2.376  2.9089  0.4148 -0.9816
  225MOL    H7927407   0.853   4.375   2.330 -1.2048 -1.2929 -0.5445
  225MOL    C8027408   0.861   4.187   2.412 -0.5132  0.7102  0.0381
  225MOL    C8127409   0.713   4.147   2.424 -0.1353  0.7403  0.0844
  225MOL    F8227410   0.706   4.052   2.513  0.0490 -0.1164  0.4668
  225MOL    H8327411   0.912   4.091   2.397 -0.6389  0.5682  0.5007
  225MOL    H8427412   0.886   4.237   2.506  0.4473 -1.2766  0.8879
  225MOL    H8527413   0.690   4.098   2.329  1.1128 -0.6568  0.4741
  225MOL    C8627414   0.622   4.255   2.475  0.3620  0.1008  0.2062
  225MOL    C8727415   0.476   4.199   2.499 -0.7496 -1.0061 -0.1378
  225MOL    F8827416   0.412   4.284   2.575 -0.1184 -0.5711 -0.0916
  225MOL    H8927417   0.665   4.309   2.559 -0.6191 -2.6750  2.5753
  225MOL    H9027418   0.604   4.332   2.400  0.4798 -1.7887 -1.8151
  225MOL    H9127419   0.474   4.105   2.554 -1.8560 -1.3777 -0.8009
  225MOL    C9227420   0.399   4.173   2.375  1.0623 -0.6016  0.0818
  225MOL    C9327421   0.263   4.108   2.394  0.1427 -0.0702 -0.1946
  225MOL    F9427422   0.183   4.134   2.292  0.5611 -0.2288  0.1953
  225MOL    H9527423   0.390   4.263   2.315  0.5489 -0.8723 -0.2505
  225MOL    H9627424   0.461   4.117   2.305  2.2952  0.4043  0.3475
  225MOL    H9727425   0.214   4.162   2.475 -1.0495 -0.4467 -0.6424
  225MOL    C9827426   0.266   3.957   2.420  0.1341  0.3017  1.0635
  225MOL    C9927427   0.125   3.895   2.419 -0.0791  0.2324 -0.0965
  225MOL   F10027428   0.147   3.768   2.445  0.3884  0.5047  0.0106
  225MOL   H10127429   0.328   3.914   2.342 -0.9611 -3.1017  1.9810
  225MOL   H10227430   0.311   3.927   2.515  0.2753  1.8051  1.4963
  225MOL   H10327431   0.083   3.878   2.320 -0.0388 -0.5833  0.0182
  225MOL   C10427432   0.022   3.934   2.529  0.1340  0.8153  0.3021
  225MOL   C10527433   7.885   3.858   2.513  0.6316 -0.0628 -0.1703
  225MOL   F10627434   7.852   3.864   2.387 -0.0169 -0.2453 -0.6974
  225MOL   H10727435   0.068   3.908   2.624 -0.6151 -1.4748  0.0490
  225MOL   H10827436   0.011   4.043   2.529 -0.7431  0.7261  0.1441
  225MOL   H10927437   7.804   3.913   2.560  1.7350 -0.4438  2.2380
  225MOL   C11027438   7.887   3.710   2.564  0.2750 -0.4258 -0.6676
  225MOL   C11127439   7.905   3.689   2.720  0.2834  0.0538  0.3389
  225MOL   F11227440   7.818   3.756   2.793  0.0568 -0.0125 -0.4179
  225MOL   H11327441   7.790   3.673   2.531  1.4610 -2.9585 -1.4425
  225MOL   H11427442   7.963   3.644   2.522  1.5762  0.2410  0.5963
  225MOL   H11527443   8.003   3.727   2.748 -0.6489  1.2478  2.0778
  225MOL   C11627444   7.911   3.545   2.752 -0.1220  0.4607 -0.1669
  225MOL   C11727445   7.787   3.464   2.716 -0.5783 -0.0129  0.0545
  225MOL   F11827446   7.682   3.489   2.801 -0.3313 -0.2970  0.4306
  225MOL   H11927447   8.000   3.509   2.700 -0.0870  2.7588 -1.7467
  225MOL   H12027448   7.918   3.534   2.861 -1.7200  1.3546  0.0345
  225MOL   H12127449   7.815   3.359   2.730  1.8333  0.7818  1.5378
  225MOL   H12227450   7.748   3.482   2.616 -0.9955  0.3551  0.2814
  226MOL     C127451   4.821   5.219   4.080 -0.2662 -0.0524  0.1622
  226MOL     C227452   4.744   5.285   3.962  0.4846 -0.2098  0.1922
  226MOL     F327453   4.771   5.224   3.845  0.5092 -0.1703 -0.9671
  226MOL     H427454   4.782   5.279   4.162 -0.1569 -0.6092  0.6237
  226MOL     H527455   4.929   5.227   4.066 -0.4401  0.3065 -1.1041
  226MOL     H627456   4.789   5.384   3.960  2.2029 -0.9783  0.1953
  226MOL     H727457   4.785   5.117   4.094 -2.7360  0.5655 -1.3347
  226MOL     C827458   4.588   5.287   3.973  0.7290 -0.3525  0.1797
  226MOL     C927459   4.523   5.328   4.109  0.2874 -0.4902  0.2403
  226MOL    F1027460   4.574   5.447   4.161 -0.0746 -0.1992 -0.1265
  226MOL    H1127461   4.565   5.363   3.899  0.7720 -0.5563 -0.0439
  226MOL    H1227462   4.552   5.189   3.941  1.6145 -0.5914 -0.0855
  226MOL    H1327463   4.543   5.250   4.181 -0.1586 -1.1162 -0.3072
  226MOL    C1427464   4.367   5.341   4.105  0.5274 -0.7328  0.2518
  226MOL    C1527465   4.292   5.335   4.237  0.3954  0.2613 -0.5677
  226MOL    F1627466   4.169   5.379   4.189 -0.2292  0.0956 -0.5860
  226MOL    H1727467   4.337   5.428   4.046 -0.4718 -0.2617  1.4261
  226MOL    H1827468   4.329   5.258   4.045 -2.5965  0.2810  0.7061
  226MOL    H1927469   4.332   5.408   4.307 -0.5905  0.1116  0.1625
  226MOL    C2027470   4.273   5.201   4.289 -0.4506 -0.0002 -0.1344
  226MOL    C2127471   4.242   5.193   4.439 -0.2550  0.2785  0.0103
  226MOL    F2227472   4.340   5.268   4.499 -0.6037  0.2024 -0.3757
  226MOL    H2327473   4.195   5.145   4.238 -0.8939  2.4998 -2.3541
  226MOL    H2427474   4.365   5.144   4.279  0.3564  1.0643  1.0360
  226MOL    H2527475   4.252   5.092   4.479 -0.4701 -0.1156 -0.9084
  226MOL    C2627476   4.106   5.249   4.483  0.4091 -0.7406  0.0715
  226MOL    C2727477   3.993   5.150   4.449 -0.1037  0.4850 -0.7899
  226MOL    F2827478   4.016   5.052   4.531  0.1540  0.1034 -0.2238
  226MOL    H2927479   4.106   5.273   4.590  0.4295 -0.1430 -0.0594
  226MOL    H3027480   4.082   5.342   4.431  2.1542 -1.0226 -1.2715
  226MOL    H3127481   4.015   5.111   4.350 -0.6783 -0.9612 -0.3599
  226MOL    C3227482   3.854   5.201   4.463  0.0227 -0.6867 -0.3097
  226MOL    C3327483   3.743   5.105   4.418  0.2248 -0.5560  0.1253
  226MOL    F3427484   3.722   5.006   4.507 -0.0605 -0.0363 -0.3150
  226MOL    H3527485   3.824   5.241   4.561  1.4226  1.6224 -0.7912
  226MOL    H3627486   3.849   5.295   4.408  2.4066  0.6102  1.5860
  226MOL    H3727487   3.758   5.066   4.317  0.7866  2.1958 -0.9054
  226MOL    C3827488   3.604   5.167   4.395  0.8077  0.0951 -0.1512
  226MOL    C3927489   3.485   5.059   4.377 -0.7062 -0.2404 -0.3304
  226MOL    F4027490   3.379   5.123   4.342  0.1384  0.2984 -0.3779
  226MOL    H4127491   3.588   5.228   4.484  1.4686 -1.2903  0.9207
  226MOL    H4227492   3.623   5.231   4.309  0.8128  0.9082  0.4524
  226MOL    H4327493   3.466   5.017   4.476 -1.7613  0.4505 -0.2330
  226MOL    C4427494   3.525   4.941   4.284  0.1403 -0.0915  0.1094
  226MOL    C4527495   3.411   4.849   4.234  1.2027 -0.4508 -0.1191
  226MOL    F4627496   3.471   4.769   4.146  0.6975  0.2572  0.5021
  226MOL    H4727497   3.584   4.989   4.205 -1.2397  1.7496  0.1583
  226MOL    H4827498   3.597   4.891   4.348  0.2586  0.6326  0.5511
  226MOL    H4927499   3.338   4.905   4.175 -1.1388 -0.5444  2.5917
  226MOL    C5027500   3.329   4.764   4.329 -0.7189 -0.7173 -0.2852
  226MOL    C5127501   3.213   4.841   4.384 -0.0208 -0.1253 -0.6199
  226MOL    F5227502   3.134   4.896   4.292  0.3368 -0.0181 -0.3076
  226MOL    H5327503   3.298   4.678   4.270  0.8516 -0.9246 -0.8058
  226MOL    H5427504   3.394   4.724   4.407 -0.5366 -0.0687 -0.1057
  226MOL    H5527505   3.256   4.918   4.448 -1.0054  0.3780 -0.5488
  226MOL    C5627506   3.109   4.753   4.457 -0.2227  0.4946  1.0802
  226MOL    C5727507   3.004   4.826   4.543 -0.4576 -0.0456 -0.1338
  226MOL    F5827508   2.891   4.756   4.558  0.3523 -0.2826  0.6529
  226MOL    H5927509   3.059   4.695   4.379 -1.2292  0.0656  2.0315
  226MOL    H6027510   3.160   4.673   4.512 -0.3172  1.6135  2.8047
  226MOL    H6127511   2.988   4.916   4.482  0.5439  1.0391  1.1694
  226MOL    C6227512   3.058   4.872   4.680  0.1809 -0.7878  1.1812
  226MOL    C6327513   2.951   4.939   4.777  0.6874  0.2140  0.9438
  226MOL    F6427514   3.001   4.952   4.900  0.4074 -0.1954 -0.4777
  226MOL    H6527515   3.094   4.783   4.732 -2.8268 -0.7363  3.4846
  226MOL    H6627516   3.144   4.936   4.666 -0.2092 -0.5757 -0.4604
  226MOL    H6727517   2.861   4.881   4.793 -0.1986  1.3994  0.3332
  226MOL    C6827518   2.890   5.063   4.719 -0.6446 -0.1481  0.0228
  226MOL    C6927519   2.988   5.176   4.699 -0.2154  0.2262  0.3320
  226MOL    F7027520   3.048   5.159   4.582  0.3513  0.3101  0.5418
  226MOL    H7127521   2.835   5.044   4.627 -0.5296 -0.0961 -0.0555
  226MOL    H7227522   2.806   5.088   4.784 -0.7530 -0.5679  0.0486
  226MOL    H7327523   3.059   5.184   4.781 -2.0070  0.2883  1.9024
  226MOL    C7427524   2.909   5.309   4.691 -0.5363 -0.1194  0.4044
  226MOL    C7527525   2.993   5.442   4.689  0.4297 -0.2299  0.1818
  226MOL    F7627526   3.036   5.461   4.576  0.5420 -0.8028  0.1910
  226MOL    H7727527   2.832   5.307   4.614 -1.4737  1.9935  1.2431
  226MOL    H7827528   2.843   5.309   4.778 -0.4223  0.3700  0.4937
  226MOL    H7927529   3.086   5.452   4.745 -0.1180  0.7285  0.9313
  226MOL    C8027530   2.906   5.561   4.715  0.5121 -0.0372  0.5866
  226MOL    C8127531   2.980   5.694   4.726  0.8676  0.0282  0.1349
  226MOL    F8227532   3.053   5.719   4.615  0.2245  0.1822  0.2445
  226MOL    H8327533   2.838   5.577   4.631  0.5791 -0.3258  0.4766
  226MOL    H8427534   2.848   5.555   4.806 -0.9271  1.6827 -0.1998
  226MOL    H8527535   3.040   5.699   4.817 -0.3103 -0.3118  0.9416
  226MOL    C8627536   2.880   5.809   4.734 -0.1612  0.1413  0.7905
  226MOL    C8727537   2.815   5.822   4.874  0.1725  0.5234  0.8493
  226MOL    F8827538   2.906   5.866   4.964  0.1733 -0.1446 -0.0788
  226MOL    H8927539   2.929   5.906   4.729 -1.0678  0.5930  0.6235
  226MOL    H9027540   2.797   5.798   4.665 -1.2212  0.8611  1.9097
  226MOL    H9127541   2.772   5.730   4.914  2.4966 -0.2182  1.7507
  226MOL    C9227542   2.700   5.920   4.875 -0.3330 -0.4679 -0.3955
  226MOL    C9327543   2.561   5.872   4.835  1.2459  0.1826 -0.3878
  226MOL    F9427544   2.529   5.763   4.916  0.1948 -0.1300 -0.2239
  226MOL    H9527545   2.692   5.963   4.975  1.1637 -1.4480  0.1612
  226MOL    H9627546   2.726   6.003   4.810 -3.5731  1.0746  0.1472
  226MOL    H9727547   2.572   5.830   4.735  2.1605 -1.6133  0.4457
  226MOL    C9827548   2.457   5.989   4.847 -0.0955  0.2218  0.0210
  226MOL    C9927549   2.473   6.100   4.740  0.0367 -0.0484  0.4326
  226MOL   F10027550   2.508   6.053   4.620 -0.1834 -0.1921  0.4040
  226MOL   H10127551   2.359   5.948   4.823  0.0922  0.8215 -1.8340
  226MOL   H10227552   2.449   6.041   4.943  0.9463 -0.9566  0.7715
  226MOL   H10327553   2.555   6.161   4.777  0.7052 -1.1609  0.7657
  226MOL   C10427554   2.342   6.169   4.702  0.5946  0.1415 -0.2607
  226MOL   C10527555   2.272   6.230   4.828 -0.5917  0.8930  0.0275
  226MOL   F10627556   2.366   6.302   4.894  0.3779 -0.3059 -0.0355
  226MOL   H10727557   2.363   6.255   4.639 -0.7215  0.3467 -0.4392
  226MOL   H10827558   2.278   6.088   4.666 -1.4323  1.0881  1.1047
  226MOL   H10927559   2.245   6.149   4.896 -0.0468  2.5375  2.2605
  226MOL   C11027560   2.143   6.314   4.800  0.7427 -0.1358  0.5053
  226MOL   C11127561   2.069   6.345   4.931  0.6624 -0.3459  0.2156
  226MOL   F11227562   1.972   6.433   4.895  0.2767 -0.4571 -0.4377
  226MOL   H11327563   2.159   6.412   4.755 -0.1776  0.6899  1.9537
  226MOL   H11427564   2.076   6.264   4.730  2.0375 -1.1264 -0.0569
  226MOL   H11527565   2.143   6.387   5.000  0.0998 -1.2483  1.3914
  226MOL   C11627566   1.998   6.229   4.995 -0.6048  0.3177 -0.1676
  226MOL   C11727567   1.955   6.263   5.140 -0.0805  0.5322  0.2287
  226MOL   F11827568   1.881   6.161   5.190 -0.3451  0.4185  0.5490
  226MOL   H11927569   1.915   6.187   4.938 -0.9019  1.3742 -0.5364
  226MOL   H12027570   2.073   6.151   5.009  0.0456  0.9984  0.2050
  226MOL   H12127571   1.892   6.352   5.153  1.8561  1.8036  1.0640
  226MOL   H12227572   2.037   6.274   5.211 -0.3512 -0.0720  0.6439
  227MOL     C127573   3.124   3.209   6.115  0.8822 -0.3421  0.2903
  227MOL     C227574   3.091   3.249   5.973  0.1374 -0.2606  0.6585
  227MOL     F327575   2.972   3.302   6.000 -0.8104 -0.1662 -0.4245
  227MOL     H427576   3.215   3.149   6.117  0.5490 -0.8506  0.2035
  227MOL     H527577   3.039   3.151   6.151  0.0039  0.2273 -0.8313
  227MOL     H627578   3.076   3.153   5.925  1.5720 -0.6492  0.9494
  227MOL     H727579   3.128   3.299   6.177 -0.2999 -0.2040  0.1730
  227MOL     C827580   3.179   3.351   5.905 -0.1765 -0.1873 -0.0487
  227MOL     C927581   3.145   3.404   5.760 -0.2279 -0.1245  0.5366
  227MOL    F1027582   3.230   3.500   5.719  0.0543 -0.0452  0.4276
  227MOL    H1127583   3.201   3.433   5.973  3.7264  0.6591 -2.2035
  227MOL    H1227584   3.278   3.305   5.895 -0.2895 -0.8659  1.7801
  227MOL    H1327585   3.044   3.444   5.772 -0.9722 -2.1943  1.4138
  227MOL    C1427586   3.134   3.298   5.641 -0.2036  0.0790 -0.0755
  227MOL    C1527587   3.272   3.235   5.608  0.3735  0.2878 -0.6228
  227MOL    F1627588   3.315   3.166   5.713  0.2494  0.1574  0.2147
  227MOL    H1727589   3.071   3.218   5.680  1.4770  0.1276  2.9475
  227MOL    H1827590   3.090   3.348   5.556  2.8767 -1.8587 -2.9128
  227MOL    H1927591   3.350   3.307   5.583 -0.7268  1.9680  0.6409
  227MOL    C2027592   3.269   3.135   5.493  0.0296 -0.1062 -0.0129
  227MOL    C2127593   3.406   3.088   5.443  0.0381 -0.5537  0.2653
  227MOL    F2227594   3.448   3.003   5.531  0.4208 -0.2972 -0.0276
  227MOL    H2327595   3.195   3.058   5.513 -0.6003 -0.1281 -2.2250
  227MOL    H2427596   3.215   3.183   5.411 -0.6727  1.3199  1.2563
  227MOL    H2527597   3.470   3.176   5.442  0.3439 -0.6602  3.3372
  227MOL    C2627598   3.402   3.016   5.305 -0.3730 -0.5112 -0.2822
  227MOL    C2727599   3.382   3.115   5.186 -0.5485  0.6046 -0.5144
  227MOL    F2827600   3.493   3.181   5.179  0.2294  0.1833 -0.2365
  227MOL    H2927601   3.496   2.963   5.290 -0.5793 -1.3195  1.2269
  227MOL    H3027602   3.318   2.946   5.304 -0.7687 -0.0361 -1.3773
  227MOL    H3127603   3.300   3.179   5.216  0.2118  0.9484  0.8734
  227MOL    C3227604   3.345   3.040   5.056  0.3504 -0.4599  0.7085
  227MOL    C3327605   3.226   2.951   5.055  0.7251  0.4305  0.1471
  227MOL    F3427606   3.123   3.019   5.107  0.3450 -0.3335  0.1836
  227MOL    H3527607   3.329   3.113   4.977  1.0497  1.1717  2.0388
  227MOL    H3627608   3.425   2.976   5.019  0.4300 -1.0080  1.7978
  227MOL    H3727609   3.240   2.870   5.127  0.4470 -1.0065 -1.3721
  227MOL    C3827610   3.182   2.899   4.920 -0.1012 -0.6883  0.7576
  227MOL    C3927611   3.091   2.780   4.939 -1.3132  0.0342  0.4572
  227MOL    F4027612   3.153   2.694   5.021 -0.1395  0.0572 -0.4714
  227MOL    H4127613   3.138   2.973   4.853  0.7669 -2.0496 -1.3614
  227MOL    H4227614   3.276   2.863   4.877  0.5085  2.2677 -0.5112
  227MOL    H4327615   3.085   2.742   4.837 -0.5076 -0.4450  0.5831
  227MOL    C4427616   2.953   2.813   4.994  0.1615  0.0834 -0.7298
  227MOL    C4527617   2.875   2.919   4.918  0.4127 -0.5098 -0.8280
  227MOL    F4627618   2.876   2.889   4.791  0.5236 -0.1302  0.5725
  227MOL    H4727619   2.888   2.726   5.001  0.0303  0.1703 -0.8605
  227MOL    H4827620   2.970   2.833   5.100 -0.7258  0.2814 -0.6261
  227MOL    H4927621   2.913   3.019   4.940  0.6365 -1.1163  1.7760
  227MOL    C5027622   2.724   2.912   4.964 -0.7612 -0.1816  0.3408
  227MOL    C5127623   2.688   2.903   5.115 -0.0516 -0.0466 -0.3496
  227MOL    F5227624   2.747   3.002   5.180  0.0008 -0.2674  0.3505
  227MOL    H5327625   2.664   2.993   4.923 -1.9304 -0.8633  0.6557
  227MOL    H5427626   2.673   2.826   4.919  0.4977 -2.2599  2.7929
  227MOL    H5527627   2.725   2.807   5.151  0.2477  0.0350 -0.4321
  227MOL    C5627628   2.534   2.918   5.125  0.6145 -0.6161 -0.1044
  227MOL    C5727629   2.472   2.861   5.249  0.0015 -0.1639 -0.7795
  227MOL    F5827630   2.500   2.731   5.246 -0.2386 -0.0508  0.1831
  227MOL    H5927631   2.514   3.025   5.121  1.4001 -0.4475  0.2430
  227MOL    H6027632   2.487   2.879   5.035 -1.8939 -0.7546  1.2252
  227MOL    H6127633   2.363   2.865   5.256  0.0935 -1.0366  1.4263
  227MOL    C6227634   2.526   2.906   5.385  0.3504  0.3501  0.7296
  227MOL    C6327635   2.443   2.862   5.512  0.2344  1.1065 -0.8357
  227MOL    F6427636   2.431   2.729   5.501 -0.0668  0.0022 -0.3137
  227MOL    H6527637   2.628   2.869   5.390 -0.2878 -1.6521 -0.5436
  227MOL    H6627638   2.539   3.015   5.383 -0.6578  0.4672 -0.2689
  227MOL    H6727639   2.342   2.899   5.500 -0.8463 -1.3811  0.2244
  227MOL    C6827640   2.501   2.906   5.649  0.1008  0.4326  1.4219
  227MOL    C6927641   2.653   2.867   5.679 -0.4557 -0.1834  0.6007
  227MOL    F7027642   2.742   2.915   5.587  0.0089  0.0025 -0.1547
  227MOL    H7127643   2.497   3.015   5.653 -1.0340  0.4976 -0.8582
  227MOL    H7227644   2.427   2.861   5.716 -1.5502 -1.1525 -1.4052
  227MOL    H7327645   2.658   2.758   5.667  0.2322 -0.2343  1.2558
  227MOL    C7427646   2.694   2.912   5.820 -0.5329  0.0961 -0.4570
  227MOL    C7527647   2.799   2.829   5.901 -0.4095 -0.0746  0.2494
  227MOL    F7627648   2.840   2.899   6.009 -0.0166  0.1065 -0.3916
  227MOL    H7727649   2.728   3.015   5.806 -0.8936  0.9000  3.7141
  227MOL    H7827650   2.606   2.923   5.884  1.0921  0.7061  1.7515
  227MOL    H7927651   2.887   2.822   5.837 -0.0262 -1.5266  0.9048
  227MOL    C8027652   2.746   2.693   5.956  0.7312  0.3923  0.2749
  227MOL    C8127653   2.865   2.615   6.022 -0.4359  0.4750  0.2987
  227MOL    F8227654   2.804   2.499   6.056  0.0054 -0.5988  0.1371
  227MOL    H8327655   2.663   2.709   6.024 -0.8368 -1.7932 -1.0539
  227MOL    H8427656   2.697   2.639   5.875 -1.1296  1.8283  0.4017
  227MOL    H8527657   2.893   2.669   6.113  3.8512 -2.3574  0.8320
  227MOL    C8627658   2.990   2.577   5.938 -0.8658  0.1988 -0.5718
  227MOL    C8727659   2.973   2.470   5.830  0.1539  0.1069 -0.8561
  227MOL    F8827660   2.886   2.513   5.737 -0.6133  0.0710  0.5261
  227MOL    H8927661   3.039   2.665   5.896 -0.3094  0.0557 -0.2215
  227MOL    H9027662   3.066   2.529   5.999  0.3636 -0.2533 -2.4060
  227MOL    H9127663   2.931   2.378   5.871 -0.1485  1.0775  1.0701
  227MOL    C9227664   3.104   2.431   5.758 -0.3389  0.3374 -0.4132
  227MOL    C9327665   3.094   2.287   5.700 -0.1101 -0.9482  0.8903
  227MOL    F9427666   2.990   2.288   5.618 -0.1642  0.2299  0.0480
  227MOL    H9527667   3.113   2.514   5.688  0.1796 -0.3990 -1.2383
  227MOL    H9627668   3.190   2.432   5.824 -0.3812  0.7030 -0.3605
  227MOL    H9727669   3.059   2.231   5.786 -1.0534  0.6175  1.5542
  227MOL    C9827670   3.221   2.245   5.628  0.6471 -0.2938 -0.3057
  227MOL    C9927671   3.231   2.101   5.591 -0.3429 -0.1181 -0.1532
  227MOL   F10027672   3.146   2.080   5.493 -0.0378  0.0442  0.5214
  227MOL   H10127673   3.247   2.312   5.546  0.8966  0.1771  0.1603
  227MOL   H10227674   3.306   2.260   5.694  0.3731  0.0571 -0.0363
  227MOL   H10327675   3.189   2.042   5.671  1.6477  1.0980  1.8508
  227MOL   C10427676   3.373   2.056   5.551  0.6979  0.0499  0.2908
  227MOL   C10527677   3.384   1.904   5.559 -0.4556 -0.5068  0.1313
  227MOL   F10627678   3.359   1.870   5.684  0.8841  0.3488 -0.0733
  227MOL   H10727679   3.409   2.104   5.459  1.7651  1.5586  1.4705
  227MOL   H10827680   3.443   2.100   5.622 -2.6317  1.5016  2.7823
  227MOL   H10927681   3.487   1.876   5.535 -0.6704  0.5325 -2.1587
  227MOL   C11027682   3.302   1.827   5.449 -0.0559  0.0070 -1.0060
  227MOL   C11127683   3.342   1.861   5.303  0.1926  0.0940 -0.0726
  227MOL   F11227684   3.473   1.830   5.296  0.2622 -0.2233  0.1346
  227MOL   H11327685   3.311   1.720   5.468  1.3297  0.4483  0.8994
  227MOL   H11427686   3.194   1.828   5.464  0.0943  0.6752  0.0905
  227MOL   H11527687   3.337   1.969   5.285  1.1136  0.3603  1.2036
  227MOL   C11627688   3.268   1.793   5.187 -0.5135 -0.0488 -1.0469
  227MOL   C11727689   3.329   1.816   5.049 -0.2328  0.3115 -0.3062
  227MOL   F11827690   3.257   1.760   4.949  0.0712  0.1944 -0.3872
  227MOL   H11927691   3.249   1.687   5.201  0.2275 -0.0188  0.2554
  227MOL   H12027692   3.171   1.843   5.179 -1.1602 -1.0810  0.2364
  227MOL   H12127693   3.421   1.758   5.050  0.6409  1.5998 -2.1730
  227MOL   H12227694   3.334   1.916   5.006 -1.7496  0.5580  0.0551
  228MOL     C127695   7.914   5.770   2.088  0.3151  0.0503  0.1388
  228MOL     C227696   0.017   5.728   1.996  0.9771  0.0425 -0.0980
  228MOL     F327697   0.090   5.643   2.060 -0.0104  0.0465 -0.1217
  228MOL     H427698   7.845   5.843   2.045 -2.1722 -0.3770  3.2267
  228MOL     H527699   7.962   5.820   2.172  1.2938 -0.2373 -0.2405
  228MOL     H627700   0.081   5.808   1.962 -0.2957  1.2070  0.1991
  228MOL     H727701   7.848   5.689   2.119  3.1108 -3.2129 -1.9704
  228MOL     C827702   7.971   5.652   1.875  0.1665  0.1149  0.0173
  228MOL     C927703   0.070   5.636   1.769  0.6175  0.4176 -0.8249
  228MOL    F1027704   0.039   5.529   1.692  0.2717 -0.2376 -0.4681
  228MOL    H1127705   7.922   5.562   1.913 -0.8734  0.7135  0.1238
  228MOL    H1227706   7.897   5.712   1.820  0.3264  0.9435  0.6971
  228MOL    H1327707   0.163   5.616   1.823  0.5387  0.9287 -0.4978
  228MOL    C1427708   0.095   5.753   1.678 -0.6377  0.4734 -0.2193
  228MOL    C1527709   0.228   5.736   1.602 -0.6130  0.7224 -0.0434
  228MOL    F1627710   0.241   5.847   1.525 -0.3555  0.1446  0.0300
  228MOL    H1727711   0.013   5.753   1.606  0.0641  0.7172 -1.0211
  228MOL    H1827712   0.101   5.845   1.737 -3.1482  0.2986  0.3875
  228MOL    H1927713   0.212   5.661   1.524 -1.5619  0.5861  0.2789
  228MOL    C2027714   0.351   5.718   1.691  0.1488 -0.5654 -0.4412
  228MOL    C2127715   0.485   5.728   1.620  0.7874 -0.0880 -0.8219
  228MOL    F2227716   0.490   5.629   1.532  0.1182  0.2608 -0.1738
  228MOL    H2327717   0.348   5.790   1.773 -2.5710  0.8007 -1.6975
  228MOL    H2427718   0.346   5.622   1.743  0.1982 -1.0491 -1.3291
  228MOL    H2527719   0.570   5.711   1.687  0.1059  0.5543  0.2293
  228MOL    C2627720   0.522   5.863   1.548  0.1163  0.4518 -0.2397
  228MOL    C2727721   0.667   5.900   1.545 -0.1244 -0.4561 -0.1011
  228MOL    F2827722   0.714   5.791   1.496  0.4338  0.0620  0.7240
  228MOL    H2927723   0.480   5.855   1.447 -0.5083  0.9964 -0.0262
  228MOL    H3027724   0.467   5.934   1.609 -1.1858 -0.8569  0.1573
  228MOL    H3127725   0.709   5.908   1.645  1.6473  1.1081 -0.9239
  228MOL    C3227726   0.703   6.015   1.449 -0.2748 -0.3470 -0.3568
  228MOL    C3327727   0.851   6.034   1.428  0.2472  0.1577  0.5012
  228MOL    F3427728   0.871   6.109   1.313 -0.3864  0.3733  0.1865
  228MOL    H3527729   0.645   6.000   1.358 -0.5080  3.7425 -0.9526
  228MOL    H3627730   0.668   6.108   1.494  2.1845  0.9074 -0.9548
  228MOL    H3727731   0.913   5.946   1.415  1.5781  1.3066 -1.3369
  228MOL    C3827732   0.916   6.107   1.545 -0.5785  1.1016  0.5967
  228MOL    C3927733   1.069   6.128   1.532 -0.2690  0.2245 -0.2217
  228MOL    F4027734   1.092   6.220   1.626  0.0692 -0.1571  0.2711
  228MOL    H4127735   0.858   6.197   1.569 -1.7723  0.4727  0.1041
  228MOL    H4227736   0.900   6.050   1.636  2.4124 -0.7661 -0.0056
  228MOL    H4327737   1.082   6.184   1.439 -0.5057  1.9872  0.7846
  228MOL    C4427738   1.161   6.010   1.560 -0.7083 -0.3012  0.3868
  228MOL    C4527739   1.307   6.032   1.524 -0.0860 -0.0206  0.6983
  228MOL    F4627740   1.316   6.041   1.388  0.2736  0.0953  0.6421
  228MOL    H4727741   1.159   5.996   1.668 -1.8080  3.6288  0.9258
  228MOL    H4827742   1.111   5.923   1.517 -2.0218  0.4094  0.4422
  228MOL    H4927743   1.364   5.943   1.550 -0.5502 -0.4646  0.1983
  228MOL    C5027744   1.370   6.165   1.573 -0.1261 -0.5076  0.3781
  228MOL    C5127745   1.385   6.162   1.728  0.1688 -0.5831  0.1602
  228MOL    F5227746   1.460   6.059   1.756 -0.6753 -0.7388  0.5902
  228MOL    H5327747   1.470   6.173   1.531  0.2666 -2.5369  0.8572
  228MOL    H5427748   1.305   6.250   1.553 -0.6218 -0.2535  2.9020
  228MOL    H5527749   1.307   6.150   1.803  1.3326  0.3485  1.5536
  228MOL    C5627750   1.452   6.281   1.782 -1.0483  0.3552 -0.4683
  228MOL    C5727751   1.375   6.414   1.764 -0.5062  0.4034  0.0966
  228MOL    F5827752   1.319   6.445   1.876 -0.7079 -0.2605  0.5538
  228MOL    H5927753   1.479   6.252   1.883 -1.4420  1.1174 -0.1378
  228MOL    H6027754   1.552   6.289   1.739 -0.7296  0.2271  0.2409
  228MOL    H6127755   1.297   6.414   1.687 -0.7032  1.4657  0.2896
  228MOL    C6227756   1.487   6.526   1.745  0.0818  0.6545  0.4729
  228MOL    C6327757   1.536   6.521   1.600 -1.0442 -0.2882  0.3202
  228MOL    F6427758   1.434   6.533   1.522  0.2162  0.4385  0.5858
  228MOL    H6527759   1.451   6.628   1.763 -0.4366  0.3761  1.0105
  228MOL    H6627760   1.566   6.509   1.817 -1.5026  0.8329  2.2965
  228MOL    H6727761   1.594   6.431   1.578  1.0080  1.0243  0.2424
  228MOL    C6827762   1.625   6.642   1.559 -0.2276 -0.5114  0.0778
  228MOL    C6927763   1.777   6.625   1.583  0.2559 -0.3212 -0.0588
  228MOL    F7027764   1.822   6.503   1.548 -0.4660  0.3287  0.0578
  228MOL    H7127765   1.623   6.657   1.451 -1.9673  1.5494  0.3475
  228MOL    H7227766   1.582   6.732   1.603 -0.0950 -1.0898  1.4119
  228MOL    H7327767   1.796   6.632   1.690  1.5376  1.3194 -0.3840
  228MOL    C7427768   1.855   6.737   1.516  0.4231 -0.7902 -0.0508
  228MOL    C7527769   1.838   6.882   1.563  0.0688  0.0853 -0.5017
  228MOL    F7627770   1.870   6.876   1.692 -0.5935 -0.2232 -0.6802
  228MOL    H7727771   1.962   6.718   1.522  0.7355  0.9865  0.3634
  228MOL    H7827772   1.826   6.737   1.411 -0.9517  2.7770  0.2763
  228MOL    H7927773   1.734   6.911   1.573  0.1332  0.0800  0.2765
  228MOL    C8027774   1.920   6.986   1.503  0.1010 -0.1286 -0.2123
  228MOL    C8127775   1.868   7.037   1.363 -0.1084  0.4589  0.2034
  228MOL    F8227776   1.755   7.101   1.384 -0.1873  0.2257  0.1650
  228MOL    H8327777   1.933   7.074   1.565 -1.3836  0.9459 -1.4037
  228MOL    H8427778   2.021   6.945   1.496  0.3021  0.7420 -2.7465
  228MOL    H8527779   1.835   6.952   1.303 -1.1587  0.6688  0.4663
  228MOL    C8627780   1.966   7.139   1.302  0.6839 -0.1456  0.2779
  228MOL    C8727781   2.103   7.086   1.264  0.4112 -0.8536 -0.2625
  228MOL    F8827782   2.078   6.988   1.177  0.4377 -0.1352 -0.4027
  228MOL    H8927783   1.914   7.171   1.212 -2.2589 -0.6851  1.7300
  228MOL    H9027784   1.978   7.223   1.370  0.8756  0.6446 -0.7187
  228MOL    H9127785   2.151   7.030   1.344  1.4953  2.5016  1.5427
  228MOL    C9227786   2.207   7.182   1.193 -0.0867 -0.8684 -0.3313
  228MOL    C9327787   2.273   7.270   1.298 -0.3126  0.3514  0.2474
  228MOL    F9427788   2.341   7.187   1.380  0.1225 -0.2611  0.2740
  228MOL    H9527789   2.292   7.124   1.159  2.8507  1.6272  2.4105
  228MOL    H9627790   2.183   7.243   1.105  0.6092  3.0510  2.0551
  228MOL    H9727791   2.202   7.337   1.347 -1.1449  1.1649 -2.0171
  228MOL    C9827792   2.367   7.366   1.222  0.1565 -0.0801 -1.2842
  228MOL    C9927793   2.433   7.471   1.313 -0.1761 -0.6267 -0.0338
  228MOL   F10027794   2.510   7.557   1.245 -0.2498 -0.0271 -0.1310
  228MOL   H10127795   2.454   7.312   1.187  0.5562 -0.6136  0.4507
  228MOL   H10227796   2.330   7.415   1.132  1.5573  0.4528 -1.5710
  228MOL   H10327797   2.498   7.428   1.389  2.6063  0.7154 -1.5630
  228MOL   C10427798   2.329   7.566   1.385 -0.4330  0.4263  0.3896
  228MOL   C10527799   2.233   7.638   1.295 -0.8042  0.1499  0.2151
  228MOL   F10627800   2.115   7.577   1.281  0.4711  0.1319 -0.0099
  228MOL   H10727801   2.272   7.511   1.460 -1.8364 -0.7923 -1.5106
  228MOL   H10827802   2.383   7.641   1.442  2.8296 -1.8754  0.4609
  228MOL   H10927803   2.262   7.642   1.190  0.3928  1.5179  0.5774
  228MOL   C11027804   2.209   7.789   1.335 -0.6210 -0.3287  0.2707
  228MOL   C11127805   2.121   7.876   1.242 -0.4596  0.9319  0.2558
  228MOL   F11227806   1.993   7.834   1.248 -0.1499 -0.2075  0.1631
  228MOL   H11327807   2.170   7.787   1.437 -3.1051  0.1274 -0.6450
  228MOL   H11427808   2.306   7.838   1.340 -1.1039  0.6312  0.3505
  228MOL   H11527809   2.143   7.862   1.136 -2.0474  2.1874 -0.2645
  228MOL   C11627810   2.143   0.022   1.278 -0.0149 -0.1064 -0.1672
  228MOL   C11727811   2.077   0.064   1.411  0.5178 -0.8000  0.2041
  228MOL   F11827812   2.048   0.193   1.420  0.1574 -0.0040 -0.1906
  228MOL   H11927813   2.246   0.058   1.274  0.1446 -0.5931 -0.6140
  228MOL   H12027814   2.085   0.067   1.198 -1.4387  1.6419  1.8129
  228MOL   H12127815   2.147   0.036   1.490  2.2077  0.7474 -0.7031
  228MOL   H12227816   1.988   0.002   1.418  0.3226 -0.5689 -0.2346
  229MOL     C127817   0.372   6.552   5.724 -0.0348 -0.4023  0.3667
  229MOL     C227818   0.407   6.461   5.840  0.1510 -0.1002  0.0514
  229MOL     F327819   0.325   6.481   5.942 -0.4220 -0.1103 -0.0153
  229MOL     H427820   0.379   6.656   5.757  0.5912 -0.2172 -0.3449
  229MOL     H527821   0.268   6.533   5.698  0.5918 -1.5653 -1.3953
  229MOL     H627822   0.509   6.481   5.874  0.1660 -1.0831  0.5965
  229MOL     H727823   0.431   6.538   5.634 -2.8605  0.3928 -1.6567
  229MOL     C827824   0.399   6.314   5.808 -0.2527 -0.2313  0.5258
  229MOL     C927825   0.428   6.214   5.928  0.2446 -0.1650  1.1359
  229MOL    F1027826   0.425   6.094   5.872  0.1276 -0.1917 -0.9172
  229MOL    H1127827   0.307   6.288   5.756  0.2622  1.0008 -1.0629
  229MOL    H1227828   0.483   6.290   5.743 -2.3395 -2.3305 -1.5208
  229MOL    H1327829   0.338   6.210   5.989 -0.2580  2.9013  0.6846
  229MOL    C1427830   0.550   6.231   6.021 -0.2241 -0.0802  0.4143
  229MOL    C1527831   0.548   6.135   6.146 -0.4029  0.2521  0.4220
  229MOL    F1627832   0.669   6.141   6.203 -0.0999 -0.2840  0.0243
  229MOL    H1727833   0.636   6.199   5.962 -0.0908 -0.1199  0.6301
  229MOL    H1827834   0.571   6.332   6.058 -0.4716  0.8855 -1.9865
  229MOL    H1927835   0.538   6.035   6.104 -0.0683  0.3936  0.0022
  229MOL    C2027836   0.443   6.158   6.254 -1.0484 -0.2691  0.4035
  229MOL    C2127837   0.438   6.057   6.362  0.5121 -0.0316 -0.5855
  229MOL    F2227838   0.345   6.103   6.452  0.5585 -0.0950  0.0053
  229MOL    H2327839   0.485   6.251   6.292 -2.2575  0.1290  0.7624
  229MOL    H2427840   0.347   6.176   6.205 -0.6620  1.9963  0.4175
  229MOL    H2527841   0.528   6.077   6.421  0.5214 -1.0026 -0.2678
  229MOL    C2627842   0.403   5.916   6.311 -0.3355 -0.5939 -0.3563
  229MOL    C2727843   0.336   5.829   6.409 -0.0063 -0.1668  0.2939
  229MOL    F2827844   0.278   5.730   6.344  0.6283  0.2931  0.1136
  229MOL    H2927845   0.345   5.929   6.219 -0.9130 -2.8568 -0.3461
  229MOL    H3027846   0.492   5.872   6.267  2.2389  3.1232  0.9786
  229MOL    H3127847   0.249   5.886   6.442  0.4250  0.6727  0.0014
  229MOL    C3227848   0.420   5.772   6.523  0.1658  0.1126 -0.1043
  229MOL    C3327849   0.550   5.705   6.478  0.0846 -0.1285  0.3907
  229MOL    F3427850   0.634   5.805   6.454 -0.3726 -0.0863  0.6849
  229MOL    H3527851   0.452   5.838   6.604 -0.4823 -2.0638  1.9771
  229MOL    H3627852   0.345   5.704   6.565 -1.1190  0.6871 -1.4067
  229MOL    H3727853   0.532   5.663   6.379  3.0114  0.1074 -0.2974
  229MOL    C3827854   0.611   5.596   6.569 -0.9804 -0.5346  0.3461
  229MOL    C3927855   0.752   5.558   6.518 -0.7188  0.1171  0.0286
  229MOL    F4027856   0.826   5.647   6.576 -0.0252  0.3320  0.1519
  229MOL    H4127857   0.609   5.621   6.675 -0.5211 -0.5200  0.3532
  229MOL    H4227858   0.542   5.512   6.555 -0.7801 -0.6900  0.2849
  229MOL    H4327859   0.761   5.573   6.410  2.2706 -1.0945  0.0614
  229MOL    C4427860   0.797   5.424   6.556 -0.1561  0.3863 -0.5528
  229MOL    C4527861   0.929   5.377   6.484  0.0189 -0.4857 -0.6667
  229MOL    F4627862   1.027   5.462   6.526 -0.3471 -0.2209 -0.1305
  229MOL    H4727863   0.801   5.405   6.663  1.1170  0.4253 -0.5807
  229MOL    H4827864   0.713   5.369   6.514 -0.6857 -0.2498  1.3034
  229MOL    H4927865   0.932   5.393   6.376  1.7657  2.0158 -0.3000
  229MOL    C5027866   0.978   5.232   6.515  0.1172  0.4590  0.0515
  229MOL    C5127867   1.106   5.174   6.443  0.6969 -0.4114  0.3648
  229MOL    F5227868   1.204   5.265   6.461  0.6474  0.3075  0.6172
  229MOL    H5327869   0.983   5.227   6.623  0.1820  0.3443  0.0430
  229MOL    H5427870   0.894   5.173   6.478 -0.7622  1.3728  0.5868
  229MOL    H5527871   1.089   5.166   6.335 -1.5569 -1.5123  0.7712
  229MOL    C5627872   1.165   5.049   6.508  0.0848  0.1055 -0.0044
  229MOL    C5727873   1.075   4.931   6.473 -0.6521  0.1717  0.0129
  229MOL    F5827874   1.044   4.929   6.342  0.2881 -0.0636 -0.1471
  229MOL    H5927875   1.271   5.038   6.487  0.2256  0.9642  0.2396
  229MOL    H6027876   1.159   5.073   6.614 -2.1112 -2.0118  0.4261
  229MOL    H6127877   0.980   4.962   6.517 -1.9523 -1.2252 -1.7388
  229MOL    C6227878   1.132   4.795   6.519  0.4136 -0.3842  0.1665
  229MOL    C6327879   1.126   4.775   6.668 -0.5666 -0.3227 -0.1284
  229MOL    F6427880   1.006   4.805   6.703  0.2392  0.2898  0.3573
  229MOL    H6527881   1.077   4.710   6.478  2.4379 -1.2309 -0.8965
  229MOL    H6627882   1.236   4.787   6.488  0.5714  0.4578  0.4774
  229MOL    H6727883   1.199   4.837   6.719 -1.5737  1.0379 -0.3107
  229MOL    C6827884   1.163   4.631   6.702  0.1710 -0.0341 -0.2871
  229MOL    C6927885   1.160   4.600   6.854 -1.0093 -0.1001 -0.1076
  229MOL    F7027886   1.211   4.476   6.881  0.1125 -0.2488  0.1058
  229MOL    H7127887   1.090   4.563   6.658  0.0667 -0.6935  0.8540
  229MOL    H7227888   1.259   4.600   6.660 -0.4567  1.8718 -3.1954
  229MOL    H7327889   1.056   4.604   6.886 -0.2427  1.4364  2.3429
  229MOL    C7427890   1.247   4.692   6.950  0.7049  0.1221 -0.2332
  229MOL    C7527891   1.271   4.641   7.098 -0.0976  0.8876  0.3737
  229MOL    F7627892   1.343   4.732   7.160  0.7660 -0.1680 -0.0303
  229MOL    H7727893   1.338   4.711   6.893  0.2444 -0.5966 -1.2278
  229MOL    H7827894   1.198   4.789   6.959  2.1340  1.1029 -2.5047
  229MOL    H7927895   1.326   4.547   7.097 -1.4842  0.0457  1.1196
  229MOL    C8027896   1.146   4.626   7.182  0.6004  0.0470  0.1562
  229MOL    C8127897   1.057   4.748   7.203  1.0142  0.3351 -0.3662
  229MOL    F8227898   0.992   4.775   7.091  0.0610  0.8669 -0.4499
  229MOL    H8327899   1.081   4.547   7.144 -0.0381  0.0552  1.2187
  229MOL    H8427900   1.180   4.597   7.281 -0.3493  3.3457  1.5181
  229MOL    H8527901   1.113   4.840   7.221 -1.5329  1.6286  1.2640
  229MOL    C8627902   0.966   4.731   7.325  0.0171  0.1017  0.5919
  229MOL    C8727903   0.848   4.826   7.322  0.2277  0.7471  0.2555
  229MOL    F8827904   0.774   4.805   7.217  0.4908 -0.2455  0.3721
  229MOL    H8927905   0.924   4.631   7.326 -2.2640  1.0034 -1.0250
  229MOL    H9027906   1.028   4.743   7.414  1.3641  1.3511 -0.4816
  229MOL    H9127907   0.879   4.931   7.317  0.8584  0.5969  0.9404
  229MOL    C9227908   0.767   4.808   7.457  0.5502 -0.4646  0.1428
  229MOL    C9327909   0.839   4.853   7.582 -0.4230 -0.1646 -0.4417
  229MOL    F9427910   0.889   4.977   7.556  0.0698  0.3101 -0.2708
  229MOL    H9527911   0.672   4.860   7.446  0.2330 -1.1517 -0.3624
  229MOL    H9627912   0.754   4.701   7.470  4.9347 -1.0774  0.3891
  229MOL    H9727913   0.921   4.788   7.611 -0.2755 -0.6842 -2.0139
  229MOL    C9827914   0.738   4.861   7.702  0.5498  0.4712  0.2811
  229MOL    C9927915   0.812   4.891   7.844  0.6410 -0.1159 -0.1301
  229MOL   F10027916   0.910   4.799   7.857  0.0660  0.1586  0.3121
  229MOL   H10127917   0.654   4.928   7.691  0.0465  0.1004  1.6699
  229MOL   H10227918   0.694   4.761   7.708 -1.6067  1.3934  0.0444
  229MOL   H10327919   0.750   4.870   7.932  0.0367 -0.3664 -0.6088
  229MOL   C10427920   0.867   5.036   7.861 -0.7823  0.5063 -0.9217
  229MOL   C10527921   0.937   5.070   7.994 -0.2100 -0.3147  0.1515
  229MOL   F10627922   1.014   5.182   7.970  0.2769  0.3316 -0.2198
  229MOL   H10727923   0.943   5.034   7.782  1.4170 -0.6669  1.1544
  229MOL   H10827924   0.792   5.107   7.829  0.6464  1.6868 -1.7077
  229MOL   H10927925   1.009   4.991   0.013 -0.7260 -1.3747 -1.9103
  229MOL   C11027926   0.850   5.084   0.109  0.2450  0.5880 -0.2452
  229MOL   C11127927   0.928   5.088   0.238 -0.3141 -0.4206  0.0097
  229MOL   F11227928   0.846   5.147   0.327  0.2578  0.5104 -0.1243
  229MOL   H11327929   0.792   5.175   0.095 -0.4428  0.1776 -0.0831
  229MOL   H11427930   0.795   4.991   0.120  1.0375  0.3883  2.3000
  229MOL   H11527931   1.010   5.160   0.230  1.2086 -1.9643  1.2804
  229MOL   C11627932   0.983   4.950   0.285  0.1397  0.4521 -0.3018
  229MOL   C11727933   1.077   4.962   0.409  0.1858 -0.3234 -0.2996
  229MOL   F11827934   1.161   4.855   0.405 -0.1604 -0.0800  0.2060
  229MOL   H11927935   0.913   4.872   0.315 -0.8943  2.0327  1.5167
  229MOL   H12027936   1.048   4.905   0.210 -1.2222  0.1683 -1.3440
  229MOL   H12127937   1.012   4.963   0.496 -0.3579 -0.2524 -0.6988
  229MOL   H12227938   1.140   5.051   0.404 -1.1491  0.6245 -0.4684
  230MOL     C127939   2.651   6.428   7.545  0.0700 -0.2857 -0.0320
  230MOL     C227940   2.744   6.386   7.438 -0.0185 -0.3427 -0.0385
  230MOL     F327941   2.713   6.257   7.413  0.0069  0.1648 -0.1903
  230MOL     H427942   2.659   6.533   7.571 -0.6057 -0.1347 -0.4481
  230MOL     H527943   2.655   6.367   7.636  2.0551  0.0177  0.1200
  230MOL     H627944   2.846   6.394   7.474 -0.1003 -1.1663  0.3864
  230MOL     H727945   2.550   6.418   7.507  0.5992 -0.2448 -1.4560
  230MOL     C827946   2.719   6.465   7.309  0.2970  0.1688  0.1335
  230MOL     C927947   2.842   6.458   7.222 -0.9572  0.0565  0.2959
  230MOL    F1027948   2.942   6.523   7.285  0.4339 -0.3114  0.0030
  230MOL    H1127949   2.634   6.415   7.262  0.1325  0.7483 -0.1961
  230MOL    H1227950   2.683   6.567   7.322 -2.0944 -0.9437  2.6118
  230MOL    H1327951   2.817   6.510   7.129  0.9585 -0.3132 -0.4356
  230MOL    C1427952   2.882   6.319   7.182  0.1781 -0.0484 -0.1044
  230MOL    C1527953   2.799   6.229   7.082 -0.4817 -0.5890  0.2224
  230MOL    F1627954   2.777   6.294   6.973  0.4771  0.0751 -0.2446
  230MOL    H1727955   2.985   6.326   7.147 -0.0922  0.2226 -0.8491
  230MOL    H1827956   2.901   6.259   7.271 -2.0854 -0.4147  0.1655
  230MOL    H1927957   2.706   6.211   7.135 -1.1635  1.5702 -0.1876
  230MOL    C2027958   2.868   6.096   7.045 -0.6159 -0.1503 -0.3153
  230MOL    C2127959   2.779   6.010   6.945 -0.3871 -0.5932  0.9698
  230MOL    F2227960   2.739   6.090   6.844  0.0091 -0.1190 -0.3471
  230MOL    H2327961   2.963   6.107   6.992 -0.4011  0.6830  0.2320
  230MOL    H2427962   2.882   6.045   7.140  0.6010 -0.6688 -0.7589
  230MOL    H2527963   2.682   5.988   6.990 -0.7134  1.9391  1.5771
  230MOL    C2627964   2.861   5.888   6.895 -0.3841 -1.0288  0.1843
  230MOL    C2727965   2.786   5.802   6.786 -0.3782  0.3399 -0.6432
  230MOL    F2827966   2.762   5.883   6.681 -0.0776  0.0921  0.1593
  230MOL    H2927967   2.947   5.936   6.847 -1.2109 -0.3887 -0.6827
  230MOL    H3027968   2.899   5.830   6.979  0.1337 -2.6816 -1.1555
  230MOL    H3127969   2.693   5.772   6.834  0.3463 -1.7409 -0.4770
  230MOL    C3227970   2.875   5.691   6.738 -0.9453 -0.7236 -0.5235
  230MOL    C3327971   2.895   5.581   6.839  0.0899  0.4124  0.1189
  230MOL    F3427972   2.772   5.528   6.876  0.2206 -0.1609 -0.6308
  230MOL    H3527973   2.819   5.637   6.662 -1.8121  1.3275 -1.3865
  230MOL    H3627974   2.974   5.729   6.716 -0.3298 -1.7438  0.4408
  230MOL    H3727975   2.943   5.626   6.926  0.4846  2.7129 -1.2359
  230MOL    C3827976   2.964   5.454   6.787  0.4026 -0.1352 -0.8700
  230MOL    C3927977   3.111   5.462   6.739  0.1436 -0.7959  0.1947
  230MOL    F4027978   3.180   5.532   6.832  0.0075  0.3122  0.4115
  230MOL    H4127979   2.954   5.378   6.865 -1.0975  1.4337  0.5160
  230MOL    H4227980   2.906   5.414   6.704  0.3538 -1.0851 -0.3892
  230MOL    H4327981   3.123   5.524   6.650  1.4329 -2.4599 -0.8160
  230MOL    C4427982   3.173   5.330   6.699  0.0627  0.3141  0.8111
  230MOL    C4527983   3.328   5.342   6.663  0.6093 -0.3124  0.0077
  230MOL    F4627984   3.363   5.219   6.638 -0.0310  0.1288  0.0410
  230MOL    H4727985   3.159   5.265   6.786 -0.1150 -0.9386 -0.1390
  230MOL    H4827986   3.123   5.291   6.610 -0.5639 -0.9631  1.7043
  230MOL    H4927987   3.377   5.393   6.745 -2.3172 -0.9992  2.2655
  230MOL    C5027988   3.370   5.422   6.540  0.0814 -0.2746 -0.0507
  230MOL    C5127989   3.305   5.385   6.409  0.2676 -0.1920  0.5020
  230MOL    F5227990   3.176   5.413   6.409  0.0688  0.1346  0.2593
  230MOL    H5327991   3.354   5.529   6.554 -0.8086 -0.0672 -2.3494
  230MOL    H5427992   3.478   5.410   6.530  0.0655 -0.7617  0.3267
  230MOL    H5527993   3.311   5.281   6.378 -0.5446  0.3014 -1.4360
  230MOL    C5627994   3.365   5.472   6.301 -0.3804  0.6909 -0.6272
  230MOL    C5727995   3.335   5.445   6.157  0.0325 -0.1580  0.7561
  230MOL    F5827996   3.205   5.440   6.149  0.3500 -0.0518  0.2666
  230MOL    H5927997   3.337   5.576   6.317 -1.0472  0.2525  1.1186
  230MOL    H6027998   3.474   5.481   6.310 -0.4770  1.9266 -0.6145
  230MOL    H6127999   3.395   5.358   6.129 -0.0197 -0.5618  1.8757
  230MOL    C6228000   3.370   5.559   6.059 -0.0161  0.7991  0.5701
  230MOL    C6328001   3.520   5.575   6.038 -0.6553  0.0392  0.5311
  230MOL    F6428002   3.552   5.469   5.966  0.2924  0.7640  0.4362
  230MOL    H6528003   3.319   5.553   5.963 -0.8990 -0.7131  1.1278
  230MOL    H6628004   3.335   5.654   6.099 -2.0707  1.0814 -1.8030
  230MOL    H6728005   3.584   5.568   6.126  1.1490  0.9800 -0.6888
  230MOL    C6828006   3.563   5.703   5.958  0.3283 -0.1432 -0.4535
  230MOL    C6928007   3.522   5.706   5.809 -0.1187  0.1858 -0.0571
  230MOL    F7028008   3.392   5.695   5.792  0.5342  0.6451 -0.1544
  230MOL    H7128009   3.527   5.788   6.016 -0.4136 -0.6602 -0.1465
  230MOL    H7228010   3.671   5.712   5.953  0.3205  0.1181 -0.1261
  230MOL    H7328011   3.562   5.621   5.755  0.1052  0.3931 -0.2214
  230MOL    C7428012   3.572   5.827   5.731 -0.5285  0.0509 -0.9252
  230MOL    C7528013   3.540   5.833   5.585  0.1342  0.4029  0.1280
  230MOL    F7628014   3.576   5.957   5.536  0.1170 -0.0399 -0.2356
  230MOL    H7728015   3.537   5.910   5.793 -1.9625 -1.7196  0.7183
  230MOL    H7828016   3.679   5.843   5.746 -0.3677  0.1054 -2.0732
  230MOL    H7928017   3.438   5.802   5.563 -0.2071  2.9767 -2.2949
  230MOL    C8028018   3.639   5.751   5.499  0.4064 -0.2568  0.2294
  230MOL    C8128019   3.613   5.763   5.349  0.3401  0.1967  0.5346
  230MOL    F8228020   3.728   5.744   5.287 -0.2586  0.5146 -0.6141
  230MOL    H8328021   3.741   5.774   5.527  0.6611 -1.4187  0.2806
  230MOL    H8428022   3.630   5.645   5.523 -2.3352  0.3956  2.3685
  230MOL    H8528023   3.593   5.868   5.328  1.0423 -0.1893 -2.2564
  230MOL    C8628024   3.510   5.654   5.304 -0.4997  0.2496  0.1580
  230MOL    C8728025   3.502   5.640   5.150  0.2704 -0.2803 -0.4314
  230MOL    F8828026   3.426   5.531   5.126  0.1794 -0.0859 -0.3067
  230MOL    H8928027   3.539   5.553   5.335 -0.3121  0.6006  1.1268
  230MOL    H9028028   3.416   5.685   5.348 -1.2951 -0.1232 -1.2414
  230MOL    H9128029   3.604   5.628   5.113  1.1189  1.5831  1.2321
  230MOL    C9228030   3.444   5.766   5.076 -0.4183  0.7527 -0.0180
  230MOL    C9328031   3.401   5.752   4.931 -0.7592  0.4478  0.0696
  230MOL    F9428032   3.314   5.648   4.914  0.2944 -0.1686 -0.2266
  230MOL    H9528033   3.358   5.800   5.132 -0.0734 -1.3710  1.9007
  230MOL    H9628034   3.527   5.836   5.089 -0.4244  0.7241  0.1767
  230MOL    H9728035   3.495   5.721   4.885  0.2946  1.0101  1.8159
  230MOL    C9828036   3.346   5.877   4.868  0.2550 -0.0134  0.1574
  230MOL    C9928037   3.444   5.993   4.845 -0.4037  0.1725 -0.1846
  230MOL   F10028038   3.530   5.954   4.752 -0.2774 -0.0797  0.5140
  230MOL   H10128039   3.302   5.845   4.774 -0.6164 -1.3026  0.9849
  230MOL   H10228040   3.269   5.922   4.930  0.1226 -0.5987  0.4237
  230MOL   H10328041   3.509   5.993   4.932  0.9683 -0.1845 -1.2052
  230MOL   C10428042   3.370   6.116   4.798 -0.0327  0.3068  0.0866
  230MOL   C10528043   3.467   6.239   4.766  0.6116  0.8292 -0.3626
  230MOL   F10628044   3.387   6.340   4.729 -0.9785 -0.0046 -0.6962
  230MOL   H10728045   3.324   6.079   4.707 -0.3734  1.8187 -0.3699
  230MOL   H10828046   3.291   6.148   4.866 -0.1660  2.3727 -0.9842
  230MOL   H10928047   3.524   6.221   4.674  0.3385  1.1291 -0.5926
  230MOL   C11028048   3.565   6.279   4.886 -0.0577 -0.1646 -0.4088
  230MOL   C11128049   3.490   6.340   5.003 -0.2450  0.3927 -0.4046
  230MOL   F11228050   3.495   6.243   5.090  0.5295 -0.1560 -0.0001
  230MOL   H11328051   3.631   6.198   4.918 -0.4577 -0.0750  0.6758
  230MOL   H11428052   3.631   6.357   4.849 -1.4622  0.7432 -1.0388
  230MOL   H11528053   3.388   6.360   4.970  0.5169  0.4603 -2.8652
  230MOL   C11628054   3.545   6.480   5.044 -0.6332 -0.0630  0.5573
  230MOL   C11728055   3.446   6.552   5.140 -0.0141 -0.7170  0.0498
  230MOL   F11828056   3.331   6.571   5.076 -0.3822 -0.4341 -0.0552
  230MOL   H11928057   3.646   6.474   5.085 -0.1286  2.0075 -0.3390
  230MOL   H12028058   3.546   6.542   4.954 -2.1849 -0.5625  0.1754
  230MOL   H12128059   3.481   6.651   5.168 -0.7544 -0.7765  1.2408
  230MOL   H12228060   3.427   6.503   5.236  1.0648  0.2516  0.7643
  231MOL     C128061   0.425   0.300   1.093 -0.7695  0.3567  0.2793
  231MOL     C228062   0.568   0.289   1.053 -0.4376  0.9289 -0.0922
  231MOL     F328063   0.645   0.323   1.158 -0.5320 -0.3319  0.2087
  231MOL     H428064   0.421   0.239   1.183 -4.3373  1.9593  1.2799
  231MOL     H528065   0.351   0.265   1.022  0.5485  2.4084 -2.2175
  231MOL     H628066   0.601   0.341   0.963  1.8869  0.5103  0.4848
  231MOL     H728067   0.404   0.402   1.128 -0.1767  0.3923  0.5345
  231MOL     C828068   0.591   0.141   1.020 -0.1197 -0.2214  0.6947
  231MOL     C928069   0.726   0.090   0.963  0.7528  0.0322  0.0863
  231MOL    F1028070   0.813   0.118   1.061  0.5048  0.2512 -0.5008
  231MOL    H1128071   0.581   0.070   1.102  1.6328  0.4713  1.5292
  231MOL    H1228072   0.516   0.108   0.947 -0.7237  5.1054 -1.3084
  231MOL    H1328073   0.745   0.160   0.881 -2.0321  0.3479 -0.3292
  231MOL    C1428074   0.749   7.951   0.913 -0.1040 -0.1662  0.3687
  231MOL    C1528075   0.883   7.932   0.841 -0.2449  0.2666 -0.0851
  231MOL    F1628076   0.986   7.954   0.919  0.2673 -0.1214 -0.2493
  231MOL    H1728077   0.740   7.881   0.996  1.4160 -2.4246 -1.3028
  231MOL    H1828078   0.670   7.918   0.845 -1.8697  1.8077  1.3926
  231MOL    H1928079   0.882   7.994   0.751  0.5271  0.5395  0.0910
  231MOL    C2028080   0.912   7.787   0.804  0.5571 -0.6572  0.4206
  231MOL    C2128081   1.039   7.745   0.729  0.2153  0.2107 -0.4506
  231MOL    F2228082   1.044   7.610   0.729  0.3389  0.8264  0.8081
  231MOL    H2328083   0.897   7.737   0.900  0.2284  0.7340  1.1153
  231MOL    H2428084   0.825   7.756   0.747 -0.9785 -0.2397  2.4501
  231MOL    H2528085   1.124   7.776   0.790 -1.1525  0.1767  1.5024
  231MOL    C2628086   1.054   7.819   0.592 -0.0817  0.3587 -0.3632
  231MOL    C2728087   1.156   7.752   0.499  0.1334  0.3186 -0.3307
  231MOL    F2828088   1.128   7.782   0.367 -0.2119 -0.1952  0.0661
  231MOL    H2928089   0.957   7.812   0.543 -0.0648 -1.8273 -0.1154
  231MOL    H3028090   1.060   7.926   0.612  4.0165 -0.0699  1.0886
  231MOL    H3128091   1.136   7.647   0.517  0.7051  0.2787  0.0723
  231MOL    C3228092   1.302   7.786   0.525  0.3835  0.5236  0.7764
  231MOL    C3328093   1.407   7.683   0.460  0.3129 -0.3866 -0.0778
  231MOL    F3428094   1.529   7.731   0.449  0.1129 -0.0278 -0.4143
  231MOL    H3528095   1.321   7.882   0.476 -2.9906  1.0437  0.3803
  231MOL    H3628096   1.318   7.805   0.631 -0.8022  0.6135  0.9387
  231MOL    H3728097   1.370   7.641   0.366  0.2860 -2.2523  0.7466
  231MOL    C3828098   1.423   7.558   0.560 -0.1561 -0.3535  0.0822
  231MOL    C3928099   1.523   7.444   0.516 -0.2696  0.5358 -0.4017
  231MOL    F4028100   1.479   7.388   0.401 -0.0153  0.0441  0.9151
  231MOL    H4128101   1.464   7.599   0.652  2.5571 -0.2591 -1.1220
  231MOL    H4228102   1.329   7.511   0.588 -0.8202  1.3639  0.7812
  231MOL    H4328103   1.520   7.369   0.594  0.0445 -0.0449 -0.9471
  231MOL    C4428104   1.671   7.483   0.483 -0.5663  0.2788 -0.3512
  231MOL    C4528105   1.769   7.363   0.475  0.7779 -0.4315  0.5701
  231MOL    F4628106   1.783   7.280   0.582 -0.0972 -0.3467 -0.5581
  231MOL    H4728107   1.677   7.546   0.393 -1.0671 -0.1452 -0.6860
  231MOL    H4828108   1.699   7.556   0.559  0.6136  0.0380 -0.5470
  231MOL    H4928109   1.867   7.408   0.458  0.0935  0.2348 -1.8044
  231MOL    C5028110   1.744   7.269   0.351 -0.1527 -0.2376 -0.1953
  231MOL    C5128111   1.756   7.349   0.213  0.4368 -0.0518  0.5138
  231MOL    F5228112   1.888   7.380   0.193  0.4935  0.0498 -0.6945
  231MOL    H5328113   1.828   7.201   0.340  0.9726  1.0773  0.0675
  231MOL    H5428114   1.648   7.217   0.356 -0.9879  1.3292  0.6568
  231MOL    H5528115   1.713   7.449   0.218 -1.0117 -0.5678 -1.1720
  231MOL    C5628116   1.695   7.267   0.096  0.0313  0.0205  0.4763
  231MOL    C5728117   1.541   7.250   0.101  0.0828 -0.3429 -0.0549
  231MOL    F5828118   1.487   7.374   0.088 -0.0855  0.3477  0.3715
  231MOL    H5928119   1.708   7.330   0.007 -1.9465  2.9992  2.2010
  231MOL    H6028120   1.747   7.171   0.091  2.7846  1.5091 -0.8807
  231MOL    H6128121   1.511   7.212   0.198 -2.6663 -1.1139 -1.1383
  231MOL    C6228122   1.495   7.149   7.997 -0.8988  0.1616 -0.4851
  231MOL    C6328123   1.342   7.126   7.993 -0.6325  0.5333  0.5673
  231MOL    F6428124   1.307   7.235   7.919  0.2062  0.5872  0.0127
  231MOL    H6528125   1.520   7.184   7.897 -2.7775 -0.0606 -1.0552
  231MOL    H6628126   1.550   7.056   0.011 -0.0275  1.0351  1.5872
  231MOL    H6728127   1.285   7.134   0.082 -0.3774  0.9457  0.6876
  231MOL    C6828128   1.304   7.002   7.912  0.0581 -0.0359  0.3459
  231MOL    C6928129   1.295   6.871   7.988  0.0178  0.0985  0.0540
  231MOL    F7028130   1.207   6.882   0.084  0.1785  0.4262  0.0342
  231MOL    H7128131   1.201   7.022   7.884  0.1488 -0.3571 -0.2214
  231MOL    H7228132   1.370   7.000   7.825  0.7448  0.1796  0.8548
  231MOL    H7328133   1.388   6.855   0.040  0.9809 -0.7301 -1.7523
  231MOL    C7428134   1.249   6.747   7.912 -1.4796  0.2415  0.3814
  231MOL    C7528135   1.340   6.711   7.793  0.1485  0.4208 -0.3317
  231MOL    F7628136   1.461   6.688   7.838 -0.5727  0.5522  0.3073
  231MOL    H7728137   1.249   6.674   7.993  0.1281 -1.5014 -1.1389
  231MOL    H7828138   1.148   6.754   7.871 -1.1080  2.1888 -0.2555
  231MOL    H7928139   1.340   6.785   7.713 -2.0072 -0.1541 -0.8969
  231MOL    C8028140   1.293   6.577   7.731  0.3612  0.3258 -0.9175
  231MOL    C8128141   1.150   6.580   7.659 -0.1397 -0.2514 -0.0913
  231MOL    F8228142   1.167   6.665   7.556  0.3015 -0.7878  0.4808
  231MOL    H8328143   1.367   6.535   7.662  0.0375 -1.6937 -0.0587
  231MOL    H8428144   1.274   6.506   7.811  2.1289 -0.0852 -0.8447
  231MOL    H8528145   1.073   6.621   7.725 -0.1521 -0.2655 -0.0971
  231MOL    C8628146   1.113   6.437   7.616  0.5263  0.2106 -0.2091
  231MOL    C8728147   0.973   6.424   7.565 -0.2387  0.1707  0.1133
  231MOL    F8828148   0.960   6.494   7.447  0.5716  0.1361 -0.5457
  231MOL    H8928149   1.181   6.409   7.536 -1.0525 -3.5229 -0.3460
  231MOL    H9028150   1.137   6.363   7.693  1.6611 -0.4898 -1.2105
  231MOL    H9128151   0.914   6.475   7.641  0.6334 -1.7925  2.1750
  231MOL    C9228152   0.913   6.277   7.547 -0.3993  0.0802  0.2729
  231MOL    C9328153   1.010   6.165   7.490 -0.1149  0.0751  0.2277
  231MOL    F9428154   1.106   6.143   7.578 -0.1647 -0.2019 -0.1274
  231MOL    H9528155   0.875   6.246   7.644  0.7779  2.5976  1.6013
  231MOL    H9628156   0.830   6.286   7.476 -0.8153 -1.0910  0.6058
  231MOL    H9728157   1.053   6.214   7.402  1.8443  0.8227  1.5789
  231MOL    C9828158   0.933   6.034   7.454 -0.5133 -0.2458 -0.0114
  231MOL    C9928159   0.873   5.959   7.567  0.2984 -0.5014  0.1518
  231MOL   F10028160   0.774   6.027   7.615 -0.1234  0.2010  0.5767
  231MOL   H10128161   0.854   6.041   7.378  1.1340  2.5065 -1.5704
  231MOL   H10228162   1.008   5.973   7.403 -1.6415 -1.3930 -0.3258
  231MOL   H10328163   0.955   5.949   7.638 -0.2098 -0.3607  0.7636
  231MOL   C10428164   0.825   5.811   7.530 -1.2348  0.1737  0.1106
  231MOL   C10528165   0.740   5.741   7.641  0.1547  0.2764  0.8968
  231MOL   F10628166   0.625   5.806   7.653  0.3433 -0.2366 -0.5768
  231MOL   H10728167   0.761   5.815   7.442 -1.5344  0.1680  0.3231
  231MOL   H10828168   0.915   5.752   7.515 -2.1962 -1.5717  0.8707
  231MOL   H10928169   0.803   5.744   7.730  1.5105 -1.4248  0.0287
  231MOL   C11028170   0.713   5.589   7.613 -0.3063 -0.0870 -0.1826
  231MOL   C11128171   0.664   5.525   7.739 -0.1696  0.0587 -0.3441
  231MOL   F11228172   0.555   5.573   7.791 -0.0258  0.5898 -0.0028
  231MOL   H11328173   0.638   5.592   7.534 -2.1399  0.5197  1.5477
  231MOL   H11428174   0.797   5.541   7.563  1.8696  2.7381  0.5867
  231MOL   H11528175   0.733   5.524   7.823  0.6053  0.2858 -0.9692
  231MOL   C11628176   0.629   5.371   7.711  0.5154 -0.5783 -0.1022
  231MOL   C11728177   0.588   5.299   7.837  0.5338  0.4740 -0.0364
  231MOL   F11828178   0.550   5.176   7.802 -0.2413  0.6952  0.4347
  231MOL   H11928179   0.546   5.370   7.641  0.0510  1.8927  0.3713
  231MOL   H12028180   0.709   5.320   7.657  0.1591 -0.0383 -1.1460
  231MOL   H12128181   0.506   5.348   7.889  2.1711  1.6337  1.5063
  231MOL   H12228182   0.672   5.286   7.905  2.4934  1.1275 -2.2874
  232MOL     C128183   0.153   2.857   1.876 -0.5387 -0.1159  0.9600
  232MOL     C228184   0.135   2.901   1.726 -0.5528 -0.1567  0.2821
  232MOL     F328185   0.209   2.810   1.669  0.2175  0.5161 -0.1900
  232MOL     H428186   0.130   2.932   1.951 -3.8562  0.4845 -0.5708
  232MOL     H528187   0.254   2.827   1.903 -0.2990  0.9491  1.2979
  232MOL     H628188   0.191   2.994   1.711  2.4975 -1.6903  1.7848
  232MOL     H728189   0.084   2.776   1.897 -1.1849  0.2747  0.3647
  232MOL     C828190   7.995   2.905   1.677 -0.0557 -0.0929  0.6459
  232MOL     C928191   7.977   2.957   1.536 -0.3364  0.6689  0.6022
  232MOL    F1028192   0.029   2.872   1.448  0.1787 -0.3267  0.3946
  232MOL    H1128193   7.944   2.813   1.705  1.7539 -0.2419  3.7014
  232MOL    H1228194   7.941   2.971   1.745  0.3715 -0.3734  1.2737
  232MOL    H1328195   0.024   3.053   1.522 -1.6380  1.2518 -0.1256
  232MOL    C1428196   7.833   2.980   1.496  0.3891 -0.5101  0.0371
  232MOL    C1528197   7.754   2.854   1.461  0.7958 -0.2850 -0.1930
  232MOL    F1628198   7.730   2.787   1.573  0.4925  0.0268  0.0070
  232MOL    H1728199   7.776   3.049   1.558  0.1773  0.4155 -1.1746
  232MOL    H1828200   7.848   3.027   1.399  0.4811 -0.0995  0.2501
  232MOL    H1928201   7.796   2.775   1.398  2.8056 -0.3080  1.1453
  232MOL    C2028202   7.623   2.895   1.397 -0.1749  0.1411 -0.4738
  232MOL    C2128203   7.529   2.778   1.354  0.8639 -0.3153 -0.0991
  232MOL    F2228204   7.411   2.823   1.325  0.0107  0.1919 -0.1014
  232MOL    H2328205   7.574   2.961   1.469 -1.4423  1.6969 -2.7046
  232MOL    H2428206   7.639   2.961   1.312  1.0099  2.2219  1.3064
  232MOL    H2528207   7.514   2.708   1.437 -1.5186  0.3661  0.0761
  232MOL    C2628208   7.569   2.694   1.235  0.2407 -0.2861 -0.0669
  232MOL    C2728209   7.497   2.562   1.207  0.6614 -0.2636  0.1850
  232MOL    F2828210   7.376   2.583   1.161  0.1590  0.4057  0.0425
  232MOL    H2928211   7.542   2.752   1.146 -1.4895  0.0148  0.6325
  232MOL    H3028212   7.675   2.669   1.233 -0.1758 -2.1007  0.0299
  232MOL    H3128213   7.486   2.512   1.303 -0.8133 -1.7012 -0.7043
  232MOL    C3228214   7.572   2.463   1.114 -0.0285 -0.3028  0.4880
  232MOL    C3328215   7.522   2.319   1.100  0.6568 -0.3156 -0.4919
  232MOL    F3428216   7.569   2.267   0.986 -0.2396 -0.1268  0.1674
  232MOL    H3528217   7.579   2.524   1.024  2.3871  0.8616  1.4137
  232MOL    H3628218   7.672   2.459   1.156  0.6793  0.8574 -1.0222
  232MOL    H3728219   7.414   2.311   1.092  0.4035  0.0491  2.2056
  232MOL    C3828220   7.573   2.231   1.214 -0.4961 -0.2587 -0.8171
  232MOL    C3928221   7.497   2.232   1.346  0.4000  0.1523 -0.8638
  232MOL    F4028222   7.367   2.246   1.326 -0.3613 -0.0885 -0.2246
  232MOL    H4128223   7.583   2.130   1.175  2.8188 -0.1018 -0.4690
  232MOL    H4228224   7.678   2.258   1.229 -0.8170 -0.3785  1.8867
  232MOL    H4328225   7.529   2.311   1.414  2.2719 -0.8672 -0.5316
  232MOL    C4428226   7.512   2.104   1.440 -0.1967  0.5691 -0.7628
  232MOL    C4528227   7.509   2.133   1.591  0.3509  0.2382  0.2549
  232MOL    F4628228   7.397   2.197   1.625 -0.2519  0.0876  0.1998
  232MOL    H4728229   7.444   2.020   1.425 -0.2304  0.5969 -0.7635
  232MOL    H4828230   7.608   2.058   1.414 -1.2243 -1.3690 -1.2299
  232MOL    H4928231   7.596   2.193   1.617  1.1965  0.5051 -2.9812
  232MOL    C5028232   7.508   2.005   1.660  0.6313  0.0194  0.0203
  232MOL    C5128233   7.519   2.021   1.810 -0.3748 -0.4823  0.0623
  232MOL    F5228234   7.495   1.904   1.875  0.0753 -0.0995 -0.0928
  232MOL    H5328235   7.429   1.935   1.632  1.8192 -1.3710  0.0760
  232MOL    H5428236   7.596   1.949   1.628  0.6645 -0.5254  1.0450
  232MOL    H5528237   7.440   2.087   1.846  0.3024 -0.0158  0.7319
  232MOL    C5628238   7.652   2.078   1.871  1.1403  0.0456 -0.2848
  232MOL    C5728239   7.778   1.999   1.837 -0.5163 -0.0659 -0.1274
  232MOL    F5828240   7.804   2.006   1.711 -0.1516 -0.2988 -0.0223
  232MOL    H5928241   7.662   2.183   1.845  0.3227  0.8427  2.4318
  232MOL    H6028242   7.630   2.067   1.978  1.4024  0.7201 -0.1614
  232MOL    H6128243   7.774   1.894   1.867  0.0572 -0.0212  0.1062
  232MOL    C6228244   7.904   2.057   1.912 -0.0446 -0.0245  0.3879
  232MOL    C6328245   0.032   1.995   1.864 -0.1408  0.1580 -0.0967
  232MOL    F6428246   0.119   2.085   1.918 -0.2530 -0.3326 -0.5569
  232MOL    H6528247   7.904   2.165   1.900 -1.8556  0.0396  0.9105
  232MOL    H6628248   7.898   2.044   2.020  2.2303 -0.0833  0.5471
  232MOL    H6728249   0.045   1.993   1.755  0.5034 -3.0699  0.0053
  232MOL    C6828250   0.073   1.850   1.907 -0.0037 -0.6802 -0.5129
  232MOL    C6928251   0.195   1.796   1.844 -0.1396  0.1733 -0.0375
  232MOL    F7028252   0.226   1.683   1.903  0.1726  0.3098  0.0600
  232MOL    H7128253   0.079   1.832   2.014 -2.9690 -2.9930 -0.6806
  232MOL    H7228254   8.002   1.775   1.880 -0.2330 -0.7540  0.3256
  232MOL    H7328255   0.282   1.860   1.852  0.2804 -0.2731 -0.9344
  232MOL    C7428256   0.178   1.758   1.687  0.3146 -0.0778 -0.1438
  232MOL    C7528257   0.297   1.698   1.610  0.1750 -0.2709 -0.0707
  232MOL    F7628258   0.409   1.750   1.648  0.2447 -0.0716  0.3347
  232MOL    H7728259   0.080   1.714   1.668  0.2715  0.3641 -0.9863
  232MOL    H7828260   0.165   1.855   1.639 -0.7643  0.6043  1.4805
  232MOL    H7928261   0.288   1.731   1.506 -1.8354 -1.7215 -0.3788
  232MOL    C8028262   0.311   1.547   1.621 -0.2020 -0.2248  0.6056
  232MOL    C8128263   0.184   1.475   1.568 -0.1889 -0.0091 -0.1927
  232MOL    F8228264   0.143   1.525   1.451 -0.3168  0.4426  0.1946
  232MOL    H8328265   0.396   1.512   1.561 -0.1921  0.6603  0.0954
  232MOL    H8428266   0.350   1.517   1.718  2.3142 -0.3349 -0.3844
  232MOL    H8528267   0.115   1.503   1.647  0.9230 -0.2178  0.8625
  232MOL    C8628268   0.213   1.322   1.556 -0.4729 -0.4100  0.4294
  232MOL    C8728269   0.089   1.233   1.562 -0.3767  0.3395  0.4248
  232MOL    F8828270   0.027   1.283   1.666 -0.4394  0.2263  0.3005
  232MOL    H8928271   0.266   1.300   1.463 -0.5611 -0.7389  0.4559
  232MOL    H9028272   0.275   1.284   1.637  2.8242  3.8322  0.0500
  232MOL    H9128273   0.116   1.128   1.576  1.3854  0.5771 -0.9233
  232MOL    C9228274   7.994   1.239   1.443  1.0423 -0.3392 -0.0462
  232MOL    C9328275   7.895   1.114   1.449 -0.6372  0.0335 -0.1294
  232MOL    F9428276   7.872   1.096   1.580 -0.0597 -0.2363  0.1243
  232MOL    H9528277   7.939   1.332   1.458 -0.9203 -1.8476  2.4789
  232MOL    H9628278   0.040   1.237   1.346 -1.1603  2.4540 -1.2806
  232MOL    H9728279   7.934   1.022   1.405 -4.5157 -2.4916  1.3476
  232MOL    C9828280   7.763   1.119   1.360 -0.2495 -0.6312  0.1501
  232MOL    C9928281   7.781   1.093   1.203 -0.3218 -0.2008 -0.1663
  232MOL   F10028282   7.818   0.965   1.192 -0.0005  0.5617 -0.0319
  232MOL   H10128283   7.693   1.044   1.396 -2.1628  1.6213  1.2474
  232MOL   H10228284   7.705   1.208   1.386  1.1829 -0.0734  1.5201
  232MOL   H10328285   7.869   1.148   1.170 -1.4764  2.2819  0.7545
  232MOL   C10428286   7.656   1.103   1.107 -0.3033 -0.0242  0.6628
  232MOL   C10528287   7.613   1.256   1.070  0.1707 -0.6711 -0.4699
  232MOL   F10628288   7.728   1.320   1.044  0.0767  0.1813  0.3353
  232MOL   H10728289   7.672   1.037   1.022  1.1445  0.0931  0.8305
  232MOL   H10828290   7.572   1.051   1.153  0.7835 -2.0082  0.4508
  232MOL   H10928291   7.578   1.299   1.163 -0.0006 -0.5282 -0.6008
  232MOL   C11028292   7.517   1.256   0.951 -0.2081 -0.2531 -0.1752
  232MOL   C11128293   7.488   1.400   0.896 -0.1069  0.2377 -0.1897
  232MOL   F11228294   7.587   1.451   0.820 -0.0461  0.6928 -0.0409
  232MOL   H11328295   7.557   1.204   0.865  0.2973 -0.0371 -0.0761
  232MOL   H11428296   7.420   1.217   0.983 -1.3346  2.3692 -0.1829
  232MOL   H11528297   7.469   1.470   0.978 -1.6107 -1.0846  0.6199
  232MOL   C11628298   7.367   1.381   0.811  0.6442  0.2529  0.1419
  232MOL   C11728299   7.330   1.514   0.737  0.1254  0.6260  0.2428
  232MOL   F11828300   7.286   1.618   0.806 -0.0905  0.2188  0.0911
  232MOL   H11928301   7.379   1.309   0.730  2.7528 -0.0011  0.6563
  232MOL   H12028302   7.290   1.347   0.879  0.1251 -0.4497 -0.7777
  232MOL   H12128303   7.256   1.484   0.663  1.4797  1.1658 -1.3620
  232MOL   H12228304   7.416   1.559   0.687 -0.0295  1.0515  0.3578
  233MOL     C128305   6.962   7.395   7.826 -0.1646  0.5382  0.2667
  233MOL     C228306   7.108   7.404   7.854 -0.1245 -0.4770  0.5536
  233MOL     F328307   7.168   7.464   7.757  0.5741 -0.0330 -0.2376
  233MOL     H428308   6.937   7.353   7.728 -0.4526 -2.5681  1.6146
  233MOL     H528309   6.908   7.487   7.850 -0.3743  0.4746  0.0500
  233MOL     H628310   7.145   7.302   7.858  2.0437  0.2312 -0.9104
  233MOL     H728311   6.931   7.313   7.890  0.7247  0.9356  1.2039
  233MOL     C828312   7.154   7.453   7.988 -0.0610  0.3594  0.5390
  233MOL     C928313   7.140   7.602   0.018  0.2045 -0.6237  0.2330
  233MOL    F1028314   7.006   7.636   0.038  0.0803 -0.1069 -0.1266
  233MOL    H1128315   7.103   7.383   0.051  1.0015 -1.6604 -0.7203
  233MOL    H1228316   7.262   7.438   7.978 -0.2465 -1.0271  0.5134
  233MOL    H1328317   7.175   7.661   7.936  0.9633 -0.3524  0.7277
  233MOL    C1428318   7.217   7.649   0.147  0.5122  0.2899 -0.7583
  233MOL    C1528319   7.370   7.661   0.121  0.1514  0.6022 -0.3034
  233MOL    F1628320   7.385   7.727   0.007 -0.1778 -0.0216  0.0246
  233MOL    H1728321   7.186   7.749   0.175 -0.5024 -0.2678  0.1269
  233MOL    H1828322   7.204   7.591   0.238 -0.8404  3.4326  1.0867
  233MOL    H1928323   7.417   7.566   0.095  2.5021  1.4585  0.7681
  233MOL    C2028324   7.450   7.730   0.230 -0.3594 -0.0054 -0.0023
  233MOL    C2128325   7.607   7.741   0.214  0.1156 -0.1894 -0.0578
  233MOL    F2228326   7.631   7.793   0.095 -0.1822  0.1594 -0.5328
  233MOL    H2328327   7.420   7.834   0.246  0.0894  0.2925 -1.0516
  233MOL    H2428328   7.432   7.685   0.327  0.6391 -1.4410 -0.4663
  233MOL    H2528329   7.640   7.638   0.203  0.8032  0.0305 -0.0289
  233MOL    C2628330   7.688   7.798   0.324 -0.5298  0.0167 -0.0856
  233MOL    C2728331   7.686   7.716   0.452 -0.1574 -0.8039  0.1081
  233MOL    F2828332   7.722   7.595   0.432 -0.2888  0.0353 -0.4885
  233MOL    H2928333   7.791   7.819   0.298 -0.5614  1.0611  0.5713
  233MOL    H3028334   7.654   7.900   0.343  1.4805  0.9586 -1.4743
  233MOL    H3128335   7.594   7.711   0.510  1.6910 -0.7349  3.1763
  233MOL    C3228336   7.787   7.764   0.560  0.3865  0.6657 -0.5348
  233MOL    C3328337   7.756   7.905   0.624 -0.7149  0.3337 -0.1099
  233MOL    F3428338   7.640   7.896   0.690 -0.4812  0.0646  0.4235
  233MOL    H3528339   7.809   7.689   0.636 -1.5294 -2.2168 -2.7227
  233MOL    H3628340   7.874   7.795   0.502  0.8880 -1.3749 -0.9188
  233MOL    H3728341   7.735   7.976   0.544 -1.9567 -0.4155 -0.4694
  233MOL    C3828342   7.863   7.950   0.723  0.6392 -1.0118 -0.3224
  233MOL    C3928343   7.831   0.074   0.810 -0.6851  0.7261 -0.4038
  233MOL    F4028344   7.924   0.081   0.905  0.3139 -0.0936  0.2466
  233MOL    H4128345   7.894   7.877   0.798 -0.0779 -0.1044  0.8630
  233MOL    H4228346   7.944   7.972   0.652  0.7505 -1.1044 -0.2247
  233MOL    H4328347   7.738   0.055   0.863  1.1370 -2.0609  1.9469
  233MOL    C4428348   7.832   0.207   0.736 -0.3048 -0.1344 -1.1158
  233MOL    C4528349   7.782   0.333   0.806  0.2636  0.6225  0.2016
  233MOL    F4628350   7.643   0.329   0.804 -0.0373 -0.4016  0.1024
  233MOL    H4728351   7.934   0.229   0.705 -1.4579  2.8344 -3.0082
  233MOL    H4828352   7.774   0.198   0.645  0.1945  0.1670 -1.4690
  233MOL    H4928353   7.819   0.411   0.739 -0.4156  0.6105 -0.1855
  233MOL    C5028354   7.831   0.353   0.949  0.3631 -0.2960 -0.5304
  233MOL    C5128355   7.985   0.385   0.961  0.1233  0.6953 -0.1919
  233MOL    F5228356   0.020   0.476   0.869  0.4353  0.4368  0.0571
  233MOL    H5328357   7.775   0.442   0.979  1.6446  1.2970 -2.7132
  233MOL    H5428358   7.807   0.265   1.008  0.7760 -1.0175 -1.4332
  233MOL    H5528359   0.041   0.298   0.933 -1.4035 -1.0999  2.0063
  233MOL    C5628360   0.037   0.423   1.095 -0.1623 -0.1814  0.1550
  233MOL    C5728361   0.047   0.302   1.192 -0.4357  0.1286 -0.0485
  233MOL    F5828362   0.123   0.211   1.143 -0.0087 -0.0925 -0.3516
  233MOL    H5928363   0.137   0.467   1.084 -0.4929  0.3904 -0.5770
  233MOL    H6028364   7.984   0.503   1.143 -1.6587 -1.6630  0.9262
  233MOL    H6128365   7.951   0.258   1.205 -0.0868 -0.3598  1.0467
  233MOL    C6228366   0.107   0.335   1.331 -0.7390 -0.5028  0.5996
  233MOL    C6328367   0.083   0.234   1.439  0.5102 -1.1472  0.5463
  233MOL    F6428368   0.156   0.262   1.551 -0.1724  0.1495 -0.3040
  233MOL    H6528369   0.211   0.362   1.317 -0.8238 -0.6673 -0.4082
  233MOL    H6628370   0.064   0.432   1.357  1.1162 -0.1897  2.6148
  233MOL    H6728371   0.093   0.130   1.408  1.4455 -1.6993  2.5620
  233MOL    C6828372   7.941   0.238   1.492 -0.1241 -0.1912 -0.3853
  233MOL    C6928373   7.924   0.120   1.593 -0.1406  0.4998  0.1743
  233MOL    F7028374   7.950   0.171   1.709 -0.3130  0.4302  0.2854
  233MOL    H7128375   7.921   0.336   1.536 -0.2979  0.2046 -1.3253
  233MOL    H7228376   7.874   0.216   1.409 -0.5004 -0.6203  0.0314
  233MOL    H7328377   7.985   0.031   1.575 -0.1597  0.1538  1.7324
  233MOL    C7428378   7.784   0.061   1.605  0.5907  0.0862 -0.0313
  233MOL    C7528379   7.747   7.956   1.502  0.1244  0.3964  0.6675
  233MOL    F7628380   7.809   7.844   1.546 -0.3599  0.2046  0.5487
  233MOL    H7728381   7.773   0.018   1.705  1.1426  0.9498  0.4171
  233MOL    H7828382   7.707   0.139   1.605 -0.8077 -1.2823  0.2749
  233MOL    H7928383   7.805   7.982   1.414 -0.2288 -0.3743  0.2042
  233MOL    C8028384   7.593   7.946   1.480  1.0471  0.3548  1.1049
  233MOL    C8128385   7.532   0.031   1.378  0.4211 -0.2324 -0.0051
  233MOL    F8228386   7.596   0.020   1.261  0.2017 -0.3882 -0.1465
  233MOL    H8328387   7.576   7.841   1.455  0.1665 -0.2730  4.0815
  233MOL    H8428388   7.540   7.960   1.575 -0.3138 -2.2648  0.7839
  233MOL    H8528389   7.552   0.133   1.410  2.3640  0.8369 -4.2508
  233MOL    C8628390   7.377   0.010   1.361 -0.8297  0.1014  0.5174
  233MOL    C8728391   7.325   0.112   1.259 -0.1344 -0.3935 -0.4719
  233MOL    F8828392   7.203   0.071   1.229 -0.0183  0.3337  0.0769
  233MOL    H8928393   7.364   7.912   1.323 -0.2011  1.2053 -2.7672
  233MOL    H9028394   7.325   0.017   1.456  0.1833 -0.1560  1.0975
  233MOL    H9128395   7.382   0.110   1.166 -1.6295  0.7781 -1.4489
  233MOL    C9228396   7.310   0.253   1.315  0.3886 -0.1634 -0.6083
  233MOL    C9328397   7.263   0.355   1.210 -0.5295  0.8170  0.3718
  233MOL    F9428398   7.224   0.465   1.278 -0.7315 -0.5013 -0.1091
  233MOL    H9528399   7.238   0.255   1.397 -0.0294  1.5467 -0.9991
  233MOL    H9628400   7.399   0.297   1.360 -1.8590  2.3273  1.5625
  233MOL    H9728401   7.176   0.313   1.160 -0.6044  1.3399  0.0686
  233MOL    C9828402   7.373   0.399   1.110 -0.1804 -0.2690 -0.5540
  233MOL    C9928403   7.320   0.507   1.015 -0.3433  0.2215 -0.6964
  233MOL   F10028404   7.423   0.541   0.933 -0.3447 -0.0336 -0.3974
  233MOL   H10128405   7.458   0.442   1.162  0.3935  0.0383 -1.7296
  233MOL   H10228406   7.395   0.306   1.057  2.2520  1.4921 -2.7546
  233MOL   H10328407   7.282   0.595   1.066 -0.6076  0.0642 -0.6180
  233MOL   C10428408   7.202   0.465   0.931 -0.2059  0.3836 -0.3548
  233MOL   C10528409   7.235   0.339   0.841  0.6726  0.6784 -0.1722
  233MOL   F10628410   7.193   0.234   0.912 -0.2220  0.2343 -0.1262
  233MOL   H10728411   7.109   0.453   0.985  0.1107 -2.7727 -0.3854
  233MOL   H10828412   7.189   0.547   0.860  0.9676 -0.4570 -1.5809
  233MOL   H10928413   7.342   0.334   0.825  0.6174 -1.4124  0.0207
  233MOL   C11028414   7.159   0.333   0.712 -0.7627 -0.1539  0.5547
  233MOL   C11128415   7.187   0.202   0.629  0.4069  0.5899 -0.6864
  233MOL   F11228416   7.108   0.220   0.523 -0.7284  0.0202  0.3714
  233MOL   H11328417   7.054   0.358   0.725 -1.0310 -0.3762 -1.0493
  233MOL   H11428418   7.200   0.414   0.652  0.0960 -1.3440 -0.5254
  233MOL   H11528419   7.148   0.111   0.675  0.6519  1.6277  1.6534
  233MOL   C11628420   7.335   0.169   0.586 -0.5765 -0.2796 -0.8280
  233MOL   C11728421   7.349   0.037   0.516 -0.0755 -0.5458 -0.2006
  233MOL   F11828422   7.477   0.042   0.483 -0.0174 -0.3663  0.1575
  233MOL   H11928423   7.372   0.257   0.533  0.4715  1.0963  2.1122
  233MOL   H12028424   7.404   0.156   0.669 -1.4245  2.3068  0.3502
  233MOL   H12128425   7.292   0.049   0.424 -0.5087  3.3643  0.4936
  233MOL   H12228426   7.335   7.947   0.571  3.3178 -0.2594  1.2559
  234MOL     C128427   7.395   1.813   2.946  0.1519  0.6275 -0.1776
  234MOL     C228428   7.374   1.670   2.902  0.5254 -0.5725 -0.2239
  234MOL     F328429   7.252   1.636   2.941 -0.3718  0.4261  0.3259
  234MOL     H428430   7.497   1.839   2.918 -0.7400  1.2544 -3.0452
  234MOL     H528431   7.375   1.837   3.051 -0.8326  0.9892 -0.4495
  234MOL     H628432   7.449   1.610   2.953  1.4353  1.1354  0.4719
  234MOL     H728433   7.330   1.877   2.886 -2.4524 -1.4766  0.3096
  234MOL     C828434   7.394   1.658   2.747 -0.6588  0.0591  0.3686
  234MOL     C928435   7.423   1.517   2.704 -0.1296 -0.2369  0.5506
  234MOL    F1028436   7.528   1.481   2.772 -0.2343  0.2465  0.0669
  234MOL    H1128437   7.304   1.698   2.701 -0.6190 -0.7895 -0.4809
  234MOL    H1228438   7.471   1.725   2.709  0.2891 -0.7343  0.8753
  234MOL    H1328439   7.442   1.514   2.596  1.7317  0.6286  0.8307
  234MOL    C1428440   7.313   1.416   2.733 -0.0740  0.1585  0.5690
  234MOL    C1528441   7.184   1.453   2.671  0.3846 -0.1615  0.0836
  234MOL    F1628442   7.198   1.467   2.542  0.2342 -0.1815  0.3329
  234MOL    H1728443   7.338   1.318   2.692  1.8488  1.1105 -0.6125
  234MOL    H1828444   7.297   1.415   2.841  0.5854  2.1277  0.6941
  234MOL    H1928445   7.149   1.549   2.711 -0.6317 -1.0581  1.3801
  234MOL    C2028446   7.076   1.344   2.686  0.7831  0.7450  0.9405
  234MOL    C2128447   7.012   1.335   2.824 -0.5311  0.1059 -0.3876
  234MOL    F2228448   6.952   1.448   2.858 -0.2613 -0.0036  0.1216
  234MOL    H2328449   6.992   1.358   2.618  1.0840 -0.4434  0.3215
  234MOL    H2428450   7.125   1.253   2.653 -0.6669  0.3286 -0.1103
  234MOL    H2528451   7.090   1.315   2.897 -1.9931  1.5556  1.6566
  234MOL    C2628452   6.914   1.215   2.854  0.3593 -0.2744  0.2155
  234MOL    C2728453   6.951   1.079   2.775  0.5958  0.8232 -0.1230
  234MOL    F2828454   7.079   1.056   2.802 -0.7226  0.2977 -0.7736
  234MOL    H2928455   6.914   1.192   2.961 -1.7407  1.4956  0.6312
  234MOL    H3028456   6.813   1.252   2.838  0.8533  0.8987 -0.1805
  234MOL    H3128457   6.934   1.093   2.668  1.8499 -0.3557 -0.4920
  234MOL    C3228458   6.867   0.963   2.824 -0.2917 -0.3038  0.0511
  234MOL    C3328459   6.724   0.969   2.782 -0.0986  0.2986 -0.6959
  234MOL    F3428460   6.716   0.980   2.648 -0.0297 -0.1970 -0.6331
  234MOL    H3528461   6.913   0.882   2.767 -1.9735 -0.6575 -0.8532
  234MOL    H3628462   6.871   0.952   2.932  1.6226  0.0571  0.0376
  234MOL    H3728463   6.689   1.058   2.834  0.9742 -0.3299  1.2045
  234MOL    C3828464   6.640   0.843   2.824 -0.6447  0.2129  0.3051
  234MOL    C3928465   6.491   0.860   2.816  0.0849 -0.2612  0.9977
  234MOL    F4028466   6.458   0.903   2.690 -0.0750  0.0587  0.2558
  234MOL    H4128467   6.668   0.777   2.742 -0.6283  1.5868 -0.8038
  234MOL    H4228468   6.670   0.800   2.920 -0.1867  1.7949  0.8755
  234MOL    H4328469   6.462   0.942   2.881  1.3406  0.8710  0.1490
  234MOL    C4428470   6.415   0.730   2.825 -0.2070  0.0159 -0.0251
  234MOL    C4528471   6.268   0.738   2.797 -0.2337  0.4261  0.4741
  234MOL    F4628472   6.218   0.619   2.824 -0.7730 -0.2245 -0.0811
  234MOL    H4728473   6.457   0.665   2.747  2.0522  1.6735 -0.2489
  234MOL    H4828474   6.436   0.691   2.924  0.5807  0.2304 -0.0995
  234MOL    H4928475   6.244   0.753   2.691  0.4678 -2.1941 -0.1000
  234MOL    C5028476   6.193   0.865   2.850  0.3743 -0.3208  0.0270
  234MOL    C5128477   6.160   0.877   3.000 -0.1365  0.5370 -0.2759
  234MOL    F5228478   6.268   0.871   3.076 -0.2349  0.5826  0.2482
  234MOL    H5328479   6.228   0.963   2.818 -0.3189  0.9092  2.9256
  234MOL    H5428480   6.097   0.873   2.798 -1.3414  0.6399  3.1995
  234MOL    H5528481   6.094   0.793   3.020 -0.2178  0.3698 -1.2410
  234MOL    C5628482   6.077   1.001   3.037  0.8517  0.4893  0.1076
  234MOL    C5728483   6.019   0.997   3.179 -0.3631 -0.2839 -0.0342
  234MOL    F5828484   5.972   1.121   3.198 -0.2656 -0.4792 -0.2631
  234MOL    H5928485   6.137   1.091   3.029  0.1653  0.9085 -0.3979
  234MOL    H6028486   5.994   1.019   2.969  0.3955 -0.7497  0.3236
  234MOL    H6128487   6.095   0.979   3.255 -2.3821  0.0365  2.1291
  234MOL    C6228488   5.896   0.899   3.187 -0.0535  0.3778 -0.6220
  234MOL    C6328489   5.832   0.897   3.325  0.5513  0.1718 -0.9160
  234MOL    F6428490   5.756   1.005   3.326 -0.2532 -0.3189 -0.2668
  234MOL    H6528491   5.826   0.916   3.105  0.8070 -0.8247 -1.6080
  234MOL    H6628492   5.941   0.804   3.159 -0.4814  0.2657 -0.9372
  234MOL    H6728493   5.905   0.913   3.404 -1.5822 -0.7096  1.2996
  234MOL    C6828494   5.735   0.783   3.365  0.6650  0.3355 -0.2514
  234MOL    C6928495   5.796   0.640   3.357 -0.8516  0.2516  0.1134
  234MOL    F7028496   5.909   0.636   3.423  0.0203 -0.8327 -0.1770
  234MOL    H7128497   5.707   0.793   3.469  0.1530 -0.4698 -0.3054
  234MOL    H7228498   5.641   0.782   3.309  1.2058  0.8123 -1.1959
  234MOL    H7328499   5.827   0.624   3.254  1.8990  2.2680  0.5563
  234MOL    C7428500   5.710   0.523   3.409  0.7502  0.1043  0.3794
  234MOL    C7528501   5.603   0.485   3.309  0.3959 -0.9008  0.4224
  234MOL    F7628502   5.661   0.444   3.200 -0.3239 -0.1382  0.1593
  234MOL    H7728503   5.772   0.434   3.414 -0.0951 -0.4143  1.4829
  234MOL    H7828504   5.678   0.549   3.510  3.0000 -2.7208  1.8710
  234MOL    H7928505   5.540   0.572   3.287  0.4213 -1.7235 -3.3405
  234MOL    C8028506   5.500   0.373   3.352  0.3095  0.4832  0.3613
  234MOL    C8128507   5.441   0.399   3.492  0.4167  0.3785  0.0865
  234MOL    F8228508   5.396   0.527   3.499 -0.1718  0.6879  0.6520
  234MOL    H8328509   5.421   0.365   3.277 -1.4682 -4.8615  2.6095
  234MOL    H8428510   5.556   0.280   3.341 -1.6133 -0.3796 -2.9727
  234MOL    H8528511   5.522   0.397   3.565  0.1804 -0.5962  0.3218
  234MOL    C8628512   5.313   0.313   3.522 -0.0194 -0.3529  0.0989
  234MOL    C8728513   5.192   0.336   3.439  0.6789  1.4000  0.4131
  234MOL    F8828514   5.205   0.276   3.322  0.4438  0.2300  0.0886
  234MOL    H8928515   5.339   0.207   3.527  0.5328 -0.1427  2.8641
  234MOL    H9028516   5.276   0.334   3.623  0.2746 -1.8950  0.5446
  234MOL    H9128517   5.190   0.444   3.422  0.1814  1.2837 -0.2545
  234MOL    C9228518   5.067   0.278   3.514 -0.1919 -0.1389 -0.2922
  234MOL    C9328519   4.927   0.333   3.469 -0.1349 -0.0584  0.3580
  234MOL    F9428520   4.836   0.280   3.553 -0.0452 -0.1997 -0.1667
  234MOL    H9528521   5.072   0.169   3.520 -0.7398 -0.1382  0.2417
  234MOL    H9628522   5.077   0.309   3.618 -1.0797  2.1320 -0.8562
  234MOL    H9728523   4.895   0.303   3.369  1.3444 -0.4411 -0.0144
  234MOL    C9828524   4.908   0.481   3.503  0.0203 -0.7817  0.3703
  234MOL    C9928525   4.758   0.518   3.506  0.1451 -0.1749  0.4215
  234MOL   F10028526   4.694   0.471   3.609 -0.0036  0.0858 -0.9333
  234MOL   H10128527   4.956   0.504   3.598  1.6622 -0.1305 -0.5942
  234MOL   H10228528   4.971   0.547   3.443  0.6794  1.3891  3.3249
  234MOL   H10328529   4.711   0.469   3.420  1.7670 -2.1199  0.6069
  234MOL   C10428530   4.723   0.665   3.495 -0.2626 -0.4578  0.0007
  234MOL   C10528531   4.759   0.729   3.362 -0.0826 -0.2474 -0.3246
  234MOL   F10628532   4.671   0.679   3.272  0.5961 -0.1240 -0.1437
  234MOL   H10728533   4.623   0.688   3.532 -0.4903  0.1663 -0.9702
  234MOL   H10828534   4.783   0.715   3.571  1.5064 -1.9100 -0.4170
  234MOL   H10928535   4.861   0.700   3.335 -0.1068 -2.1505  1.5000
  234MOL   C11028536   4.726   0.881   3.365 -0.0422 -0.2028 -0.3620
  234MOL   C11128537   4.835   0.952   3.444  0.0561 -0.8752  0.5306
  234MOL   F11228538   4.956   0.926   3.388 -0.1333 -0.4726 -0.5412
  234MOL   H11328539   4.727   0.924   3.265  0.9375 -1.4794 -0.9262
  234MOL   H11428540   4.634   0.901   3.419 -0.4585  0.7483 -1.3899
  234MOL   H11528541   4.846   0.915   3.546 -0.0131 -0.5736  0.6489
  234MOL   C11628542   4.822   1.101   3.447  0.4917 -0.2600 -0.2041
  234MOL   C11728543   4.940   1.178   3.510 -0.4884  0.0723  0.1084
  234MOL   F11828544   4.955   1.132   3.634 -0.0261 -0.2050 -0.6540
  234MOL   H11928545   4.808   1.133   3.344 -2.9521 -0.0519  0.2907
  234MOL   H12028546   4.737   1.134   3.506  1.6179 -1.0031  1.8866
  234MOL   H12128547   4.914   1.284   3.511 -3.8212 -0.6930  1.2878
  234MOL   H12228548   5.033   1.170   3.453  0.2105  2.0593  0.9296
  235MOL     C128549   0.122   4.648   0.509 -0.3558  0.7975  0.9276
  235MOL     C228550   7.991   4.574   0.533  0.3445  0.8304  0.3580
  235MOL     F328551   7.899   4.668   0.573  0.0541 -0.0755  0.4300
  235MOL     H428552   0.154   4.712   0.591 -1.3065  0.6000  1.4570
  235MOL     H528553   0.116   4.716   0.424 -1.0245 -0.9282 -0.4388
  235MOL     H628554   0.003   4.505   0.616  1.0107  1.1294  0.4840
  235MOL     H728555   0.202   4.577   0.488 -1.9250 -0.7055 -0.0966
  235MOL     C828556   7.932   4.505   0.407 -0.7130 -0.1238 -0.7939
  235MOL     C928557   7.790   4.437   0.412  0.7229  0.3685  0.0669
  235MOL    F1028558   7.734   4.446   0.290 -0.1014  0.3609 -0.0759
  235MOL    H1128559   7.942   4.578   0.327 -0.8723 -0.9666 -1.5947
  235MOL    H1228560   7.997   4.425   0.372 -0.1043 -0.4276  0.9492
  235MOL    H1328561   7.721   4.501   0.467 -0.8933 -1.9487  0.8129
  235MOL    C1428562   7.796   4.291   0.455 -0.4912 -0.2282 -0.1570
  235MOL    C1528563   7.653   4.224   0.441 -0.8009  0.0033  0.3526
  235MOL    F1628564   7.668   4.084   0.455  0.0645  0.2190 -0.4194
  235MOL    H1728565   7.873   4.243   0.395  0.2433  1.8692 -0.9356
  235MOL    H1828566   7.836   4.285   0.556  1.6039  3.0015 -0.7112
  235MOL    H1928567   7.616   4.251   0.342 -0.1955 -0.3070  0.0407
  235MOL    C2028568   7.564   4.267   0.556 -0.0672 -0.2265 -0.0337
  235MOL    C2128569   7.427   4.196   0.555  0.9944 -1.0240 -0.7918
  235MOL    F2228570   7.406   4.149   0.680 -0.4322 -0.1082 -0.0578
  235MOL    H2328571   7.615   4.233   0.646 -0.1000  1.4793  0.6605
  235MOL    H2428572   7.551   4.374   0.573 -3.0560 -0.7796  1.4640
  235MOL    H2528573   7.404   4.115   0.486 -0.1366 -2.1131  0.8230
  235MOL    C2628574   7.317   4.307   0.530  0.0994 -0.0359  0.3947
  235MOL    C2728575   7.329   4.365   0.382  0.0511 -0.2994 -0.6182
  235MOL    F2828576   7.290   4.267   0.298  0.1049 -0.8635 -0.4280
  235MOL    H2928577   7.217   4.271   0.552  0.5093 -0.5920  1.4265
  235MOL    H3028578   7.329   4.382   0.608  0.0117 -2.2222  2.5778
  235MOL    H3128579   7.428   4.407   0.363  0.6049 -1.7705 -1.0922
  235MOL    C3228580   7.224   4.483   0.365 -0.1347  0.1028 -0.5706
  235MOL    C3328581   7.232   4.546   0.221  0.2820  0.9096 -0.3631
  235MOL    F3428582   7.362   4.565   0.197  0.4020 -0.1447  0.1293
  235MOL    H3528583   7.121   4.462   0.395 -0.3308  2.1088  0.2897
  235MOL    H3628584   7.263   4.555   0.437 -0.7772 -1.4379  1.3850
  235MOL    H3728585   7.171   4.636   0.221  1.9625  2.1208  2.7093
  235MOL    C3828586   7.183   4.457   0.099 -0.2359 -0.1338 -0.2285
  235MOL    C3928587   7.031   4.427   0.100  0.8856 -0.8503 -0.5983
  235MOL    F4028588   6.966   4.543   0.083 -0.3315 -0.2536 -0.3995
  235MOL    H4128589   7.201   4.518   0.011  0.5674  0.5467  0.4092
  235MOL    H4228590   7.243   4.366   0.094  0.9980  0.6695 -0.1420
  235MOL    H4328591   6.996   4.394   0.198 -0.1447  1.4027 -0.1853
  235MOL    C4428592   7.002   4.325   7.989  0.5215 -0.3962  0.6380
  235MOL    C4528593   6.858   4.276   7.986  0.1274  0.3703  0.6735
  235MOL    F4628594   6.773   4.375   0.008 -0.4613  0.5917 -0.1986
  235MOL    H4728595   7.030   4.380   7.900  0.3360  0.2717  0.9874
  235MOL    H4828596   7.068   4.238   7.993  0.6609 -0.4119 -1.5166
  235MOL    H4928597   6.834   4.215   0.070 -1.6758  1.9491  1.3312
  235MOL    C5028598   6.816   4.218   7.854 -0.0030  0.5573 -0.5984
  235MOL    C5128599   6.684   4.140   7.867  0.4838  0.8093 -0.7342
  235MOL    F5228600   6.662   4.108   7.740 -0.4108  0.0944  0.3680
  235MOL    H5328601   6.804   4.293   7.776 -1.4503 -0.3597 -1.2924
  235MOL    H5428602   6.889   4.145   7.818  0.4674 -0.3439  2.0589
  235MOL    H5528603   6.601   4.207   7.888 -0.3444 -0.4285  0.0523
  235MOL    C5628604   6.678   4.014   7.955 -0.1617 -0.0638  0.3971
  235MOL    C5728605   6.543   3.926   7.939  0.2255  0.8907 -0.0510
  235MOL    F5828606   6.529   3.890   7.812  0.3747 -0.2412  0.2604
  235MOL    H5928607   6.758   3.948   7.920 -0.5247  1.2053 -2.9994
  235MOL    H6028608   6.692   4.045   0.055  0.1869  0.7136  0.1198
  235MOL    H6128609   6.453   3.984   7.961  0.1350  0.4372  0.7737
  235MOL    C6228610   6.536   3.798   0.020 -0.8871 -0.2567  0.2734
  235MOL    C6328611   6.391   3.756   0.055 -0.9938 -0.3059  1.2003
  235MOL    F6428612   6.325   3.732   7.948 -0.3659 -0.1053 -0.1651
  235MOL    H6528613   6.587   3.714   7.976 -0.1258  0.0948  0.4741
  235MOL    H6628614   6.587   3.821   0.113  2.1483 -0.6449 -1.2553
  235MOL    H6728615   6.337   3.829   0.115  0.6085  1.1313  0.9284
  235MOL    C6828616   6.399   3.614   0.127 -0.3379  0.3503  0.4614
  235MOL    C6928617   6.255   3.576   0.178  0.1110  0.1869  0.1758
  235MOL    F7028618   6.185   3.535   0.067 -0.2844  0.4416 -0.1528
  235MOL    H7128619   6.423   3.549   0.043 -2.7484  0.0004  0.0167
  235MOL    H7228620   6.470   3.591   0.207  1.6417 -0.6830 -1.5449
  235MOL    H7328621   6.202   3.666   0.210  1.4371  0.2464  2.3234
  235MOL    C7428622   6.238   3.470   0.289  0.3209 -0.0018  0.6953
  235MOL    C7528623   6.298   3.507   0.424 -0.6284 -1.0162 -1.0738
  235MOL    F7628624   6.231   3.607   0.481  0.1683 -0.4637  0.6167
  235MOL    H7728625   6.137   3.429   0.297  2.2640 -5.2333  0.2823
  235MOL    H7828626   6.300   3.388   0.254  1.0125  0.2036  1.4462
  235MOL    H7928627   6.402   3.538   0.409 -0.6887  1.0127  2.0097
  235MOL    C8028628   6.291   3.398   0.524 -0.0782 -0.3241  0.3516
  235MOL    C8128629   6.357   3.441   0.658 -0.3094  0.5175 -0.1580
  235MOL    F8228630   6.300   3.546   0.710  0.4126 -0.1095 -0.0454
  235MOL    H8328631   6.183   3.384   0.529 -0.3513  1.5031  0.1465
  235MOL    H8428632   6.344   3.312   0.485 -1.1274 -0.3998 -0.9463
  235MOL    H8528633   6.459   3.472   0.638  0.1599 -0.4062  0.7452
  235MOL    C8628634   6.351   3.326   0.763 -0.0336  0.3134  0.0168
  235MOL    C8728635   6.465   3.335   0.862 -0.0630  0.1745 -0.0285
  235MOL    F8828636   6.420   3.280   0.970 -0.0290 -0.1690  0.5093
  235MOL    H8928637   6.249   3.328   0.799  0.1837  0.5068  0.6169
  235MOL    H9028638   6.361   3.233   0.707  1.5083  1.4100 -1.6314
  235MOL    H9128639   6.476   3.436   0.900 -0.3301 -0.4820  1.8596
  235MOL    C9228640   6.598   3.262   0.824  0.7760 -0.3248 -0.4372
  235MOL    C9328641   6.677   3.326   0.702  0.9523  0.6226  0.3101
  235MOL    F9428642   6.688   3.455   0.701  0.0197 -0.3820  0.7098
  235MOL    H9528643   6.662   3.272   0.911  0.3146  0.5784 -0.2036
  235MOL    H9628644   6.579   3.159   0.794  1.3135 -0.6468  0.3023
  235MOL    H9728645   6.618   3.305   0.613  1.0847 -0.5180  0.4872
  235MOL    C9828646   6.812   3.263   0.678 -0.1107 -0.5298 -0.1246
  235MOL    C9928647   6.854   3.248   0.529 -0.3650 -0.0983 -0.5509
  235MOL   F10028648   6.872   3.375   0.485 -0.1598 -0.1948  0.0090
  235MOL   H10128649   6.878   3.324   0.739 -1.0430  0.2448  0.1250
  235MOL   H10228650   6.801   3.164   0.723  0.0272 -0.7083 -0.4844
  235MOL   H10328651   6.772   3.211   0.468 -0.1383 -0.3120 -0.7245
  235MOL   C10428652   6.975   3.158   0.507  0.3083 -0.0540 -0.1616
  235MOL   C10528653   6.939   3.013   0.551  0.4387 -0.4788  0.2433
  235MOL   F10628654   6.860   2.961   0.457  0.1557  0.0625 -0.5090
  235MOL   H10728655   7.009   3.160   0.403 -1.3436 -2.3024 -0.8053
  235MOL   H10828656   7.057   3.193   0.568 -1.3616 -0.4067  2.3453
  235MOL   H10928657   6.885   3.005   0.645 -2.9650 -0.7589 -1.6824
  235MOL   C11028658   7.058   2.909   0.549  0.3349  0.1377  0.0110
  235MOL   C11128659   7.182   2.963   0.622 -0.2881  0.2034 -0.3051
  235MOL   F11228660   7.140   2.999   0.740 -0.1276 -0.9391 -0.0025
  235MOL   H11328661   7.032   2.817   0.602  1.6040  0.1982  0.7785
  235MOL   H11428662   7.083   2.878   0.447 -0.2642  1.1903 -0.4636
  235MOL   H11528663   7.221   3.051   0.571  0.2135  0.2407  0.1228
  235MOL   C11628664   7.304   2.871   0.646 -0.3079 -0.4065 -0.3400
  235MOL   C11728665   7.415   2.953   0.713  0.0127 -0.3734 -0.6396
  235MOL   F11828666   7.454   3.047   0.623  0.0518  0.2346  0.3872
  235MOL   H11928667   7.267   2.791   0.710  1.6545  1.4393  3.2403
  235MOL   H12028668   7.335   2.822   0.553  0.5382  0.5930 -0.5975
  235MOL   H12128669   7.496   2.882   0.732 -0.3048  0.0526  2.6970
  235MOL   H12228670   7.382   3.003   0.804 -0.0420  0.0962 -0.9164
  236MOL     C128671   3.823   6.819   2.907  0.3082 -0.0730 -0.2824
  236MOL     C228672   3.798   6.754   2.772 -0.1900  0.0895  0.6215
  236MOL     F328673   3.679   6.799   2.732 -0.4044  0.2328  0.1850
  236MOL     H428674   3.833   6.928   2.900 -2.2578  0.1436 -1.0989
  236MOL     H528675   3.920   6.784   2.941  0.2103 -2.0920 -1.9638
  236MOL     H628676   3.792   6.645   2.778 -1.7240  0.1365  0.3002
  236MOL     H728677   3.742   6.800   2.977 -1.4119 -0.8850 -2.4264
  236MOL     C828678   3.904   6.798   2.668  0.5827  0.7066 -0.4390
  236MOL     C928679   4.033   6.716   2.656  0.1898 -0.7715  0.1096
  236MOL    F1028680   3.996   6.587   2.632 -0.4300  0.6421  0.2283
  236MOL    H1128681   3.854   6.789   2.571 -1.2034 -0.6606  0.5832
  236MOL    H1228682   3.927   6.903   2.688 -1.9587  1.0916  0.6383
  236MOL    H1328683   4.079   6.719   2.755 -1.7905  1.7114  1.0086
  236MOL    C1428684   4.137   6.766   2.552 -0.6914  0.5694  0.1829
  236MOL    C1528685   4.275   6.714   2.573  0.1046 -0.1033  0.6026
  236MOL    F1628686   4.266   6.586   2.601 -0.1053  0.4766  0.1778
  236MOL    H1728687   4.105   6.726   2.456 -2.0729  1.4174  0.2751
  236MOL    H1828688   4.136   6.875   2.551 -0.6851  0.6385  3.2354
  236MOL    H1928689   4.308   6.746   2.672  2.7728  1.4453 -0.7256
  236MOL    C2028690   4.385   6.734   2.466  0.1879  0.1143 -0.5534
  236MOL    C2128691   4.455   6.870   2.463 -0.9001  0.2253 -0.2655
  236MOL    F2228692   4.562   6.850   2.543  0.9188 -0.4718 -0.3780
  236MOL    H2328693   4.453   6.655   2.498  0.0679 -0.4273 -1.6034
  236MOL    H2428694   4.344   6.708   2.368 -1.5206  1.5108 -0.2408
  236MOL    H2528695   4.401   6.953   2.510  0.9756  0.6928  1.1057
  236MOL    C2628696   4.517   6.911   2.327 -0.3587 -0.0176 -0.3557
  236MOL    C2728697   4.592   7.051   2.333  0.0448 -0.0582 -0.6891
  236MOL    F2828698   4.708   7.048   2.401 -0.2799 -0.0922  0.5257
  236MOL    H2928699   4.603   6.846   2.313 -0.4334 -0.3912  0.8597
  236MOL    H3028700   4.441   6.894   2.251  0.0882 -1.0246 -0.5832
  236MOL    H3128701   4.526   7.106   2.400  1.7889  2.0538 -0.6608
  236MOL    C3228702   4.625   7.121   2.198  0.0842  0.1763  0.2240
  236MOL    C3328703   4.503   7.133   2.104 -0.1201 -0.3340 -0.3158
  236MOL    F3428704   4.411   7.198   2.180 -0.1895 -0.0181 -0.6940
  236MOL    H3528705   4.656   7.224   2.215 -2.0428  0.8212  0.3076
  236MOL    H3628706   4.708   7.071   2.149  0.6152  0.9638  0.3064
  236MOL    H3728707   4.454   7.037   2.089  0.8381 -0.7348 -0.8942
  236MOL    C3828708   4.532   7.209   1.966  0.1981  0.0334 -0.3146
  236MOL    C3928709   4.604   7.129   1.855 -0.7996  0.6703 -0.4216
  236MOL    F4028710   4.519   7.026   1.830 -0.4998  0.5102 -0.8399
  236MOL    H4128711   4.447   7.251   1.913  1.9435  1.0831 -2.3347
  236MOL    H4228712   4.595   7.295   1.986 -1.5439  1.2601  0.0178
  236MOL    H4328713   4.697   7.093   1.898  0.0150 -0.9822 -3.3977
  236MOL    C4428714   4.628   7.202   1.721 -0.0130 -0.0689  0.2850
  236MOL    C4528715   4.641   7.123   1.593 -0.6994 -0.5035 -0.5761
  236MOL    F4628716   4.519   7.073   1.554  0.1185  0.3216 -0.2627
  236MOL    H4728717   4.535   7.255   1.701  0.2753  0.0065 -0.9352
  236MOL    H4828718   4.714   7.268   1.733  0.7555 -0.5287 -2.2796
  236MOL    H4928719   4.695   7.031   1.614  1.2595  0.8222  0.3136
  236MOL    C5028720   4.703   7.204   1.475 -0.8073  0.0650  0.7207
  236MOL    C5128721   4.845   7.241   1.487 -0.4555 -0.1577 -0.8280
  236MOL    F5228722   4.930   7.145   1.480  0.3963  0.3268 -0.1850
  236MOL    H5328723   4.690   7.144   1.385 -2.5716  0.5208  0.6479
  236MOL    H5428724   4.637   7.288   1.453 -0.8516 -0.0454  0.4223
  236MOL    H5528725   4.855   7.298   1.580 -0.3426 -1.2237 -0.1823
  236MOL    C5628726   4.899   7.332   1.375  0.6312 -0.2566  0.5330
  236MOL    C5728727   4.831   7.469   1.362  0.2675  1.1027 -0.0924
  236MOL    F5828728   4.862   7.537   1.472  0.1286 -0.4522  0.0072
  236MOL    H5928729   5.007   7.342   1.386  0.8031  0.1309 -1.3967
  236MOL    H6028730   4.876   7.274   1.285 -1.0429 -0.3110  0.9729
  236MOL    H6128731   4.722   7.462   1.372  0.4138  0.6713  1.2960
  236MOL    C6228732   4.879   7.552   1.243 -0.1771 -0.5238  0.0710
  236MOL    C6328733   4.775   7.676   1.231 -0.0753  0.7526  0.1964
  236MOL    F6428734   4.829   7.774   1.155 -0.0604  0.1053  0.2557
  236MOL    H6528735   4.980   7.578   1.274 -0.0695 -0.3401 -0.4315
  236MOL    H6628736   4.891   7.491   1.153  2.1950  0.0465 -0.0299
  236MOL    H6728737   4.755   7.738   1.318  3.8552  2.0336  0.3159
  236MOL    C6828738   4.637   7.631   1.161 -0.2366  0.3401  1.3552
  236MOL    C6928739   4.538   7.742   1.126  0.1058 -0.2311  0.6374
  236MOL    F7028740   4.432   7.676   1.074 -0.3249 -0.1271 -0.0983
  236MOL    H7128741   4.648   7.574   1.069 -0.5227  1.5784  0.5399
  236MOL    H7228742   4.587   7.576   1.241 -0.2853 -1.0564  0.3937
  236MOL    H7328743   4.579   7.796   1.041 -1.2687 -2.1703 -1.3093
  236MOL    C7428744   4.479   7.828   1.240 -0.3517  0.5330  0.4681
  236MOL    C7528745   4.392   7.953   1.202  0.4523  0.1438 -0.2429
  236MOL    F7628746   4.299   7.913   1.111  0.6150  0.2069 -0.0883
  236MOL    H7728747   4.414   7.764   1.301 -2.7222  2.3527 -0.0844
  236MOL    H7828748   4.557   7.855   1.311 -0.9358 -0.0751  1.3666
  236MOL    H7928749   4.454   0.027   1.156 -0.6088  1.2532  0.1700
  236MOL    C8028750   4.324   0.032   1.318 -0.0841 -0.7774  0.3601
  236MOL    C8128751   4.412   0.061   1.441 -0.0633  0.5322 -0.8545
  236MOL    F8228752   4.512   0.137   1.403  0.1439 -0.2371  0.1075
  236MOL    H8328753   4.270   0.117   1.276  1.7471  0.2818  0.0907
  236MOL    H8428754   4.235   7.980   1.351  0.8760 -1.3169  2.1040
  236MOL    H8528755   4.449   7.973   1.489 -1.2208  0.5825  0.1604
  236MOL    C8628756   4.329   0.148   1.548  0.6767 -0.1836  0.3048
  236MOL    C8728757   4.410   0.211   1.661  0.2125 -0.1516 -0.6277
  236MOL    F8828758   4.322   0.289   1.719  0.2896 -0.0463  0.7877
  236MOL    H8928759   4.264   0.224   1.506  1.4646 -0.0489 -0.6959
  236MOL    H9028760   4.259   0.081   1.598 -0.0531 -0.0526 -0.5434
  236MOL    H9128761   4.486   0.282   1.630 -0.6883  1.6955  1.3083
  236MOL    C9228762   4.475   0.117   1.762  0.3679  0.9666  0.0681
  236MOL    C9328763   4.573   0.161   1.873  0.1016 -0.2163 -0.4183
  236MOL    F9428764   4.603   0.057   1.942 -0.2417 -0.0704  0.1660
  236MOL    H9528765   4.397   0.068   1.819  1.0653  1.6456  1.6161
  236MOL    H9628766   4.536   0.049   1.702  0.6189 -1.0106  2.5115
  236MOL    H9728767   4.527   0.236   1.938  1.2972  1.1312 -1.1079
  236MOL    C9828768   4.703   0.220   1.826 -0.4525 -0.4134 -0.5594
  236MOL    C9928769   4.785   0.287   1.935  0.3055  0.6026  0.6019
  236MOL   F10028770   4.705   0.379   1.989  1.1829 -0.5749  0.3262
  236MOL   H10128771   4.763   0.145   1.776  1.1989 -0.6711  1.7677
  236MOL   H10228772   4.675   0.298   1.755 -3.1521  0.1357  1.0194
  236MOL   H10328773   4.865   0.343   1.886 -0.0274  1.1253  0.6509
  236MOL   C10428774   4.853   0.196   2.036  0.1493  0.6404 -0.3847
  236MOL   C10528775   4.936   0.275   2.142 -0.0724 -0.1339 -0.3541
  236MOL   F10628776   4.858   0.333   2.231  0.1164 -0.1674  0.2964
  236MOL   H10728777   4.782   0.135   2.093 -2.4727  2.4991 -1.6033
  236MOL   H10828778   4.921   0.136   1.974 -1.3318 -0.4433 -0.9837
  236MOL   H10928779   4.994   0.354   2.096  2.9792 -2.0797  0.0007
  236MOL   C11028780   5.038   0.182   2.214  0.0710  0.5088 -0.0622
  236MOL   C11128781   4.977   0.072   2.298 -0.1795 -0.4224 -0.0249
  236MOL   F11228782   4.982   7.966   2.223  0.5213  0.2915  0.0333
  236MOL   H11328783   5.119   0.149   2.149 -0.9618 -0.3966 -0.9018
  236MOL   H11428784   5.089   0.243   2.289  1.8428  0.5132 -1.2281
  236MOL   H11528785   4.874   0.085   2.330 -0.1611  0.1784 -0.2088
  236MOL   C11628786   5.060   0.041   2.423 -0.0602 -0.1989 -0.2139
  236MOL   C11728787   4.987   7.948   2.524  0.0018 -0.2535  0.7523
  236MOL   F11828788   4.880   0.003   2.576 -0.1368  0.0167  0.3393
  236MOL   H11928789   5.150   7.998   2.382  0.1148  1.0703 -1.2775
  236MOL   H12028790   5.105   0.130   2.468  0.1406  0.0314 -0.8681
  236MOL   H12128791   5.058   7.915   2.600 -0.2896  1.9443  2.0222
  236MOL   H12228792   4.959   7.855   2.474  0.4791 -0.4245  0.7958
  237MOL     C128793   1.836   5.269   4.623 -0.0410  0.0034 -0.3605
  237MOL     C228794   1.824   5.156   4.733 -0.2432  0.0111 -0.2614
  237MOL     F328795   1.741   5.065   4.683  0.1032  0.6456 -0.4896
  237MOL     H428796   1.742   5.323   4.617 -0.3943 -0.5539  0.1265
  237MOL     H528797   1.858   5.217   4.529  0.1530 -1.5498  0.5159
  237MOL     H628798   1.759   5.197   4.810  0.9873  0.3042  0.6355
  237MOL     H728799   1.905   5.351   4.644  0.9116 -0.1526 -2.6349
  237MOL     C828800   1.949   5.104   4.805  0.6710 -0.5370 -0.0249
  237MOL     C928801   2.022   5.202   4.901 -0.2270  0.5582  0.2162
  237MOL    F1028802   2.075   5.308   4.837 -0.0366 -0.0026  0.2301
  237MOL    H1128803   1.919   5.022   4.870  0.3678  0.2234  0.8066
  237MOL    H1228804   2.017   5.070   4.728  0.4698 -1.9413  0.4021
  237MOL    H1328805   2.112   5.147   4.929 -0.9294 -0.1941  0.9984
  237MOL    C1428806   1.935   5.260   5.017 -0.3488  0.2324 -0.4817
  237MOL    C1528807   1.885   5.147   5.121  0.5015 -0.5167 -0.8984
  237MOL    F1628808   1.987   5.086   5.175 -0.2258 -0.3127  0.1815
  237MOL    H1728809   2.000   5.332   5.067 -0.1360  1.0293 -1.8731
  237MOL    H1828810   1.855   5.320   4.972 -0.6930  0.8309  0.8944
  237MOL    H1928811   1.813   5.074   5.082 -0.2862  0.3012 -0.9768
  237MOL    C2028812   1.821   5.217   5.240 -0.7266  0.6251  0.3597
  237MOL    C2128813   1.738   5.124   5.329  0.5883  0.7244  0.7936
  237MOL    F2228814   1.832   5.054   5.390 -0.2247  0.3062  0.1377
  237MOL    H2328815   1.884   5.278   5.305 -0.4604 -0.9008  1.5609
  237MOL    H2428816   1.757   5.290   5.191 -0.7615  0.8669  0.7620
  237MOL    H2528817   1.694   5.046   5.267  1.9297  0.3648  0.2851
  237MOL    C2628818   1.644   5.184   5.429 -0.6446  0.4980  0.1280
  237MOL    C2728819   1.549   5.083   5.490  0.3236 -0.6045 -0.4133
  237MOL    F2828820   1.478   5.030   5.390  0.4023 -0.1035  0.1158
  237MOL    H2928821   1.702   5.235   5.505 -0.0586  1.6120 -1.0565
  237MOL    H3028822   1.584   5.261   5.380 -1.1478  0.3152  0.4453
  237MOL    H3128823   1.483   5.142   5.554  1.0809 -1.8868  1.6018
  237MOL    C3228824   1.607   4.966   5.575  0.2856 -0.4800  0.2216
  237MOL    C3328825   1.703   5.016   5.685 -0.0539 -0.7084 -0.6014
  237MOL    F3428826   1.639   5.107   5.759  0.3829 -0.3181 -0.2537
  237MOL    H3528827   1.518   4.921   5.619  0.0448 -1.2915 -1.0853
  237MOL    H3628828   1.663   4.898   5.511  0.8099  0.1062  0.0526
  237MOL    H3728829   1.791   5.066   5.645  1.8391 -1.3826  2.5708
  237MOL    C3828830   1.745   4.903   5.781  0.3659 -0.2111  0.5516
  237MOL    C3928831   1.855   4.945   5.885 -0.1224 -0.2856 -0.0278
  237MOL    F4028832   1.786   5.009   5.985  0.3344  0.4178  0.1054
  237MOL    H4128833   1.659   4.863   5.835 -0.7093  2.8266  1.1751
  237MOL    H4228834   1.774   4.811   5.730  0.4221 -1.0149  2.0232
  237MOL    H4328835   1.923   5.015   5.838  1.0831 -1.7848 -0.5435
  237MOL    C4428836   1.927   4.833   5.964  0.2888  0.1867  0.4938
  237MOL    C4528837   2.036   4.771   5.882  0.4568  0.4376  0.0492
  237MOL    F4628838   2.130   4.864   5.866  0.0435 -0.2994  0.1717
  237MOL    H4728839   1.956   4.848   6.068  1.9922 -1.7001  0.3410
  237MOL    H4828840   1.841   4.766   5.972 -0.2733  0.6950 -1.1798
  237MOL    H4928841   2.002   4.750   5.780 -0.8918 -0.3514  0.6552
  237MOL    C5028842   2.088   4.646   5.933  0.6570  0.0809 -0.4641
  237MOL    C5128843   2.186   4.570   5.839  0.0837  0.1658 -0.1148
  237MOL    F5228844   2.139   4.524   5.724 -0.0546 -0.7279  0.0958
  237MOL    H5328845   2.150   4.675   6.018  0.3303  2.7855 -1.0977
  237MOL    H5428846   2.002   4.585   5.959 -0.3873  1.9276  0.5102
  237MOL    H5528847   2.220   4.483   5.895 -0.3579 -0.6258 -1.0714
  237MOL    C5628848   2.308   4.661   5.801  0.0243 -0.4171  0.4064
  237MOL    C5728849   2.429   4.578   5.747 -0.1693  0.4335  0.3391
  237MOL    F5828850   2.517   4.667   5.705  0.2609  0.0097  0.3818
  237MOL    H5928851   2.277   4.737   5.729  1.1792  0.9613  1.3331
  237MOL    H6028852   2.343   4.714   5.889  0.6830 -0.4465  0.1631
  237MOL    H6128853   2.393   4.520   5.662 -2.2851 -1.4125  2.4191
  237MOL    C6228854   2.496   4.479   5.842  0.2605  0.2660  0.8580
  237MOL    C6328855   2.568   4.361   5.769 -0.1516  0.3993 -0.2652
  237MOL    F6428856   2.663   4.400   5.682 -0.6463  0.3634  0.6207
  237MOL    H6528857   2.575   4.526   5.901  0.3819  0.7397  0.3207
  237MOL    H6628858   2.429   4.436   5.917  0.7308 -0.2399  0.9964
  237MOL    H6728859   2.493   4.319   5.702 -0.4555 -1.7008  1.3321
  237MOL    C6828860   2.612   4.255   5.865 -0.9973  0.5755 -0.3652
  237MOL    C6928861   2.659   4.128   5.797  0.2636 -0.0527 -0.9500
  237MOL    F7028862   2.734   4.063   5.884  0.3909  0.3274 -0.3112
  237MOL    H7128863   2.697   4.299   5.917 -0.7847  0.2655 -0.4486
  237MOL    H7228864   2.547   4.239   5.951  0.9968  0.9325  1.2620
  237MOL    H7328865   2.722   4.148   5.711  0.7333  2.8711 -0.0059
  237MOL    C7428866   2.531   4.055   5.752 -0.0090 -0.1665  0.2129
  237MOL    C7528867   2.562   3.922   5.688 -0.6536 -0.2273  0.1466
  237MOL    F7628868   2.448   3.855   5.658 -0.3053  0.5773  0.2996
  237MOL    H7728869   2.467   4.027   5.837 -0.7960  0.7108 -0.0842
  237MOL    H7828870   2.477   4.118   5.682  1.2198  0.8576  0.1682
  237MOL    H7928871   2.613   3.863   5.765  1.3900  0.6022 -0.5389
  237MOL    C8028872   2.657   3.926   5.566  0.4757  0.7902 -0.3326
  237MOL    C8128873   2.601   4.003   5.449  0.3701 -0.1648 -0.7867
  237MOL    F8228874   2.600   4.131   5.486 -0.2344  0.4130 -0.3998
  237MOL    H8328875   2.755   3.967   5.591  1.9367 -2.8509  0.2551
  237MOL    H8428876   2.683   3.824   5.537  4.4741  1.6677 -0.2231
  237MOL    H8528877   2.501   3.969   5.425  0.0196  0.5851 -0.4083
  237MOL    C8628878   2.687   3.976   5.326  0.3206 -0.2496 -0.3498
  237MOL    C8728879   2.632   4.034   5.190 -0.2031  0.0109 -0.7874
  237MOL    F8828880   2.620   4.166   5.195 -0.0040 -0.2172  0.3749
  237MOL    H8928881   2.794   3.988   5.342  0.0679  2.7176 -0.6321
  237MOL    H9028882   2.684   3.867   5.317  1.0233 -0.5338  2.2771
  237MOL    H9128883   2.532   4.000   5.166 -0.9294  2.0737 -0.7204
  237MOL    C9228884   2.705   3.996   5.055 -0.4980 -0.0199  0.1671
  237MOL    C9328885   2.728   3.847   5.029  0.2545  0.2306  0.8629
  237MOL    F9428886   2.624   3.772   5.048 -0.4343  0.6281  0.3677
  237MOL    H9528887   2.647   4.032   4.970 -0.6268 -0.5318  0.0391
  237MOL    H9628888   2.796   4.053   5.034 -0.5868 -0.5507 -1.7177
  237MOL    H9728889   2.796   3.812   5.107 -0.7636  1.2488  2.2361
  237MOL    C9828890   2.804   3.824   4.894 -0.0082 -0.4840 -0.6424
  237MOL    C9928891   2.833   3.668   4.864  0.8268 -1.0615 -0.1195
  237MOL   F10028892   2.709   3.616   4.851 -0.2807 -0.7303 -0.3476
  237MOL   H10128893   2.742   3.863   4.814  0.5554 -2.4234 -2.0682
  237MOL   H10228894   2.897   3.882   4.901  0.7624 -1.9671  2.5297
  237MOL   H10328895   2.881   3.629   4.953 -0.8013 -1.0725  0.7814
  237MOL   C10428896   2.915   3.647   4.734 -0.0695  0.3777 -0.1036
  237MOL   C10528897   3.069   3.665   4.751 -0.5667 -0.3171  0.1638
  237MOL   F10628898   3.105   3.597   4.859  0.0749  0.0912  0.1466
  237MOL   H10728899   2.903   3.540   4.718 -0.2789  0.0607  2.0207
  237MOL   H10828900   2.868   3.703   4.653 -0.2291  1.2712  0.6023
  237MOL   H10928901   3.093   3.770   4.765  0.1959 -0.4957  0.2072
  237MOL   C11028902   3.154   3.603   4.640  0.5043 -0.9612 -0.2190
  237MOL   C11128903   3.303   3.647   4.647 -0.4302  0.0116 -0.0301
  237MOL   F11228904   3.310   3.777   4.626 -0.0281  0.0433 -0.5011
  237MOL   H11328905   3.150   3.494   4.641 -0.3160 -0.9334 -0.2500
  237MOL   H11428906   3.120   3.636   4.542  0.2230  2.0266  0.8413
  237MOL   H11528907   3.366   3.606   4.567  0.9238  0.3726  0.8466
  237MOL   C11628908   3.387   3.618   4.780  0.2913  0.0716 -0.5081
  237MOL   C11728909   3.535   3.663   4.759  0.1413 -0.0474  0.2820
  237MOL   F11828910   3.587   3.662   4.879  0.1974  0.2722 -0.2049
  237MOL   H11928911   3.345   3.670   4.866  1.0105 -2.6358  1.5709
  237MOL   H12028912   3.375   3.512   4.804  0.9454  0.3996  1.3469
  237MOL   H12128913   3.546   3.766   4.726  0.4290 -0.4671 -0.9785
  237MOL   H12228914   3.598   3.597   4.699 -1.4410 -0.8665 -0.4898
  238MOL     C128915   6.246   4.083   3.570 -0.2235 -1.0822 -0.0608
  238MOL     C228916   6.190   4.070   3.432 -0.5143 -0.0439  0.1710
  238MOL     F328917   6.282   4.033   3.345 -0.1711 -0.1839 -0.3978
  238MOL     H428918   6.291   3.990   3.604  0.4918 -1.3345 -1.6562
  238MOL     H528919   6.166   4.125   3.630  0.8471 -0.4269  0.9267
  238MOL     H628920   6.155   4.163   3.388 -0.2091 -0.8842 -1.8781
  238MOL     H728921   6.328   4.154   3.560 -0.8905 -0.2756  0.2298
  238MOL     C828922   6.075   3.965   3.446 -0.7102  0.0892  0.1679
  238MOL     C928923   5.983   3.952   3.317 -0.2287 -0.2848 -0.5196
  238MOL    F1028924   5.935   4.077   3.300  0.5788  0.0533  0.1324
  238MOL    H1128925   6.115   3.865   3.462  1.5737  1.1132  1.0223
  238MOL    H1228926   6.014   3.987   3.533  0.4892  1.6182  0.6245
  238MOL    H1328927   5.897   3.898   3.355  0.5632 -0.1697  1.4845
  238MOL    C1428928   6.043   3.908   3.185  0.2603  0.0589  0.0583
  238MOL    C1528929   6.093   3.763   3.177 -0.0031 -0.3162  1.0722
  238MOL    F1628930   5.988   3.691   3.200 -0.2102 -0.1645 -0.4313
  238MOL    H1728931   5.965   3.910   3.109 -0.3214  0.5580  0.6720
  238MOL    H1828932   6.119   3.981   3.155 -0.1365  0.3783 -0.1789
  238MOL    H1928933   6.165   3.739   3.255 -0.8866 -1.1375  1.6460
  238MOL    C2028934   6.155   3.721   3.031  0.6220  0.2879  0.1498
  238MOL    C2128935   6.295   3.771   2.998 -0.1126 -0.2896  1.2724
  238MOL    F2228936   6.368   3.725   3.096 -0.1749 -0.0488  1.0010
  238MOL    H2328937   6.150   3.612   3.021 -0.1481  0.2843  0.5139
  238MOL    H2428938   6.090   3.765   2.956 -1.0374 -1.9036  0.2609
  238MOL    H2528939   6.298   3.880   3.005  3.9282 -0.1808 -0.4325
  238MOL    C2628940   6.349   3.740   2.853  0.5529 -0.0796 -0.1448
  238MOL    C2728941   6.316   3.862   2.754 -0.3709  1.6158  0.2642
  238MOL    F2828942   6.400   3.958   2.795 -0.1484  0.1613 -0.1356
  238MOL    H2928943   6.457   3.730   2.865  0.5478 -0.1043 -0.1171
  238MOL    H3028944   6.308   3.646   2.815  1.6216  0.0783 -1.7065
  238MOL    H3128945   6.211   3.891   2.762 -0.0723  2.6145  0.6638
  238MOL    C3228946   6.350   3.823   2.604  0.5075 -0.2089 -0.7135
  238MOL    C3328947   6.472   3.742   2.570  0.0783  0.8429 -0.6090
  238MOL    F3428948   6.438   3.622   2.586  0.0285 -0.2693  0.4937
  238MOL    H3528949   6.255   3.792   2.560 -0.3499 -0.2024  1.1116
  238MOL    H3628950   6.362   3.921   2.557  0.7381 -0.1936 -0.6240
  238MOL    H3728951   6.555   3.755   2.640 -0.2411 -1.6380  0.2763
  238MOL    C3828952   6.521   3.758   2.429 -0.9559  0.9704  0.4320
  238MOL    C3928953   6.621   3.649   2.369 -0.4071 -0.3134  0.6036
  238MOL    F4028954   6.679   3.685   2.256 -0.4346  0.3041  0.0964
  238MOL    H4128955   6.439   3.756   2.357  0.8813  2.8953 -1.8105
  238MOL    H4228956   6.560   3.859   2.421  1.5964 -0.1518 -1.8634
  238MOL    H4328957   6.559   3.560   2.354 -0.3548 -0.3050  0.3302
  238MOL    C4428958   6.729   3.610   2.468  0.2955 -0.1884 -0.2693
  238MOL    C4528959   6.831   3.716   2.508 -0.0375  0.1637 -0.3154
  238MOL    F4628960   6.777   3.770   2.616 -1.0037 -0.3935  0.5568
  238MOL    H4728961   6.677   3.552   2.545  0.0369 -2.0163 -1.7769
  238MOL    H4828962   6.782   3.524   2.425  0.5139  0.7468 -1.9241
  238MOL    H4928963   6.834   3.801   2.439  0.6961  0.3253 -0.0887
  238MOL    C5028964   6.979   3.666   2.530  0.3068 -0.1809  0.0295
  238MOL    C5128965   7.050   3.624   2.404 -0.6866 -0.1070  0.0121
  238MOL    F5228966   7.054   3.734   2.322  0.1473 -0.0236 -0.2628
  238MOL    H5328967   7.038   3.736   2.590  0.5946 -1.2601  1.0083
  238MOL    H5428968   6.973   3.594   2.611 -0.9596 -0.3328 -0.1806
  238MOL    H5528969   7.009   3.539   2.348  1.5800 -0.6484 -0.8941
  238MOL    C5628970   7.191   3.583   2.447  0.3596  0.3802  0.4955
  238MOL    C5728971   7.215   3.445   2.513  0.1592  0.6998  0.3527
  238MOL    F5828972   7.181   3.340   2.436 -0.5504  0.3262  0.4926
  238MOL    H5928973   7.235   3.567   2.349  0.0321 -0.1713  0.4378
  238MOL    H6028974   7.238   3.662   2.506  1.6658  1.3084 -1.7031
  238MOL    H6128975   7.143   3.429   2.593 -0.7982 -2.2032 -1.0259
  238MOL    C6228976   7.354   3.428   2.565  0.1145  0.1561  0.0471
  238MOL    C6328977   7.372   3.301   2.631 -0.3340  0.6757 -0.2899
  238MOL    F6428978   7.506   3.286   2.647 -0.3671 -0.2599 -0.5109
  238MOL    H6528979   7.420   3.413   2.479  0.5266 -0.5334  0.4808
  238MOL    H6628980   7.392   3.514   2.618  1.6440 -0.1886 -0.4709
  238MOL    H6728981   7.344   3.216   2.569  0.4875  0.9439 -1.0384
  238MOL    C6828982   7.316   3.266   2.773  0.0519 -0.2059 -0.3589
  238MOL    C6928983   7.344   3.373   2.883  0.0611 -0.1199  0.1236
  238MOL    F7028984   7.264   3.476   2.867  0.4787  0.3714  0.2481
  238MOL    H7128985   7.210   3.241   2.774  0.1192 -0.4847 -0.0880
  238MOL    H7228986   7.365   3.179   2.817  0.9592  0.7074  0.4595
  238MOL    H7328987   7.447   3.403   2.864  0.0773 -0.0584  0.3040
  238MOL    C7428988   7.330   3.324   3.034  0.1596  0.0893  0.6854
  238MOL    C7528989   7.188   3.300   3.084 -0.6360  0.2849  0.4569
  238MOL    F7628990   7.160   3.192   3.012 -0.1110 -0.1456  0.1436
  238MOL    H7728991   7.387   3.232   3.046  0.3227  0.0455 -0.3917
  238MOL    H7828992   7.382   3.399   3.093 -0.6729  1.3852 -0.2010
  238MOL    H7928993   7.119   3.380   3.057  1.8280  2.7721  1.3621
  238MOL    C8028994   7.192   3.272   3.238 -0.2045 -0.4396  0.2355
  238MOL    C8128995   7.060   3.251   3.302  0.2246  0.2267 -0.0320
  238MOL    F8228996   6.993   3.362   3.273  0.5066  0.1869 -0.1256
  238MOL    H8328997   7.254   3.184   3.251  2.4702  1.3588 -0.0808
  238MOL    H8428998   7.236   3.359   3.284 -2.5152  1.3422 -0.8017
  238MOL    H8528999   7.060   3.245   3.411 -1.8693  0.9579  0.0504
  238MOL    C8629000   6.984   3.124   3.249  1.2703 -0.4499 -0.2190
  238MOL    C8729001   6.878   3.060   3.351 -0.3435  0.7409 -0.3308
  238MOL    F8829002   6.764   3.138   3.346 -0.1379  0.2895 -0.1166
  238MOL    H8929003   6.940   3.154   3.154  2.6514 -2.1932 -1.4178
  238MOL    H9029004   7.060   3.051   3.223  1.9736  0.0015  0.5169
  238MOL    H9129005   6.924   3.062   3.450  0.6249  1.5774 -0.7982
  238MOL    C9229006   6.845   2.920   3.317  0.7999  0.4371 -0.2572
  238MOL    C9329007   6.751   2.897   3.194  0.4455  0.0064 -0.0620
  238MOL    F9429008   6.772   2.774   3.144  0.1525 -0.0072 -0.0196
  238MOL    H9529009   6.937   2.866   3.293  0.7679  0.4574 -0.4239
  238MOL    H9629010   6.791   2.869   3.397  0.4588 -0.2579 -0.9222
  238MOL    H9729011   6.788   2.960   3.113  1.0554  0.3395  0.4626
  238MOL    C9829012   6.599   2.917   3.219 -0.8498 -0.5915  1.2049
  238MOL    C9929013   6.514   2.886   3.090 -0.0330  0.2341  0.6916
  238MOL   F10029014   6.385   2.912   3.097  0.3393  0.0518 -0.2677
  238MOL   H10129015   6.565   2.843   3.292 -0.3667 -1.3441  0.6715
  238MOL   H10229016   6.577   3.017   3.256 -0.3583 -0.2378  0.5472
  238MOL   H10329017   6.525   2.779   3.072  0.4330  0.4095 -0.1232
  238MOL   C10429018   6.555   2.968   2.968 -0.2306 -0.5836  0.4370
  238MOL   C10529019   6.639   2.895   2.861 -0.6644 -0.4043 -0.1376
  238MOL   F10629020   6.576   2.789   2.816 -0.6525 -0.2314 -0.1401
  238MOL   H10729021   6.473   3.012   2.912 -1.1070 -3.2190 -0.4131
  238MOL   H10829022   6.601   3.056   3.014  2.4717 -1.0270 -1.2740
  238MOL   H10929023   6.733   2.866   2.908  0.3416  1.7499 -0.7469
  238MOL   C11029024   6.662   2.985   2.735  0.2535 -0.1527  0.1593
  238MOL   C11129025   6.762   3.102   2.760 -0.0613 -0.1549  0.4343
  238MOL   F11229026   6.869   3.052   2.811 -0.1310  0.3087  0.4068
  238MOL   H11329027   6.686   2.919   2.651  1.0721  1.4780 -0.9069
  238MOL   H11429028   6.564   3.019   2.703  1.9264  2.8067 -2.0948
  238MOL   H11529029   6.729   3.172   2.837  1.1543 -0.1379  0.9449
  238MOL   C11629030   6.796   3.176   2.632  0.0735  0.5979 -0.0477
  238MOL   C11729031   6.869   3.303   2.660 -0.0292 -0.1501 -0.1242
  238MOL   F11829032   6.924   3.356   2.550 -0.0322 -0.3980 -0.0054
  238MOL   H11929033   6.869   3.125   2.569  0.4308  1.9111 -0.7194
  238MOL   H12029034   6.714   3.216   2.572  0.3764  2.4943  0.7782
  238MOL   H12129035   6.956   3.287   2.724 -0.1476  0.0443  0.0853
  238MOL   H12229036   6.812   3.375   2.718  0.6771  0.4773 -0.2139
  239MOL     C129037   7.561   5.730   3.401 -0.0572  0.4443  0.2726
  239MOL     C229038   7.686   5.771   3.451 -0.8870  0.0062  0.1509
  239MOL     F329039   7.661   5.868   3.539 -0.4398  0.1969 -0.4656
  239MOL     H429040   7.513   5.810   3.344 -0.4366 -1.4849 -2.2004
  239MOL     H529041   7.486   5.686   3.467 -0.5339 -1.7997 -1.7008
  239MOL     H629042   7.741   5.811   3.365 -2.2416  1.4060 -0.0820
  239MOL     H729043   7.573   5.655   3.324  0.5113 -0.7345  1.4859
  239MOL     C829044   7.768   5.659   3.513 -0.1262 -0.2079  0.1224
  239MOL     C929045   7.919   5.690   3.514 -0.5111  0.1162 -0.0288
  239MOL    F1029046   7.937   5.806   3.572  0.3553  0.4718 -0.2497
  239MOL    H1129047   7.736   5.635   3.615  0.2185 -0.4524  0.1715
  239MOL    H1229048   7.756   5.571   3.450 -1.5447  0.0138  0.0730
  239MOL    H1329049   7.962   5.701   3.414 -0.1663 -1.9502 -0.1215
  239MOL    C1429050   7.998   5.593   3.603  0.2054  0.2516 -0.1552
  239MOL    C1529051   0.149   5.611   3.595 -0.1228 -0.4892  0.9785
  239MOL    F1629052   0.195   5.523   3.681 -0.0817 -0.0386 -0.0947
  239MOL    H1729053   7.969   5.611   3.706  0.5156 -1.6501  0.2842
  239MOL    H1829054   7.967   5.490   3.588  0.6366  0.2341 -0.9467
  239MOL    H1929055   0.192   5.708   3.620 -0.2271 -0.8435  2.6051
  239MOL    C2029056   0.200   5.572   3.449  0.2377  0.2064 -0.7769
  239MOL    C2129057   0.353   5.557   3.429 -0.1810 -0.0865  0.0057
  239MOL    F2229058   0.390   5.446   3.487 -0.0938 -0.3840 -0.3164
  239MOL    H2329059   0.156   5.482   3.407 -1.2382 -0.8276  2.7298
  239MOL    H2429060   0.174   5.661   3.393 -0.0296 -0.1886 -1.2855
  239MOL    H2529061   0.417   5.638   3.463  0.1983 -1.4258  2.6311
  239MOL    C2629062   0.391   5.537   3.283  0.1516  0.0621  0.4692
  239MOL    C2729063   0.346   5.646   3.177 -0.4832  0.2362 -0.0834
  239MOL    F2829064   0.413   5.759   3.211  0.1484  0.1260 -0.0257
  239MOL    H2929065   0.499   5.531   3.265  0.3455  0.3222  1.5359
  239MOL    H3029066   0.361   5.435   3.261 -1.9568  0.9081 -0.6713
  239MOL    H3129067   0.238   5.651   3.190 -0.9011 -1.7434 -2.4621
  239MOL    C3229068   0.393   5.602   3.038  0.4376  0.7648  0.0161
  239MOL    C3329069   0.336   5.706   2.931  0.2553  0.5485  0.7637
  239MOL    F3429070   0.405   5.820   2.946  0.3774  0.4506  0.1349
  239MOL    H3529071   0.499   5.596   3.016  0.2695  0.6965 -0.7617
  239MOL    H3629072   0.356   5.501   3.024  0.0370  1.1463 -1.7931
  239MOL    H3729073   0.232   5.736   2.944 -0.0281 -0.1340  0.1118
  239MOL    C3829074   0.356   5.661   2.792 -0.6787  0.8113  0.0904
  239MOL    C3929075   0.253   5.561   2.730  0.2553 -0.8409 -0.2201
  239MOL    F4029076   0.126   5.608   2.737 -0.2774 -0.3514  0.2259
  239MOL    H4129077   0.335   5.747   2.728 -2.4470  1.3778  1.3856
  239MOL    H4229078   0.458   5.630   2.775 -0.7119  1.7001 -1.9141
  239MOL    H4329079   0.267   5.469   2.787  0.6164 -1.1744 -0.8259
  239MOL    C4429080   0.266   5.533   2.579  0.3703  0.0159 -0.4620
  239MOL    C4529081   0.180   5.416   2.526  0.0625  0.1315 -0.0255
  239MOL    F4629082   0.159   5.443   2.392  0.3868 -0.6434  0.5795
  239MOL    H4729083   0.236   5.620   2.521  0.5977  0.3424 -0.0957
  239MOL    H4829084   0.371   5.532   2.549  0.7259 -0.1832  0.7565
  239MOL    H4929085   0.083   5.417   2.576  0.8022 -0.2380  1.4583
  239MOL    C5029086   0.240   5.280   2.541  0.2398  0.5793  0.2190
  239MOL    C5129087   0.142   5.163   2.522 -0.1230 -0.2694  0.2064
  239MOL    F5229088   0.049   5.159   2.612 -0.7424 -0.2455 -0.2267
  239MOL    H5329089   0.319   5.265   2.469  0.6734 -0.8059  0.9530
  239MOL    H5429090   0.281   5.269   2.642 -1.2644 -0.0304  0.7886
  239MOL    H5529091   0.185   5.064   2.536  1.8751  0.7340  1.5708
  239MOL    C5629092   0.074   5.165   2.383  0.4610  1.1264  0.4745
  239MOL    C5729093   8.002   5.033   2.345 -0.1213  0.1408  1.0003
  239MOL    F5829094   0.074   4.930   2.381  0.2458  0.1233  0.0971
  239MOL    H5929095   0.012   5.253   2.366 -2.1171 -0.8305 -0.4736
  239MOL    H6029096   0.158   5.174   2.314  0.6673 -0.2556  0.5376
  239MOL    H6129097   0.003   5.021   2.237 -0.0523  0.3265  0.9830
  239MOL    C6229098   7.853   5.030   2.409  0.0031  0.9293 -0.1207
  239MOL    C6329099   7.753   4.929   2.361  0.0454 -0.4030  0.1213
  239MOL    F6429100   7.781   4.817   2.421  0.3907  0.3384  0.7681
  239MOL    H6529101   7.852   5.033   2.518 -2.1858 -0.3355 -0.0906
  239MOL    H6629102   7.813   5.125   2.374  0.6741  2.5818  3.3374
  239MOL    H6729103   7.768   4.912   2.254 -1.5179  0.1293 -0.1958
  239MOL    C6829104   7.612   4.961   2.407 -0.1446 -0.9021 -0.0090
  239MOL    C6929105   7.506   4.849   2.375 -0.1910 -0.1123 -0.2182
  239MOL    F7029106   7.534   4.745   2.451  0.2970  0.4335  0.0738
  239MOL    H7129107   7.599   5.005   2.506  0.9936 -0.5930  0.0015
  239MOL    H7229108   7.584   5.037   2.335  1.7257 -2.8310 -2.8898
  239MOL    H7329109   7.528   4.820   2.272  2.4674 -2.4003  0.9133
  239MOL    C7429110   7.363   4.899   2.401 -0.2251 -0.1534  0.1048
  239MOL    C7529111   7.249   4.812   2.341 -0.5805  0.2611 -0.2627
  239MOL    F7629112   7.268   4.690   2.390 -0.6911 -0.0259 -0.4892
  239MOL    H7729113   7.334   4.908   2.506 -0.0379 -1.1222  0.2489
  239MOL    H7829114   7.352   4.999   2.360  0.4482  0.0201  0.3398
  239MOL    H7929115   7.281   4.779   2.242  0.3075 -1.5220  0.5951
  239MOL    C8029116   7.105   4.864   2.362 -0.2614 -1.0863 -0.1656
  239MOL    C8129117   7.066   5.000   2.292  0.9285  0.0987 -0.0642
  239MOL    F8229118   7.117   5.001   2.171 -0.4639 -0.0208 -0.2109
  239MOL    H8329119   7.031   4.797   2.319 -2.5942  0.3214  1.4834
  239MOL    H8429120   7.096   4.869   2.471 -0.1598  0.3036 -0.2007
  239MOL    H8529121   7.118   5.085   2.337  3.5042 -0.9474 -0.9584
  239MOL    C8629122   6.923   5.040   2.306 -0.3490 -1.1838  0.4568
  239MOL    C8729123   6.885   5.186   2.278 -0.1704 -0.7673 -0.7571
  239MOL    F8829124   6.916   5.214   2.151  0.2348 -0.3777  0.4145
  239MOL    H8929125   6.871   4.977   2.233  1.3039 -0.7747 -1.1206
  239MOL    H9029126   6.891   5.024   2.409 -1.4565  2.3169  0.7342
  239MOL    H9129127   6.937   5.260   2.339  1.0533 -1.3089 -1.1399
  239MOL    C9229128   6.729   5.211   2.296 -0.2965 -0.7427 -0.7237
  239MOL    C9329129   6.679   5.350   2.241  0.0118  0.7649  0.9163
  239MOL    F9429130   6.548   5.359   2.255 -0.0136 -0.8976  0.4871
  239MOL    H9529131   6.670   5.130   2.250 -1.2144 -1.8975  2.3899
  239MOL    H9629132   6.713   5.193   2.402 -0.6900 -0.1185 -0.6743
  239MOL    H9729133   6.695   5.352   2.133  0.3936 -1.4047  0.9200
  239MOL    C9829134   6.740   5.485   2.293 -0.0875  0.4823 -0.3488
  239MOL    C9929135   6.715   5.508   2.446 -0.0848  0.1417 -0.4734
  239MOL   F10029136   6.781   5.405   2.509 -0.2864 -0.4435  0.5075
  239MOL   H10129137   6.845   5.487   2.263 -0.7753  2.0709 -2.8873
  239MOL   H10229138   6.694   5.564   2.233  0.9682  2.2668  1.1342
  239MOL   H10329139   6.613   5.488   2.480  0.2728 -1.1491 -0.1558
  239MOL   C10429140   6.757   5.653   2.487 -0.0735  0.2081  0.1559
  239MOL   C10529141   6.722   5.700   2.628 -0.5514  0.4598  0.0230
  239MOL   F10629142   6.768   5.818   2.655  0.0831 -0.1740 -0.1003
  239MOL   H10729143   6.865   5.659   2.497 -0.1800  1.1120  0.8883
  239MOL   H10829144   6.731   5.722   2.407  1.7588  0.2213 -0.4532
  239MOL   H10929145   6.752   5.617   2.693 -0.8090 -0.1516 -0.6351
  239MOL   C11029146   6.568   5.717   2.651 -0.1011 -0.3202 -0.7634
  239MOL   C11129147   6.524   5.781   2.788  0.0928 -0.0744  0.3224
  239MOL   F11229148   6.401   5.830   2.791 -0.1499 -0.2509 -0.3640
  239MOL   H11329149   6.531   5.779   2.569  0.2200 -2.0026 -2.2053
  239MOL   H11429150   6.517   5.624   2.625 -0.6406  0.6570 -3.3958
  239MOL   H11529151   6.579   5.873   2.806 -0.9465  0.6350 -0.0955
  239MOL   C11629152   6.528   5.673   2.895 -0.3780 -0.3987  0.9220
  239MOL   C11729153   6.485   5.721   3.028 -0.4147  0.3605 -0.0327
  239MOL   F11829154   6.359   5.727   3.031  0.7351 -0.0824  0.2186
  239MOL   H11929155   6.465   5.587   2.872 -1.8788  0.7419  0.6958
  239MOL   H12029156   6.635   5.651   2.887  0.2127  2.7694 -0.7915
  239MOL   H12129157   6.524   5.822   3.043 -1.9312  1.1514 -1.3570
  239MOL   H12229158   6.508   5.655   3.112 -1.3988  0.9632  0.7231
  240MOL     C129159   2.972   3.419   5.211 -0.3790 -0.0359  0.2917
  240MOL     C229160   3.077   3.525   5.248  0.3012 -0.0029  0.3683
  240MOL     F329161   3.047   3.581   5.372  0.4116  0.3692 -0.0108
  240MOL     H429162   2.870   3.451   5.190 -0.0616  1.1264  0.4972
  240MOL     H529163   2.962   3.337   5.282 -0.8687  0.0475  0.3174
  240MOL     H629164   3.069   3.599   5.169  0.6423  0.4846  0.7807
  240MOL     H729165   2.997   3.384   5.111 -0.4999  0.5364  0.0609
  240MOL     C829166   3.222   3.464   5.255 -0.1333  0.2376 -0.8571
  240MOL     C929167   3.344   3.554   5.285  0.0745  0.1094  0.3843
  240MOL    F1029168   3.442   3.473   5.309 -0.2130 -0.7474 -0.8916
  240MOL    H1129169   3.221   3.382   5.326  1.2450  1.0668  0.1676
  240MOL    H1229170   3.244   3.415   5.161 -0.0382 -0.1563 -0.6299
  240MOL    H1329171   3.338   3.612   5.378 -1.2603 -0.3657  0.6109
  240MOL    C1429172   3.383   3.655   5.167 -0.0105  0.1474  0.1579
  240MOL    C1529173   3.504   3.750   5.180  0.5167  0.5587  0.1452
  240MOL    F1629174   3.469   3.823   5.288 -0.0430  0.1876 -0.2323
  240MOL    H1729175   3.408   3.595   5.079  1.5797  1.1052 -0.0714
  240MOL    H1829176   3.291   3.712   5.154 -0.6560 -1.0592 -0.6537
  240MOL    H1929177   3.489   3.824   5.101  0.0631 -0.4992 -0.7758
  240MOL    C2029178   3.644   3.687   5.197  0.1312  0.4947 -0.2559
  240MOL    C2129179   3.757   3.796   5.191 -0.6172  0.2959  0.2917
  240MOL    F2229180   3.738   3.875   5.288  0.2035  0.2690 -0.0233
  240MOL    H2329181   3.645   3.623   5.286  0.5721  0.2359 -0.4429
  240MOL    H2429182   3.655   3.632   5.104 -1.3125  0.0895 -0.1907
  240MOL    H2529183   3.746   3.855   5.100 -1.7326 -0.4895 -0.0881
  240MOL    C2629184   3.899   3.738   5.213  0.5019  0.6132 -0.0090
  240MOL    C2729185   3.949   3.636   5.118  0.3436 -0.3694 -0.7832
  240MOL    F2829186   3.909   3.681   5.000  0.1789  0.4155 -0.1907
  240MOL    H2929187   3.969   3.821   5.212  0.9182  0.2647  0.3429
  240MOL    H3029188   3.902   3.688   5.309 -1.3629  3.9434  1.8996
  240MOL    H3129189   3.899   3.540   5.134  2.6876 -1.2669  1.4031
  240MOL    C3229190   4.098   3.600   5.114 -0.9332 -0.1851 -0.0446
  240MOL    C3329191   4.140   3.512   4.990 -0.3511 -0.1662  1.0301
  240MOL    F3429192   4.212   3.591   4.906  0.6938 -0.0126 -0.2498
  240MOL    H3529193   4.146   3.698   5.115 -1.6686  0.1678  2.5344
  240MOL    H3629194   4.130   3.549   5.205 -0.9218 -0.5973 -0.2752
  240MOL    H3729195   4.053   3.482   4.931 -0.1248  0.1832  0.5197
  240MOL    C3829196   4.233   3.392   5.016 -0.2917 -0.0411  0.2073
  240MOL    C3929197   4.309   3.340   4.887 -0.5268 -0.0197 -0.0929
  240MOL    F4029198   4.406   3.260   4.924  0.1989 -0.5370 -0.0947
  240MOL    H4129199   4.307   3.425   5.089 -0.9480  0.5312  0.6260
  240MOL    H4229200   4.182   3.308   5.063  0.3312 -0.5958 -0.1099
  240MOL    H4329201   4.362   3.429   4.852  0.5191 -0.0707  1.3137
  240MOL    C4429202   4.225   3.272   4.773  0.5935 -0.0692 -0.0464
  240MOL    C4529203   4.301   3.269   4.639  0.4373 -0.0071 -0.2569
  240MOL    F4629204   4.396   3.181   4.661 -0.2742 -0.4477  0.3610
  240MOL    H4729205   4.177   3.176   4.790 -0.5648  0.4884 -0.1329
  240MOL    H4829206   4.132   3.329   4.762  0.5553  0.3536  2.1267
  240MOL    H4929207   4.354   3.362   4.620 -0.9190  0.8379  0.0656
  240MOL    C5029208   4.210   3.229   4.521  0.0588 -0.4764  0.0217
  240MOL    C5129209   4.099   3.335   4.481 -0.0369  0.6317 -0.6952
  240MOL    F5229210   4.006   3.339   4.566  0.3473  0.2687 -0.0386
  240MOL    H5329211   4.273   3.210   4.434 -1.8165 -3.3160 -0.8115
  240MOL    H5429212   4.157   3.135   4.533 -1.2157 -0.3736 -3.9804
  240MOL    H5529213   4.051   3.276   4.404 -0.1381 -0.2874  0.0577
  240MOL    C5629214   4.147   3.459   4.415  0.1634  0.5562 -0.1418
  240MOL    C5729215   4.180   3.449   4.263  0.8358  0.5961  0.2852
  240MOL    F5829216   4.083   3.380   4.202 -0.0767  0.0855 -0.0997
  240MOL    H5929217   4.068   3.534   4.424  1.3211  2.0240 -1.7465
  240MOL    H6029218   4.231   3.505   4.469  0.1633 -0.5292  0.8012
  240MOL    H6129219   4.265   3.390   4.232 -0.3275 -1.9404  1.7826
  240MOL    C6229220   4.180   3.592   4.214  0.1414  0.1314  0.6178
  240MOL    C6329221   4.212   3.610   4.066  0.1368  0.2521  0.0984
  240MOL    F6429222   4.114   3.561   3.996  0.4715 -0.5764  0.6002
  240MOL    H6529223   4.078   3.625   4.237 -0.4983  0.1184 -2.0571
  240MOL    H6629224   4.250   3.641   4.282  1.4533  0.6430 -1.0788
  240MOL    H6729225   4.303   3.553   4.046  1.0548  1.9076 -0.5321
  240MOL    C6829226   4.236   3.756   4.020 -0.7807 -0.2282 -0.3691
  240MOL    C6929227   4.370   3.799   4.080  0.6654  0.5052 -0.5275
  240MOL    F7029228   4.475   3.710   4.068  0.2941 -0.2499 -0.4088
  240MOL    H7129229   4.248   3.763   3.912  3.3595 -2.9445 -0.2081
  240MOL    H7229230   4.153   3.818   4.053  1.6394  2.5713  0.6985
  240MOL    H7329231   4.345   3.802   4.186  1.9779 -1.0052 -0.1441
  240MOL    C7429232   4.416   3.946   4.034  0.4080  0.2963  0.0433
  240MOL    C7529233   4.429   3.972   3.884 -0.3590  0.1202  0.3691
  240MOL    F7629234   4.417   4.106   3.874 -0.0741 -0.0742 -0.7582
  240MOL    H7729235   4.350   4.020   4.078  0.1224 -1.3093  2.3923
  240MOL    H7829236   4.515   3.957   4.079  0.3521  0.1643  0.1961
  240MOL    H7929237   4.340   3.935   3.832 -1.3253  0.8159  1.5141
  240MOL    C8029238   4.549   3.926   3.815  1.1697 -0.5040  0.7946
  240MOL    C8129239   4.543   3.945   3.661 -0.1917  0.1083 -0.4075
  240MOL    F8229240   4.444   3.872   3.616  0.1594 -0.4336 -0.1885
  240MOL    H8329241   4.631   3.982   3.860 -1.4638  1.6163  3.1320
  240MOL    H8429242   4.573   3.823   3.841  0.0429 -0.6132  1.4296
  240MOL    H8529243   4.632   3.895   3.624  0.4007  0.1100  0.9992
  240MOL    C8629244   4.526   4.087   3.600  0.3676 -0.0139  0.7691
  240MOL    C8729245   4.651   4.168   3.629 -0.6137 -0.3024 -0.2809
  240MOL    F8829246   4.757   4.103   3.592 -0.7114 -0.1209  0.2967
  240MOL    H8929247   4.529   4.074   3.492  0.2877 -1.2228  0.9098
  240MOL    H9029248   4.437   4.138   3.637 -0.0386  0.4150 -0.7621
  240MOL    H9129249   4.665   4.199   3.732 -0.5795 -2.9144  0.5283
  240MOL    C9229250   4.654   4.301   3.550 -0.7042 -0.3576 -0.7817
  240MOL    C9329251   4.552   4.406   3.592 -0.1715 -0.2684 -0.2186
  240MOL    F9429252   4.551   4.412   3.725  0.0869  0.0026  0.0898
  240MOL    H9529253   4.755   4.341   3.554 -0.4684 -1.0259 -0.0224
  240MOL    H9629254   4.637   4.273   3.446 -1.0534  0.9325 -1.0808
  240MOL    H9729255   4.451   4.373   3.569  0.3918 -1.3449 -1.2012
  240MOL    C9829256   4.578   4.553   3.537 -0.7158  0.3473  0.0277
  240MOL    C9929257   4.539   4.569   3.382 -0.3496  0.1482  0.0830
  240MOL   F10029258   4.406   4.556   3.370  0.0722 -0.5017  0.3422
  240MOL   H10129259   4.528   4.619   3.608 -0.7033  0.0817  0.2852
  240MOL   H10229260   4.684   4.573   3.550 -0.7340  0.0587  0.6491
  240MOL   H10329261   4.576   4.475   3.340  0.8746  0.6885 -0.0400
  240MOL   C10429262   4.597   4.696   3.309  0.2233  0.1512  0.5263
  240MOL   C10529263   4.588   4.688   3.152  0.5213 -0.3888 -0.5114
  240MOL   F10629264   4.646   4.576   3.112  0.1823  0.1540 -1.4506
  240MOL   H10729265   4.544   4.784   3.345 -0.4007 -0.4975  1.2382
  240MOL   H10829266   4.699   4.706   3.344 -0.4769 -0.8597  2.9835
  240MOL   H10929267   4.658   4.767   3.124 -0.6905  1.9177  2.6223
  240MOL   C11029268   4.444   4.711   3.091 -0.0993  0.1615 -0.6000
  240MOL   C11129269   4.385   4.851   3.099 -0.1016 -0.0782 -1.1910
  240MOL   F11229270   4.441   4.939   3.019 -0.3547  0.0876  0.0062
  240MOL   H11329271   4.445   4.687   2.985  1.5041  0.0209 -0.5748
  240MOL   H11429272   4.376   4.638   3.133  0.7884 -0.4420 -0.1847
  240MOL   H11529273   4.416   4.887   3.197 -2.5361  0.0395 -0.4361
  240MOL   C11629274   4.238   4.846   3.065 -0.2412  0.1834 -0.9408
  240MOL   C11729275   4.190   4.818   2.919  0.1764 -0.4083 -0.0565
  240MOL   F11829276   4.201   4.683   2.903 -0.4481 -0.4800  0.5710
  240MOL   H11929277   4.194   4.783   3.142 -0.4010  2.5590  0.9833
  240MOL   H12029278   4.202   4.945   3.092 -1.0419 -0.5306  0.6270
  240MOL   H12129279   4.249   4.869   2.842  1.7044 -0.7198  0.8848
  240MOL   H12229280   4.087   4.849   2.899  0.3059 -0.1710 -0.3600
  241MOL     C129281   3.296   6.203   0.619  0.0456 -0.3543 -0.3115
  241MOL     C229282   3.423   6.280   0.621 -0.6596  0.6803  0.1141
  241MOL     F329283   3.512   6.218   0.537  0.2491 -0.5752  0.2151
  241MOL     H429284   3.254   6.196   0.519 -0.6645 -0.2380 -0.0229
  241MOL     H529285   3.215   6.234   0.686  1.2202  0.0743  0.9341
  241MOL     H629286   3.475   6.265   0.715  1.6301  0.2096 -1.1969
  241MOL     H729287   3.322   6.099   0.640 -0.4237 -0.2066  1.0473
  241MOL     C829288   3.403   6.422   0.573  0.2365 -0.2982 -0.2942
  241MOL     C929289   3.523   6.497   0.530 -0.3925 -0.3526  0.2792
  241MOL    F1029290   3.501   6.618   0.486 -0.2710  0.1692  0.6113
  241MOL    H1129291   3.331   6.427   0.491  0.4641 -0.7902 -0.5293
  241MOL    H1229292   3.361   6.472   0.660  3.1929  0.8672  0.5349
  241MOL    H1329293   3.570   6.445   0.446 -0.9634  1.1033 -0.9519
  241MOL    C1429294   3.615   6.522   0.654 -0.0095 -0.1429  0.3753
  241MOL    C1529295   3.752   6.597   0.623 -0.0318  0.3530 -0.3637
  241MOL    F1629296   3.809   6.603   0.742  0.1495 -0.6581 -0.5925
  241MOL    H1729297   3.560   6.578   0.730 -0.2536 -0.9614  0.8074
  241MOL    H1829298   3.652   6.432   0.702  0.3094 -0.9480 -1.3404
  241MOL    H1929299   3.730   6.700   0.592 -0.6338 -0.1290 -1.5481
  241MOL    C2029300   3.837   6.533   0.507  0.4626  0.0206  0.2800
  241MOL    C2129301   3.988   6.581   0.509 -0.0803  0.1543 -0.7713
  241MOL    F2229302   4.056   6.518   0.412 -0.5048  0.2264  0.1297
  241MOL    H2329303   3.826   6.424   0.509  0.1271  0.0598  0.8409
  241MOL    H2429304   3.804   6.578   0.414 -2.5114 -1.9741  0.2881
  241MOL    H2529305   4.026   6.549   0.606 -0.0444  1.2684 -0.4167
  241MOL    C2629306   4.014   6.733   0.486 -0.0454  0.2591 -0.5357
  241MOL    C2729307   4.165   6.778   0.476 -0.8412 -0.5708 -0.0937
  241MOL    F2829308   4.162   6.914   0.476  0.0510  0.1885 -0.3011
  241MOL    H2929309   3.973   6.747   0.386 -0.5051 -1.0274 -0.5373
  241MOL    H3029310   3.964   6.797   0.559  1.1987 -1.4267  1.8497
  241MOL    H3129311   4.205   6.745   0.380 -1.1643 -3.2671  0.6636
  241MOL    C3229312   4.263   6.734   0.589 -0.3002 -0.2239 -0.0684
  241MOL    C3329313   4.233   6.792   0.730 -0.2251  0.1479  0.2309
  241MOL    F3429314   4.120   6.733   0.768  0.5192  0.5450 -0.6072
  241MOL    H3529315   4.279   6.628   0.607 -0.0042  0.1744  2.2109
  241MOL    H3629316   4.364   6.771   0.573 -1.5044  3.4613  0.2988
  241MOL    H3729317   4.219   6.899   0.719 -1.1241 -0.0332 -0.3628
  241MOL    C3829318   4.339   6.772   0.837 -0.6485 -0.0710  0.1112
  241MOL    C3929319   4.300   6.859   0.964 -0.3489 -0.1284 -0.0526
  241MOL    F4029320   4.294   6.986   0.934 -0.1559  0.1969 -0.3407
  241MOL    H4129321   4.350   6.665   0.855  2.7174  0.3577  0.9927
  241MOL    H4229322   4.441   6.795   0.806  0.0537 -3.1944 -0.0867
  241MOL    H4329323   4.378   6.844   1.038 -0.5955  0.0881  0.2491
  241MOL    C4429324   4.170   6.817   1.028 -0.0193 -0.2302  0.1792
  241MOL    C4529325   4.170   6.667   1.076 -0.0812 -0.4089 -0.1392
  241MOL    F4629326   4.282   6.655   1.141 -0.2500 -0.9123  0.2330
  241MOL    H4729327   4.143   6.889   1.106  0.4793  0.3688 -0.1951
  241MOL    H4829328   4.084   6.826   0.961  0.7569  0.3246 -0.7549
  241MOL    H4929329   4.169   6.595   0.994 -2.7039 -0.8753  0.2673
  241MOL    C5029330   4.058   6.624   1.157  0.1954 -0.2743  0.1842
  241MOL    C5129331   3.941   6.555   1.086  0.0124  0.8353 -0.4588
  241MOL    F5229332   3.977   6.424   1.072  0.3900 -0.3538  0.1485
  241MOL    H5329333   4.087   6.560   1.241  0.0994  0.6038  0.8987
  241MOL    H5429334   4.022   6.720   1.194 -1.3567 -0.6576 -0.2889
  241MOL    H5529335   3.911   6.594   0.989 -2.0780 -1.2919 -0.7341
  241MOL    C5629336   3.819   6.560   1.176  0.5445  0.2657  0.4272
  241MOL    C5729337   3.696   6.486   1.112 -0.5479 -0.3161 -0.1521
  241MOL    F5829338   3.715   6.354   1.108  0.2992 -0.1606  0.0519
  241MOL    H5929339   3.839   6.518   1.275  0.1219 -1.6626 -0.2822
  241MOL    H6029340   3.793   6.665   1.188  0.8478  0.5358 -1.2156
  241MOL    H6129341   3.679   6.517   1.009  0.9073  3.3068  0.6343
  241MOL    C6229342   3.571   6.513   1.192  0.0418 -0.1554 -0.0084
  241MOL    C6329343   3.439   6.487   1.113  0.0412  0.3195 -0.3370
  241MOL    F6429344   3.440   6.564   1.003 -0.0331  0.3448  0.1845
  241MOL    H6529345   3.572   6.455   1.284  1.8852 -0.1393 -0.0001
  241MOL    H6629346   3.565   6.615   1.227  3.4689 -0.0593  0.4555
  241MOL    H6729347   3.351   6.517   1.169  1.8317 -0.4598  3.0453
  241MOL    C6829348   3.415   6.339   1.068 -0.5166  0.3057 -0.2261
  241MOL    C6929349   3.268   6.303   1.041 -0.0723  0.8594  0.1598
  241MOL    F7029350   3.248   6.334   0.912 -0.4159 -0.2605  0.2072
  241MOL    H7129351   3.477   6.315   0.982 -1.1483  0.8727 -0.8417
  241MOL    H7229352   3.441   6.278   1.155  1.3845  0.7335 -0.4735
  241MOL    H7329353   3.204   6.364   1.105 -3.9963 -0.6404 -2.1434
  241MOL    C7429354   3.239   6.155   1.078 -0.1868  0.0028  0.0183
  241MOL    C7529355   3.088   6.123   1.060 -0.5425 -0.4743  0.1535
  241MOL    F7629356   3.078   6.125   0.923 -0.0719 -0.2558  0.2521
  241MOL    H7729357   3.299   6.086   1.019  0.3202 -0.2851  0.8507
  241MOL    H7829358   3.267   6.145   1.183  0.2855  2.2707  0.1240
  241MOL    H7929359   3.028   6.203   1.103  0.0881 -0.2976  0.7042
  241MOL    C8029360   3.051   5.976   1.100 -0.3352  0.1354 -0.0136
  241MOL    C8129361   3.035   5.941   1.253  0.3514  0.0495 -0.8825
  241MOL    F8229362   2.929   6.010   1.297  0.0837 -0.0558 -0.5903
  241MOL    H8329363   2.953   5.952   1.059 -0.0856 -0.0697 -0.5070
  241MOL    H8429364   3.125   5.917   1.045  1.6465  0.0224  2.7033
  241MOL    H8529365   3.120   5.974   1.312 -0.7831  0.9794  0.2702
  241MOL    C8629366   3.014   5.794   1.292 -0.2624 -0.1005 -0.2957
  241MOL    C8729367   3.053   5.775   1.444 -0.2452 -0.3516  0.0145
  241MOL    F8829368   2.954   5.809   1.519 -0.0425  0.5308  0.0746
  241MOL    H8929369   2.911   5.760   1.277 -0.1318 -0.5076 -0.2907
  241MOL    H9029370   3.091   5.736   1.240 -0.3412  0.0013 -0.5266
  241MOL    H9129371   3.132   5.837   1.485 -0.4594 -0.5899  0.7989
  241MOL    C9229372   3.090   5.632   1.481 -0.3865  0.3045  0.2295
  241MOL    C9329373   3.158   5.611   1.625  0.7219 -0.0227  0.7028
  241MOL    F9429374   3.280   5.670   1.616 -0.1216 -0.0202  0.2556
  241MOL    H9529375   2.998   5.575   1.477  2.4718 -4.5330 -0.1462
  241MOL    H9629376   3.157   5.589   1.407  1.5047  0.7652  1.6315
  241MOL    H9729377   3.185   5.507   1.641  0.0236 -0.2228  0.5581
  241MOL    C9829378   3.077   5.673   1.736  0.3100  0.6524  0.5636
  241MOL    C9929379   3.118   5.636   1.878 -0.3121  0.2713 -0.1658
  241MOL   F10029380   3.251   5.665   1.888 -0.0047  0.2486  0.0305
  241MOL   H10129381   3.082   5.782   1.726 -2.6352  0.9622  1.8854
  241MOL   H10229382   2.974   5.638   1.727  1.3452 -2.5111  0.5012
  241MOL   H10329383   3.114   5.527   1.878 -2.0543  0.2920 -2.5392
  241MOL   C10429384   3.025   5.715   1.976  0.2643 -0.2864  0.3670
  241MOL   C10529385   2.879   5.663   1.991  0.4245  0.4090  0.2804
  241MOL   F10629386   2.881   5.537   2.021  0.6257  0.2517  0.0925
  241MOL   H10729387   3.055   5.700   2.080  1.0549 -1.0057  0.0425
  241MOL   H10829388   3.038   5.821   1.956 -0.1720  0.0496  1.7889
  241MOL   H10929389   2.839   5.676   1.890  2.9323  2.8839 -0.4384
  241MOL   C11029390   2.794   5.728   2.098  0.5029 -0.2724 -0.2408
  241MOL   C11129391   2.770   5.876   2.081 -0.6076 -0.0692  0.0181
  241MOL   F11229392   2.671   5.884   1.990  0.3759  0.1886  0.0996
  241MOL   H11329393   2.703   5.669   2.106 -1.3103  2.4074 -0.4294
  241MOL   H11429394   2.836   5.704   2.195 -1.3832  0.2128  0.7215
  241MOL   H11529395   2.855   5.930   2.040  0.4881 -0.8743  1.1984
  241MOL   C11629396   2.707   5.938   2.204 -0.0062  0.0085 -0.1191
  241MOL   C11729397   2.657   6.086   2.190  0.3056 -0.2576 -0.0358
  241MOL   F11829398   2.772   6.156   2.194 -0.0654 -0.1843 -0.0385
  241MOL   H11929399   2.621   5.878   2.232  0.7831 -1.0270  0.1231
  241MOL   H12029400   2.770   5.939   2.293  0.4371  0.8250 -0.4367
  241MOL   H12129401   2.594   6.115   2.274  1.1638 -1.0007  0.8644
  241MOL   H12229402   2.605   6.117   2.100 -0.8494 -0.5964  0.5071
  242MOL     C129403   4.224   1.959   2.099 -0.1689 -0.3032 -0.3892
  242MOL     C229404   4.192   2.087   2.021  0.4813  0.7973 -0.4959
  242MOL     F329405   4.058   2.079   1.985 -0.6878 -0.4921 -0.4073
  242MOL     H429406   4.170   1.877   2.052  2.4281 -1.6546 -1.1162
  242MOL     H529407   4.186   1.969   2.200  0.6870  3.5907 -0.3665
  242MOL     H629408   4.233   2.101   1.921 -0.9309  1.1885 -1.0289
  242MOL     H729409   4.331   1.938   2.103  0.0171  0.7183  0.1776
  242MOL     C829410   4.218   2.222   2.094  0.0642  0.2129 -0.2332
  242MOL     C929411   4.369   2.245   2.112  0.4828  0.4887 -0.0130
  242MOL    F1029412   4.416   2.256   1.989 -0.1915  0.1045  0.5342
  242MOL    H1129413   4.169   2.308   2.049  1.4504  0.6916 -0.8327
  242MOL    H1229414   4.171   2.216   2.192  0.0958  2.6104 -0.0535
  242MOL    H1329415   4.406   2.150   2.148  0.0280  0.1269 -0.4798
  242MOL    C1429416   4.409   2.361   2.202 -0.7179 -0.5910  0.1506
  242MOL    C1529417   4.368   2.341   2.346 -0.6227 -0.5505 -0.7621
  242MOL    F1629418   4.406   2.223   2.387 -0.4137 -0.4734 -0.3033
  242MOL    H1729419   4.517   2.379   2.208 -1.0903  1.8791 -0.2372
  242MOL    H1829420   4.376   2.454   2.156  1.4485  0.3329  0.3768
  242MOL    H1929421   4.260   2.343   2.362 -0.7166 -2.1572 -1.1688
  242MOL    C2029422   4.433   2.440   2.448 -0.8723 -0.0752  0.3915
  242MOL    C2129423   4.367   2.579   2.454  0.6327  0.0606  0.6023
  242MOL    F2229424   4.240   2.542   2.481  0.0436  0.1390 -0.0583
  242MOL    H2329425   4.439   2.391   2.545  0.0919  0.3288  0.5401
  242MOL    H2429426   4.530   2.468   2.407  0.3951 -3.6334  0.7803
  242MOL    H2529427   4.359   2.637   2.362  0.5272  0.1970  0.6963
  242MOL    C2629428   4.430   2.666   2.565  0.1567 -0.0583  0.0141
  242MOL    C2729429   4.351   2.793   2.610 -0.1486 -0.3060  0.8372
  242MOL    F2829430   4.431   2.858   2.690 -0.1542  0.3538  0.4427
  242MOL    H2929431   4.447   2.610   2.657 -0.8826 -2.8216 -1.4389
  242MOL    H3029432   4.527   2.706   2.535  0.3759 -1.2549 -0.9038
  242MOL    H3129433   4.262   2.767   2.667  0.2515 -1.5988  0.8990
  242MOL    C3229434   4.308   2.897   2.502 -0.1874  0.4877 -0.1848
  242MOL    C3329435   4.428   2.985   2.460  0.0966 -0.0796 -0.7374
  242MOL    F3429436   4.501   2.908   2.376 -0.4116 -0.3447  0.4597
  242MOL    H3529437   4.278   2.843   2.412 -2.2311 -0.1829  0.8638
  242MOL    H3629438   4.223   2.964   2.518 -0.6314  0.4359 -2.1370
  242MOL    H3729439   4.498   3.012   2.539  0.3611 -0.1943 -0.9295
  242MOL    C3829440   4.376   3.117   2.408 -0.2465 -0.2679 -0.1139
  242MOL    C3929441   4.489   3.212   2.367  0.4824  0.0952  0.8656
  242MOL    F4029442   4.542   3.255   2.482 -0.1445  0.4962 -0.4985
  242MOL    H4129443   4.309   3.101   2.324  0.1359 -1.4276 -0.1940
  242MOL    H4229444   4.320   3.163   2.490  2.2460 -0.1345  1.5775
  242MOL    H4329445   4.442   3.303   2.328 -0.3181 -0.1396  1.2785
  242MOL    C4429446   4.597   3.162   2.274 -0.0513 -0.2712 -0.5414
  242MOL    C4529447   4.544   3.112   2.138  0.3725  0.4928  0.0864
  242MOL    F4629448   4.477   3.211   2.068  0.9625 -0.3463  0.0116
  242MOL    H4729449   4.659   3.248   2.248 -1.5499  1.0140  0.0869
  242MOL    H4829450   4.656   3.089   2.329  0.7333  3.0556  3.2110
  242MOL    H4929451   4.472   3.033   2.158 -1.0427  2.3182  2.4572
  242MOL    C5029452   4.666   3.060   2.052  0.3403  0.0908 -0.0374
  242MOL    C5129453   4.721   2.925   2.103 -0.4550 -0.1064 -0.2657
  242MOL    F5229454   4.619   2.840   2.111  0.0235 -0.4135  0.1535
  242MOL    H5329455   4.649   3.057   1.945  0.2942  1.4036 -0.0793
  242MOL    H5429456   4.741   3.139   2.056 -2.0628  2.3879  1.3757
  242MOL    H5529457   4.762   2.940   2.203  0.2811  0.8968 -0.7087
  242MOL    C5629458   4.830   2.858   2.021  0.2113 -0.2128  1.1566
  242MOL    C5729459   4.903   2.731   2.078 -1.1232  0.4088  1.3297
  242MOL    F5829460   4.956   2.760   2.199 -0.3525 -0.4394  0.1269
  242MOL    H5929461   4.776   2.841   1.927  0.0286 -1.7682  1.5263
  242MOL    H6029462   4.909   2.930   1.998  0.8954 -2.0742 -2.8151
  242MOL    H6129463   4.995   2.708   2.024 -1.6876 -0.9813  0.9569
  242MOL    C6229464   4.827   2.605   2.092 -0.1954 -0.4152 -0.0845
  242MOL    C6329465   4.920   2.477   2.101  0.9326  0.4542  0.1430
  242MOL    F6429466   4.986   2.463   2.219  0.0053  0.0395  0.3408
  242MOL    H6529467   4.759   2.621   2.176  0.2960 -1.9409  0.6060
  242MOL    H6629468   4.765   2.592   2.003  0.1584  1.7102 -0.6748
  242MOL    H6729469   4.993   2.490   2.021 -0.0878  1.8210 -0.5975
  242MOL    C6829470   4.845   2.342   2.092 -0.4041  0.6313  0.4936
  242MOL    C6929471   4.947   2.225   2.105  0.4383  0.9433 -0.2344
  242MOL    F7029472   4.883   2.109   2.094 -0.1909 -0.5251 -0.1377
  242MOL    H7129473   4.772   2.334   2.173 -0.7910 -2.5433 -0.1253
  242MOL    H7229474   4.785   2.348   2.001  1.3406  1.9513 -0.5946
  242MOL    H7329475   4.973   2.224   2.211  1.1356 -0.1061 -0.4100
  242MOL    C7429476   5.063   2.216   1.999  0.5903 -0.0257  0.3072
  242MOL    C7529477   5.165   2.112   2.024  0.2993  0.1962 -0.2616
  242MOL    F7629478   5.233   2.099   1.913 -0.1269  0.1468  0.3817
  242MOL    H7729479   5.026   2.194   1.899  1.1481 -1.8032  0.4799
  242MOL    H7829480   5.110   2.314   1.988  2.1075 -0.7600  0.1686
  242MOL    H7929481   5.111   2.019   2.047  0.3991 -0.1485 -1.4191
  242MOL    C8029482   5.260   2.141   2.142 -0.5423  0.0927  0.1782
  242MOL    C8129483   5.319   2.281   2.136 -0.7020 -0.0957  0.1693
  242MOL    F8229484   5.232   2.374   2.182 -0.8826 -0.5055  0.5796
  242MOL    H8329485   5.203   2.135   2.235  2.7110  0.2166  2.2498
  242MOL    H8429486   5.335   2.065   2.163  0.5703  0.7360 -1.3941
  242MOL    H8529487   5.344   2.305   2.033  1.9628  1.0047  1.0398
  242MOL    C8629488   5.435   2.317   2.228 -0.0591 -0.0870 -0.8198
  242MOL    C8729489   5.565   2.233   2.201  0.4321  0.1752  0.5860
  242MOL    F8829490   5.602   2.259   2.073  0.0347 -0.6222 -0.3763
  242MOL    H8929491   5.450   2.424   2.239  0.2550 -0.5027  3.4501
  242MOL    H9029492   5.418   2.295   2.333 -0.7940  2.7789 -0.3104
  242MOL    H9129493   5.556   2.125   2.205  1.1467  0.1719  2.5474
  242MOL    C9229494   5.680   2.293   2.286  0.4205 -0.8051  0.7521
  242MOL    C9329495   5.824   2.240   2.245  0.2186 -0.8480  0.9343
  242MOL    F9429496   5.919   2.323   2.290 -0.0774  0.3090 -0.4119
  242MOL    H9529497   5.676   2.401   2.280  1.8201 -0.7835  0.1368
  242MOL    H9629498   5.667   2.272   2.393  0.6696  0.5105  1.0462
  242MOL    H9729499   5.842   2.242   2.138  2.3179  2.2495  1.2796
  242MOL    C9829500   5.855   2.102   2.302  0.8532 -1.2688  0.6334
  242MOL    C9929501   5.994   2.053   2.252  0.2771 -0.1333 -0.0926
  242MOL   F10029502   6.042   1.961   2.340  0.0600 -0.0390  0.0267
  242MOL   H10129503   5.856   2.112   2.410 -0.3671 -0.1968  0.5637
  242MOL   H10229504   5.772   2.051   2.253 -0.4442  0.2900  1.1752
  242MOL   H10329505   6.055   2.142   2.267  0.7321 -0.9760  3.5646
  242MOL   C10429506   6.001   1.995   2.114 -0.4131  0.1845  0.2597
  242MOL   C10529507   6.139   1.970   2.061 -0.2246  0.4179 -0.9641
  242MOL   F10629508   6.200   1.880   2.144  0.3789  0.3367  0.2999
  242MOL   H10729509   5.954   1.897   2.115  1.3852 -0.6920  1.9407
  242MOL   H10829510   5.945   2.052   2.039 -1.5516  0.1458  1.0629
  242MOL   H10929511   6.193   2.063   2.081  2.8928 -1.1002 -1.9846
  242MOL   C11029512   6.151   1.916   1.920  0.1939 -0.2408  0.6727
  242MOL   C11129513   6.077   1.789   1.883  0.0805  0.3221  0.2059
  242MOL   F11229514   5.941   1.798   1.897  0.4184 -0.3324 -0.1855
  242MOL   H11329515   6.120   2.001   1.859 -0.4100 -1.0074 -0.0920
  242MOL   H11429516   6.256   1.905   1.891  0.0016 -0.1083 -0.0636
  242MOL   H11529517   6.111   1.698   1.932 -0.1018  0.6576  0.9627
  242MOL   C11629518   6.100   1.757   1.733  0.2537  0.0329  0.2003
  242MOL   C11729519   6.029   1.626   1.679  0.0960  0.4113 -0.1635
  242MOL   F11829520   6.074   1.515   1.745 -0.2076 -0.5091  0.0061
  242MOL   H11929521   6.064   1.841   1.674 -0.6107 -0.3553  0.1699
  242MOL   H12029522   6.207   1.751   1.711  0.4189  2.0581  0.3851
  242MOL   H12129523   6.046   1.614   1.572  1.7199  2.3557 -0.1664
  242MOL   H12229524   5.921   1.620   1.686 -0.0026  1.2569 -0.8863
  243MOL     C129525   5.377   5.391   7.725  0.1925  0.2371 -0.0429
  243MOL     C229526   5.358   5.261   7.802  0.3675  1.1035  0.9399
  243MOL     F329527   5.243   5.211   7.774  0.3403  0.3912 -0.7142
  243MOL     H429528   5.461   5.455   7.749  0.1542  0.8296 -1.4216
  243MOL     H529529   5.289   5.453   7.744  0.6045  0.1821  2.1138
  243MOL     H629530   5.365   5.277   7.910 -0.4871  1.1520  0.9898
  243MOL     H729531   5.383   5.372   7.618  1.6525 -2.4690  0.4762
  243MOL     C829532   5.467   5.152   7.765 -0.4899 -0.2117  0.6155
  243MOL     C929533   5.483   5.018   7.841  0.0715  0.0604 -0.6178
  243MOL    F1029534   5.520   4.915   7.750  0.6989  0.1153  0.1148
  243MOL    H1129535   5.449   5.127   7.660 -0.6138 -1.9259  1.0321
  243MOL    H1229536   5.561   5.206   7.758 -1.1170  0.9968  1.3825
  243MOL    H1329537   5.384   4.987   7.873  0.1170  1.4412  0.9343
  243MOL    C1429538   5.576   5.008   7.965 -0.3453 -0.5457 -0.2206
  243MOL    C1529539   5.563   4.879   0.045 -0.2312 -1.1824 -0.1741
  243MOL    F1629540   5.638   4.892   0.156  0.2921 -0.2744  0.5565
  243MOL    H1729541   5.681   5.027   7.942  0.2559 -1.0252  1.9350
  243MOL    H1829542   5.534   5.086   0.025 -2.0080 -0.4445 -1.4432
  243MOL    H1929543   5.607   4.796   7.992  1.0193  0.2871 -1.4076
  243MOL    C2029544   5.421   4.820   0.077 -0.0570 -0.2028  0.0302
  243MOL    C2129545   5.339   4.903   0.176 -0.0448  0.3572 -0.7292
  243MOL    F2229546   5.326   5.027   0.128 -0.2197  0.5099 -0.1787
  243MOL    H2329547   5.362   4.788   7.994  1.4960  3.6671 -2.5753
  243MOL    H2429548   5.443   4.730   0.135 -0.2729 -0.0540  0.3461
  243MOL    H2529549   5.389   4.907   0.272 -0.3323 -0.9048 -0.5237
  243MOL    C2629550   5.202   4.825   0.201 -0.0928  0.4537 -0.2655
  243MOL    C2729551   5.103   4.883   0.301  0.1891  0.8127 -1.2971
  243MOL    F2829552   5.159   4.861   0.417  0.2266  0.4784 -0.2813
  243MOL    H2929553   5.141   4.816   0.111 -0.1686 -0.4267 -0.1268
  243MOL    H3029554   5.225   4.720   0.219  1.2570  0.7392 -0.2771
  243MOL    H3129555   5.005   4.835   0.308  0.2624  0.7284 -0.8875
  243MOL    C3229556   5.060   5.035   0.296  0.2771  0.4681 -0.5362
  243MOL    C3329557   4.949   5.073   0.392  0.0563  0.1310 -0.2486
  243MOL    F3429558   4.851   4.987   0.392 -0.2102 -0.1979 -0.4144
  243MOL    H3529559   5.152   5.090   0.316 -0.8048  2.1913 -0.1926
  243MOL    H3629560   5.022   5.058   0.196 -0.0938 -0.0896 -0.5249
  243MOL    H3729561   4.915   5.174   0.367 -1.1519  0.0043  0.8338
  243MOL    C3829562   4.995   5.087   0.536  0.4447 -0.3880  0.5056
  243MOL    C3929563   4.903   5.183   0.627 -0.2107  0.0188 -0.0493
  243MOL    F4029564   4.881   5.304   0.566 -0.0654 -0.0565 -0.3208
  243MOL    H4129565   5.004   4.992   0.588 -0.6734 -0.9782 -0.3381
  243MOL    H4229566   5.095   5.129   0.531  0.8025 -1.2300  0.5109
  243MOL    H4329567   4.945   5.196   0.727  3.0383  1.0222 -1.4665
  243MOL    C4429568   4.764   5.125   0.668  0.1543 -0.1716 -0.1108
  243MOL    C4529569   4.769   5.011   0.775  0.6375  0.3366  0.3619
  243MOL    F4629570   4.845   5.053   0.879  0.4967 -0.0844  0.3876
  243MOL    H4729571   4.721   5.215   0.712  4.5130  1.1287  1.7756
  243MOL    H4829572   4.700   5.099   0.584 -0.3983 -0.9766  0.5518
  243MOL    H4929573   4.816   4.922   0.734  1.1825  0.0869  1.5113
  243MOL    C5029574   4.635   4.979   0.844  0.1613 -0.2553 -0.1065
  243MOL    C5129575   4.620   4.844   0.907 -0.4953 -0.2435 -0.2164
  243MOL    F5229576   4.646   4.751   0.813  0.2406 -0.3573 -0.3838
  243MOL    H5329577   4.600   5.061   0.906 -1.7343 -1.1122  0.0081
  243MOL    H5429578   4.565   4.973   0.761  0.7229  0.0557 -0.6044
  243MOL    H5529579   4.515   4.855   0.935 -1.0370  0.9659 -2.6483
  243MOL    C5629580   4.722   4.825   1.024 -0.4452 -0.0969  0.0046
  243MOL    C5729581   4.699   4.930   1.135 -0.2305  0.3943  0.3665
  243MOL    F5829582   4.569   4.930   1.172  0.6544 -0.4774  0.3244
  243MOL    H5929583   4.713   4.724   1.064 -3.1178  0.1534  0.1162
  243MOL    H6029584   4.829   4.832   1.006  0.1074 -3.0932  1.7703
  243MOL    H6129585   4.715   5.025   1.084  0.8566 -0.2013 -0.4063
  243MOL    C6229586   4.792   4.926   1.257 -0.6394 -0.3707  0.2795
  243MOL    C6329587   4.945   4.952   1.233  0.5862 -0.2525  0.0535
  243MOL    F6429588   4.961   5.062   1.155 -0.0748  0.1409  0.0556
  243MOL    H6529589   4.769   5.015   1.317 -1.0789 -0.4673  0.2525
  243MOL    H6629590   4.780   4.838   1.319  0.2641 -2.1425 -1.9958
  243MOL    H6729591   4.982   4.865   1.177  0.3053  0.0537 -0.6191
  243MOL    C6829592   5.021   4.972   1.368  0.3185 -0.7103  0.7922
  243MOL    C6929593   5.176   4.963   1.359  0.1998  0.0992  0.9211
  243MOL    F7029594   5.216   5.075   1.306 -0.3250 -0.4445 -0.5831
  243MOL    H7129595   4.981   5.057   1.424  0.7442  0.7402 -1.0409
  243MOL    H7229596   4.984   4.892   1.432  0.8075 -1.1913  0.4789
  243MOL    H7329597   5.210   4.886   1.290  0.1190  0.5028  0.4292
  243MOL    C7429598   5.243   4.947   1.496  0.5985  0.3067 -0.3337
  243MOL    C7529599   5.382   4.880   1.485 -0.2548 -0.4958  0.3131
  243MOL    F7629600   5.462   4.979   1.427  0.2610  0.4745 -0.1299
  243MOL    H7729601   5.238   5.043   1.548  0.6460  0.6824 -1.0084
  243MOL    H7829602   5.183   4.885   1.562 -0.1328  0.6428 -0.6767
  243MOL    H7929603   5.388   4.792   1.422 -2.3357 -0.6234  0.2691
  243MOL    C8029604   5.431   4.829   1.621 -0.7310  0.1255  0.1856
  243MOL    C8129605   5.578   4.773   1.626 -0.9852 -1.0553 -0.6038
  243MOL    F8229606   5.634   4.810   1.740 -0.2639 -0.1042 -0.2287
  243MOL    H8329607   5.425   4.907   1.697  0.8567  1.3165 -0.8630
  243MOL    H8429608   5.371   4.745   1.656 -1.8007  0.1071 -1.6276
  243MOL    H8529609   5.633   4.832   1.552  1.8145 -0.2561  2.0164
  243MOL    C8629610   5.602   4.620   1.601  0.1415 -0.9623 -0.6598
  243MOL    C8729611   5.610   4.578   1.454  1.1134 -0.3812  0.2588
  243MOL    F8829612   5.677   4.674   1.386  0.0993 -0.1541  0.2234
  243MOL    H8929613   5.697   4.592   1.646  1.2148  0.8601 -1.7371
  243MOL    H9029614   5.532   4.565   1.664  0.9450 -1.1276  0.0929
  243MOL    H9129615   5.507   4.579   1.416  1.3928 -1.5848 -0.5608
  243MOL    C9229616   5.675   4.436   1.429  0.4203  0.0648 -0.4618
  243MOL    C9329617   5.685   4.403   1.282 -0.1297  0.0167 -0.2663
  243MOL    F9429618   5.756   4.285   1.260 -0.1878 -0.4150 -0.1196
  243MOL    H9529619   5.772   4.432   1.477 -0.3434  2.2005  1.3051
  243MOL    H9629620   5.613   4.363   1.482  0.6972 -0.5366 -0.9515
  243MOL    H9729621   5.745   4.479   1.231 -0.6682 -0.6388 -1.9427
  243MOL    C9829622   5.550   4.389   1.201  0.8813 -0.5997 -0.2721
  243MOL    C9929623   5.527   4.507   1.114 -0.4137 -0.2184 -0.5754
  243MOL   F10029624   5.595   4.500   1.001  0.4624 -0.2456 -0.2821
  243MOL   H10129625   5.558   4.301   1.137  0.3564 -1.1814  0.4512
  243MOL   H10229626   5.469   4.359   1.267  0.6628  0.6506  0.0383
  243MOL   H10329627   5.558   4.596   1.167 -0.5934 -0.9277  0.7532
  243MOL   C10429628   5.380   4.527   1.073 -0.0545  0.2166 -0.0861
  243MOL   C10529629   5.281   4.534   1.187  0.0874 -0.4410 -0.3584
  243MOL   F10629630   5.325   4.628   1.269  0.3986 -0.3616 -0.1149
  243MOL   H10729631   5.371   4.621   1.018  2.0069  1.0891  1.0149
  243MOL   H10829632   5.357   4.456   0.994 -0.4264 -0.0278  0.2426
  243MOL   H10929633   5.277   4.436   1.234  1.1519 -1.3694 -2.1283
  243MOL   C11029634   5.141   4.580   1.158 -0.1142 -0.0733 -0.1826
  243MOL   C11129635   5.068   4.469   1.084  0.3304  0.2776 -0.7097
  243MOL   F11229636   5.021   4.379   1.166 -0.5077  0.3281  0.2280
  243MOL   H11329637   5.083   4.607   1.246 -1.6910 -1.4584 -0.7579
  243MOL   H11429638   5.155   4.667   1.094  0.1988 -1.1263 -1.5782
  243MOL   H11529639   5.136   4.423   1.012  0.2085  3.0152 -2.6553
  243MOL   C11629640   4.949   4.513   1.000  0.4370  0.0526  0.7990
  243MOL   C11729641   4.875   4.395   0.919  0.0624 -0.2346 -0.4988
  243MOL   F11829642   4.958   4.349   0.830  0.0088  0.5326  0.2465
  243MOL   H11929643   4.873   4.557   1.066  0.0298  2.0866 -0.9653
  243MOL   H12029644   4.980   4.604   0.948  1.8916  0.2732  2.0076
  243MOL   H12129645   4.787   4.439   0.872 -0.4226 -1.1561 -0.4869
  243MOL   H12229646   4.847   4.308   0.980  0.2672 -1.3390 -1.9607
  244MOL     C129647   2.437   0.753   2.963 -0.3107 -0.6181  0.0042
  244MOL     C229648   2.325   0.824   2.884 -0.0612 -0.7155 -0.1638
  244MOL     F329649   2.333   0.958   2.886  0.5266 -0.2423  0.0441
  244MOL     H429650   2.426   0.650   2.996  1.0616 -0.0622  2.3252
  244MOL     H529651   2.453   0.821   3.046 -0.4137 -1.9182  1.1151
  244MOL     H629652   2.227   0.805   2.928  0.3176 -0.0344  1.0098
  244MOL     H729653   2.532   0.767   2.913 -1.1827  1.0871 -1.2302
  244MOL     C829654   2.317   0.799   2.725  0.0625  0.1486  0.0195
  244MOL     C929655   2.206   0.875   2.644  0.3970 -0.5050  0.8368
  244MOL    F1029656   2.213   0.833   2.516  0.3571 -0.3546 -0.1568
  244MOL    H1129657   2.412   0.824   2.676 -0.7214 -0.5380 -1.9179
  244MOL    H1229658   2.288   0.695   2.711 -1.7597  0.6806 -0.2802
  244MOL    H1329659   2.221   0.980   2.621 -0.2477 -0.9834 -1.9249
  244MOL    C1429660   2.063   0.834   2.677  0.3865  0.1874 -0.6781
  244MOL    C1529661   1.949   0.882   2.590  0.3809 -0.0980  0.0219
  244MOL    F1629662   1.850   0.794   2.602  0.0934  0.2169 -0.6975
  244MOL    H1729663   2.057   0.726   2.679 -2.2125  0.3113  1.9240
  244MOL    H1829664   2.047   0.852   2.783  0.8557 -0.9176 -0.4122
  244MOL    H1929665   1.968   0.889   2.483 -0.6844  0.0214 -0.1735
  244MOL    C2029666   1.890   1.017   2.631 -0.1335  0.1096 -0.1749
  244MOL    C2129667   1.749   1.058   2.584  0.0159  0.4864  0.5204
  244MOL    F2229668   1.708   1.172   2.652  0.3564  0.1442 -0.0812
  244MOL    H2329669   1.876   1.001   2.738  0.5360  0.9601  0.0516
  244MOL    H2429670   1.959   1.099   2.608  1.1445 -1.0485 -0.5213
  244MOL    H2529671   1.691   0.971   2.613 -1.0574  1.4317  1.2793
  244MOL    C2629672   1.743   1.075   2.432  0.3279  0.3034  0.1664
  244MOL    C2729673   1.600   1.075   2.367 -0.1680  0.5110  0.2921
  244MOL    F2829674   1.537   0.959   2.392 -0.0112 -0.1867  0.1502
  244MOL    H2929675   1.788   1.167   2.395  0.8181 -0.2801 -0.7001
  244MOL    H3029676   1.790   0.994   2.377 -0.7474 -0.0300 -0.2716
  244MOL    H3129677   1.628   1.074   2.262 -0.4591  0.1932  0.2182
  244MOL    C3229678   1.502   1.176   2.413 -0.3922 -0.5620 -0.1550
  244MOL    C3329679   1.537   1.324   2.390 -0.0313  1.1360 -0.6100
  244MOL    F3429680   1.514   1.346   2.260 -0.1110 -0.3361 -0.6200
  244MOL    H3529681   1.404   1.155   2.371 -0.3451 -1.2717  0.0914
  244MOL    H3629682   1.486   1.179   2.521 -1.8874  2.4026 -0.4163
  244MOL    H3729683   1.643   1.343   2.409  0.9457 -2.7523 -1.8018
  244MOL    C3829684   1.456   1.426   2.467 -0.0205 -0.4232  0.0204
  244MOL    C3929685   1.521   1.450   2.607  0.1778 -0.4848 -0.0439
  244MOL    F4029686   1.645   1.491   2.608 -0.4369  0.0242  0.2637
  244MOL    H4129687   1.442   1.517   2.410 -1.0623 -1.3364 -1.2158
  244MOL    H4229688   1.354   1.389   2.469 -0.6270  1.2812  0.5192
  244MOL    H4329689   1.533   1.353   2.657  2.5639  0.6986  1.7731
  244MOL    C4429690   1.439   1.539   2.706 -0.0958  0.1942 -0.5767
  244MOL    C4529691   1.513   1.567   2.845 -0.9548  0.3372 -0.1311
  244MOL    F4629692   1.634   1.623   2.819 -0.0492 -0.6772 -0.1731
  244MOL    H4729693   1.412   1.635   2.661 -0.9938  0.6786  0.9713
  244MOL    H4829694   1.342   1.492   2.721  2.5427 -5.2099  0.6055
  244MOL    H4929695   1.527   1.467   2.886  0.9095  0.0280 -1.4563
  244MOL    C5029696   1.428   1.666   2.928  0.1461 -0.6240  0.2555
  244MOL    C5129697   1.500   1.756   3.030  0.6064  0.6608  0.5339
  244MOL    F5229698   1.417   1.838   3.088 -0.1601  0.4691  0.0302
  244MOL    H5329699   1.371   1.730   2.860  0.0221 -0.3031  0.6521
  244MOL    H5429700   1.345   1.610   2.972 -1.1903  1.0946  0.0158
  244MOL    H5529701   1.564   1.818   2.968  0.1708  1.5050  0.9303
  244MOL    C5629702   1.573   1.679   3.135  0.3172 -0.5660  0.4058
  244MOL    C5729703   1.658   1.769   3.225 -0.1905 -0.2702  0.5813
  244MOL    F5829704   1.700   1.695   3.333  0.1162  0.3534 -0.1600
  244MOL    H5929705   1.493   1.629   3.190 -2.2168  1.7145 -1.0809
  244MOL    H6029706   1.636   1.599   3.098  0.7491  0.1824 -0.4936
  244MOL    H6129707   1.597   1.847   3.271 -0.4002  0.3783 -0.7703
  244MOL    C6229708   1.788   1.817   3.152  0.5693  0.4930 -0.5245
  244MOL    C6329709   1.882   1.727   3.074 -0.1759  0.3811 -0.2020
  244MOL    F6429710   1.986   1.789   3.016  0.3675 -0.3147 -0.1338
  244MOL    H6529711   1.747   1.889   3.081  0.5022  0.2538 -0.7283
  244MOL    H6629712   1.857   1.874   3.214 -1.7999 -0.0819  2.7807
  244MOL    H6729713   1.825   1.697   2.985  1.0373  0.4664 -1.0258
  244MOL    C6829714   1.924   1.592   3.145  0.5127 -0.0046 -0.4091
  244MOL    C6929715   2.022   1.507   3.064  0.3657  0.0066 -0.1466
  244MOL    F7029716   2.058   1.394   3.131  0.0743  0.2489 -0.0208
  244MOL    H7129717   1.964   1.616   3.244 -0.1594  2.0198 -0.6044
  244MOL    H7229718   1.836   1.529   3.155  0.1154  0.7532  0.9255
  244MOL    H7329719   2.109   1.573   3.057  0.2491 -0.0385 -2.3536
  244MOL    C7429720   1.973   1.467   2.924 -0.1838  0.0726  0.1585
  244MOL    C7529721   2.055   1.352   2.861 -0.1931 -0.4894 -0.7084
  244MOL    F7629722   1.973   1.284   2.789  0.5894  0.3442 -0.0610
  244MOL    H7729723   1.876   1.421   2.947  1.0780 -2.7149  0.0739
  244MOL    H7829724   1.965   1.554   2.859 -1.2742  0.6925  1.0917
  244MOL    H7929725   2.099   1.288   2.937  1.1349  0.4987 -0.6113
  244MOL    C8029726   2.165   1.413   2.765  0.4172  0.2111 -0.8536
  244MOL    C8129727   2.252   1.307   2.702  0.5216  0.8318 -0.4781
  244MOL    F8229728   2.178   1.234   2.617  0.8200  0.2478  0.4555
  244MOL    H8329729   2.118   1.474   2.688  0.2050  1.1994  0.0541
  244MOL    H8429730   2.221   1.483   2.826 -0.8616 -0.3676  1.0443
  244MOL    H8529731   2.279   1.238   2.782 -1.9374 -0.2302 -0.5211
  244MOL    C8629732   2.380   1.365   2.646 -0.5905  0.9544 -0.2575
  244MOL    C8729733   2.476   1.280   2.562 -0.4723  0.1751  0.0091
  244MOL    F8829734   2.576   1.359   2.529  0.2218 -0.8684 -0.0443
  244MOL    H8929735   2.354   1.461   2.601 -3.9946 -0.2611 -0.9915
  244MOL    H9029736   2.439   1.408   2.726 -0.2875  1.0112 -0.5082
  244MOL    H9129737   2.408   1.250   2.482 -1.5259  0.4438  0.7912
  244MOL    C9229738   2.529   1.164   2.648 -0.4366  0.2314 -0.1876
  244MOL    C9329739   2.627   1.081   2.557  0.7373 -0.4223 -0.4778
  244MOL    F9429740   2.689   0.985   2.632 -0.1412 -0.0751 -0.6972
  244MOL    H9529741   2.574   1.203   2.739 -0.8224  1.8832 -0.6955
  244MOL    H9629742   2.447   1.097   2.672  0.5588 -0.1043  2.4015
  244MOL    H9729743   2.705   1.150   2.525 -0.3969  1.4710  0.7327
  244MOL    C9829744   2.581   1.021   2.432  0.1638  0.5779 -0.8304
  244MOL    C9929745   2.694   0.944   2.354 -0.7333  0.1805 -0.2001
  244MOL   F10029746   2.755   0.854   2.436  0.0131 -0.1486 -0.0400
  244MOL   H10129747   2.508   0.945   2.463  1.1778 -0.0390  0.0927
  244MOL   H10229748   2.534   1.101   2.374  2.3433  2.1955 -0.3977
  244MOL   H10329749   2.764   1.023   2.329 -0.6024  0.4002  0.8344
  244MOL   C10429750   2.665   0.880   2.219  0.3121  0.1296  0.7919
  244MOL   C10529751   2.791   0.824   2.153 -0.0772 -0.2824 -0.5229
  244MOL   F10629752   2.830   0.707   2.211 -0.2824 -0.4404  0.7068
  244MOL   H10729753   2.581   0.812   2.229 -0.3478  0.5455 -1.6373
  244MOL   H10829754   2.631   0.957   2.150  0.0253 -0.0350  0.7479
  244MOL   H10929755   2.873   0.897   2.158 -1.7046  1.7305 -2.1089
  244MOL   C11029756   2.773   0.795   2.000  0.3486  0.0450  0.0402
  244MOL   C11129757   2.894   0.784   1.911 -0.5008 -0.1442  0.7012
  244MOL   F11229758   2.873   0.708   1.801 -0.3175  0.2558  0.4272
  244MOL   H11329759   2.702   0.713   1.987  1.1925 -0.6282 -0.3922
  244MOL   H11429760   2.728   0.888   1.966 -0.6950 -0.5258 -0.1520
  244MOL   H11529761   2.970   0.725   1.962  1.9833  0.0987 -2.5240
  244MOL   C11629762   2.973   0.909   1.864  0.4180  0.5786  0.0624
  244MOL   C11729763   3.111   0.868   1.805  0.1893  0.6382  0.1234
  244MOL   F11829764   3.161   0.981   1.747 -0.2508  0.4958 -0.4203
  244MOL   H11929765   2.898   0.956   1.800  0.7924  0.1296 -0.7142
  244MOL   H12029766   2.986   0.983   1.942  0.9735  0.5187  0.0303
  244MOL   H12129767   3.093   0.806   1.717  1.5169  1.1022 -0.4965
  244MOL   H12229768   3.194   0.825   1.861 -1.0650 -0.0562  1.4980
  245MOL     C129769   1.256   4.982   2.988  0.1506 -0.4269 -0.9024
  245MOL     C229770   1.173   4.944   3.112 -0.7991  0.2595 -0.4751
  245MOL     F329771   1.162   4.811   3.128  0.1071  0.0687 -0.5035
  245MOL     H429772   1.351   4.928   2.983  0.5049  0.2428 -1.6135
  245MOL     H529773   1.263   5.089   2.969 -0.3572 -0.2548 -0.1234
  245MOL     H629774   1.067   4.968   3.108 -0.6393  0.6308 -2.6980
  245MOL     H729775   1.200   4.950   2.900 -4.0680  1.3813  1.0111
  245MOL     C829776   1.248   5.007   3.240  0.3127 -0.4228 -0.3017
  245MOL     C929777   1.241   5.155   3.244 -0.5621 -1.2766  0.6743
  245MOL    F1029778   1.118   5.198   3.222 -0.5032 -0.1891 -0.0822
  245MOL    H1129779   1.200   4.974   3.333  2.1713  1.1250  1.2368
  245MOL    H1229780   1.348   4.965   3.251  0.0881 -1.1022 -0.8447
  245MOL    H1329781   1.308   5.188   3.166 -2.7104 -1.4105 -1.2684
  245MOL    C1429782   1.287   5.215   3.380  0.3906 -0.2888 -0.5457
  245MOL    C1529783   1.318   5.364   3.375 -0.5144 -0.0154 -0.6104
  245MOL    F1629784   1.215   5.431   3.324 -0.5689  0.1173  0.3759
  245MOL    H1729785   1.204   5.201   3.449  0.1253 -0.4472 -0.8921
  245MOL    H1829786   1.376   5.169   3.422 -0.5782 -0.7846  0.9899
  245MOL    H1929787   1.406   5.375   3.313 -1.1168  0.9257 -1.3205
  245MOL    C2029788   1.349   5.429   3.514 -0.3653  0.9832  0.3150
  245MOL    C2129789   1.479   5.369   3.580  0.7445 -0.2196 -0.3552
  245MOL    F2229790   1.587   5.385   3.499  0.2291 -0.0038  0.3141
  245MOL    H2329791   1.356   5.535   3.491  0.7728  0.6024 -1.2511
  245MOL    H2429792   1.256   5.419   3.571  0.6580  1.2736  2.0632
  245MOL    H2529793   1.458   5.264   3.600 -1.1504  0.5313  1.8287
  245MOL    C2629794   1.501   5.435   3.718 -0.4593 -0.2827  0.3067
  245MOL    C2729795   1.532   5.587   3.722  0.3322 -0.0751 -0.3990
  245MOL    F2829796   1.429   5.654   3.683 -0.5814  0.0367  0.2851
  245MOL    H2929797   1.412   5.414   3.778  0.1352  0.1214  1.3402
  245MOL    H3029798   1.580   5.386   3.774 -0.2575 -0.4372 -0.1158
  245MOL    H3129799   1.608   5.602   3.645  1.0747 -0.9419  0.1522
  245MOL    C3229800   1.586   5.631   3.865  0.5355  0.7910  0.2702
  245MOL    C3329801   1.605   5.782   3.866 -0.0059 -0.7848 -0.2378
  245MOL    F3429802   1.602   5.811   3.992  0.1945  0.1649 -0.2583
  245MOL    H3529803   1.518   5.593   3.941 -0.5590 -1.6511 -1.8714
  245MOL    H3629804   1.685   5.586   3.875  0.3619  0.6572  1.4662
  245MOL    H3729805   1.521   5.824   3.811  0.6068 -3.3214 -3.3021
  245MOL    C3829806   1.735   5.827   3.792 -0.3879 -0.6011  0.0128
  245MOL    C3929807   1.770   5.972   3.805 -0.4195 -0.6704  1.2076
  245MOL    F4029808   1.684   6.043   3.728  0.5720  0.1641  0.2704
  245MOL    H4129809   1.815   5.763   3.830 -0.7509  0.0976  1.9735
  245MOL    H4229810   1.720   5.800   3.687  1.0200  0.7248 -0.5430
  245MOL    H4329811   1.872   5.984   3.766 -0.2062  2.4398  2.6256
  245MOL    C4429812   1.797   6.045   3.938  0.7597  0.4466  0.7370
  245MOL    C4529813   1.837   6.191   3.931 -0.3837 -0.1987  0.1881
  245MOL    F4629814   1.837   6.235   4.055 -0.0411  0.4543 -0.6162
  245MOL    H4729815   1.702   6.048   3.993  1.8648 -1.4058  2.8195
  245MOL    H4829816   1.871   5.989   3.995  0.1710  0.9486  2.0177
  245MOL    H4929817   1.751   6.241   3.886 -0.9829  0.6351  2.1924
  245MOL    C5029818   1.974   6.220   3.862 -0.6326 -0.0188  0.2328
  245MOL    C5129819   1.989   6.371   3.821  0.2598 -0.1354 -0.9083
  245MOL    F5229820   1.991   6.435   3.939  0.5012 -0.4977  0.0132
  245MOL    H5329821   2.061   6.201   3.925  0.2245  4.4813  0.5737
  245MOL    H5429822   1.976   6.168   3.766  0.9975 -0.6510  0.5901
  245MOL    H5529823   1.899   6.404   3.769  0.9077  1.1049 -1.2433
  245MOL    C5629824   2.117   6.408   3.745  0.4417 -0.1474  1.0122
  245MOL    C5729825   2.135   6.351   3.600  0.4811 -0.0092 -0.3594
  245MOL    F5829826   2.010   6.342   3.546  0.3356 -0.0812 -0.0764
  245MOL    H5929827   2.118   6.517   3.739  2.6218 -0.2034 -0.2413
  245MOL    H6029828   2.205   6.380   3.803  0.8746 -0.4142  0.2240
  245MOL    H6129829   2.171   6.248   3.604  0.2795 -0.0704 -0.1255
  245MOL    C6229830   2.222   6.436   3.509 -0.0725 -0.0715  0.1236
  245MOL    C6329831   2.215   6.383   3.367  0.2474 -0.3614 -0.0183
  245MOL    F6429832   2.273   6.471   3.290 -0.0591 -1.0851 -0.1379
  245MOL    H6529833   2.184   6.538   3.505 -0.6479 -0.3082 -0.5961
  245MOL    H6629834   2.328   6.439   3.532 -0.3683  0.3592  1.4949
  245MOL    H6729835   2.116   6.363   3.326  0.2796  0.5998 -0.5691
  245MOL    C6829836   2.299   6.253   3.349 -0.6274  0.4757  0.2155
  245MOL    C6929837   2.336   6.211   3.206 -0.0030  0.3992  0.4571
  245MOL    F7029838   2.222   6.212   3.142  0.4452 -0.0237  0.2561
  245MOL    H7129839   2.389   6.254   3.411 -0.1183  3.5279 -0.5022
  245MOL    H7229840   2.240   6.167   3.382 -0.8505  0.1929 -0.9227
  245MOL    H7329841   2.370   6.108   3.212  1.0201  0.6273 -1.0667
  245MOL    C7429842   2.450   6.290   3.141 -0.3187  0.0785  0.3382
  245MOL    C7529843   2.470   6.255   2.986 -0.2524 -0.4918  0.7573
  245MOL    F7629844   2.511   6.132   2.965  0.2169 -0.3591  0.0523
  245MOL    H7729845   2.447   6.399   3.143 -3.1324  0.0697 -0.9592
  245MOL    H7829846   2.534   6.249   3.197  0.3236  0.6823 -0.1649
  245MOL    H7929847   2.553   6.315   2.949 -0.2759 -1.7491 -1.3736
  245MOL    C8029848   2.342   6.278   2.898 -0.0150  0.1356  0.1838
  245MOL    C8129849   2.368   6.306   2.748 -0.3313  0.0627 -0.1204
  245MOL    F8229850   2.262   6.275   2.668 -0.1698  0.1515  0.3848
  245MOL    H8329851   2.273   6.194   2.911  0.7475 -0.3351  1.2679
  245MOL    H8429852   2.278   6.355   2.940 -1.2588  0.3766 -2.0604
  245MOL    H8529853   2.448   6.236   2.726 -0.5075  0.4119 -1.9650
  245MOL    C8629854   2.407   6.447   2.724  0.1093  0.1610  0.2107
  245MOL    C8729855   2.518   6.474   2.625  0.2048 -0.3533 -0.0325
  245MOL    F8829856   2.628   6.410   2.664 -0.2424  0.1190 -0.2243
  245MOL    H8929857   2.318   6.504   2.696 -0.2878 -0.0087  1.0937
  245MOL    H9029858   2.449   6.500   2.810 -0.6692 -1.2458  1.4862
  245MOL    H9129859   2.545   6.580   2.628  1.0233 -0.4995 -1.9657
  245MOL    C9229860   2.474   6.430   2.483 -0.0169  0.9181  0.1167
  245MOL    C9329861   2.574   6.430   2.364  0.7798 -0.1112 -0.2743
  245MOL    F9429862   2.526   6.364   2.260  0.4917  0.4450  0.2497
  245MOL    H9529863   2.442   6.325   2.490 -0.9515  1.1839 -0.0244
  245MOL    H9629864   2.381   6.481   2.459 -0.7358  0.2552  1.4139
  245MOL    H9729865   2.653   6.357   2.382 -0.8115 -1.5471  1.0923
  245MOL    C9829866   2.615   6.577   2.327  0.2361 -0.8493 -0.4344
  245MOL    C9929867   2.501   6.667   2.260  0.6554  0.3882 -0.3036
  245MOL   F10029868   2.416   6.705   2.356  0.0350  0.1641 -0.1399
  245MOL   H10129869   2.647   6.623   2.421 -1.3027  1.2831 -0.9178
  245MOL   H10229870   2.701   6.562   2.262  1.8998  0.1468  1.4489
  245MOL   H10329871   2.441   6.603   2.195 -1.1049 -0.4419  2.0632
  245MOL   C10429872   2.581   6.793   2.206 -0.5197 -0.6680 -0.5958
  245MOL   C10529873   2.502   6.876   2.109  0.4693 -0.4577  0.0896
  245MOL   F10629874   2.378   6.904   2.165 -0.1526 -0.0157 -0.1779
  245MOL   H10729875   2.613   6.850   2.293  2.0344 -2.4247 -0.3457
  245MOL   H10829876   2.673   6.767   2.153 -1.0725  0.6417 -2.2622
  245MOL   H10929877   2.470   6.808   2.029  1.0924 -1.6485  0.8572
  245MOL   C11029878   2.571   7.004   2.053  0.1996  0.9877  0.1410
  245MOL   C11129879   2.510   7.067   1.927  0.7654  0.9305 -0.0015
  245MOL   F11229880   2.571   7.181   1.902  0.1795 -0.1042  0.2525
  245MOL   H11329881   2.573   7.079   2.133 -0.6666  0.8215  0.3254
  245MOL   H11429882   2.675   6.973   2.039  0.8566  3.4825 -0.8070
  245MOL   H11529883   2.411   7.103   1.955 -0.3149 -1.0654 -1.1506
  245MOL   C11629884   2.513   6.984   1.799  0.1282 -0.3121 -0.6686
  245MOL   C11729885   2.447   7.054   1.673 -0.0352  0.1940  0.4700
  245MOL   F11829886   2.460   6.975   1.565 -0.1279  0.2345 -0.5241
  245MOL   H11929887   2.618   6.966   1.777  0.6191 -1.1596  2.2544
  245MOL   H12029888   2.477   6.886   1.827 -0.0467  0.5038  2.0897
  245MOL   H12129889   2.492   7.152   1.654  0.3342  0.2528  1.6480
  245MOL   H12229890   2.340   7.074   1.680 -0.0806 -0.3749  1.4133
  246MOL     C129891   3.067   0.937   5.415 -0.6259 -0.8363  0.3285
  246MOL     C229892   2.946   0.957   5.508  0.3364 -0.9044 -0.1592
  246MOL     F329893   2.877   1.066   5.478  0.2615 -0.3111  0.2961
  246MOL     H429894   3.118   1.027   5.381  0.4535 -1.0880  1.2719
  246MOL     H529895   3.045   0.885   5.322 -1.3156  0.1846 -0.0977
  246MOL     H629896   2.990   0.964   5.608 -0.2725 -0.9868  0.1144
  246MOL     H729897   3.142   0.868   5.452  1.4896 -0.7250 -3.4804
  246MOL     C829898   2.838   0.853   5.511  0.8848  1.0730 -0.0555
  246MOL     C929899   2.885   0.732   5.598 -1.0320  0.0381 -0.3502
  246MOL    F1029900   2.906   0.760   5.735  0.3881  0.0164  0.2982
  246MOL    H1129901   2.745   0.892   5.553 -0.6879 -0.6326 -1.8029
  246MOL    H1229902   2.806   0.819   5.412 -2.4983 -0.3715  1.4427
  246MOL    H1329903   2.982   0.698   5.561 -0.7763  0.9182 -0.4999
  246MOL    C1429904   2.771   0.633   5.586  0.2226  0.7399  0.2149
  246MOL    C1529905   2.790   0.493   5.643  0.3248  0.1004  0.5711
  246MOL    F1629906   2.884   0.430   5.582 -0.3048 -0.3763 -0.0336
  246MOL    H1729907   2.674   0.665   5.623 -0.1852 -0.8049  0.5333
  246MOL    H1829908   2.757   0.608   5.480  0.3408 -1.1834  0.6329
  246MOL    H1929909   2.698   0.446   5.611  1.6394 -1.9459 -0.3238
  246MOL    C2029910   2.800   0.473   5.796 -0.8426 -1.0972 -0.1351
  246MOL    C2129911   2.667   0.509   5.869 -0.5180 -0.0688  0.3891
  246MOL    F2229912   2.605   0.393   5.889  0.4341  0.3161  0.1663
  246MOL    H2329913   2.833   0.372   5.818  1.5637 -0.7173 -1.7714
  246MOL    H2429914   2.885   0.537   5.822 -2.1709  0.5004  0.3442
  246MOL    H2529915   2.598   0.570   5.810 -0.1406  0.2021  0.2259
  246MOL    C2629916   2.677   0.585   6.006 -0.4834 -0.1569 -0.3063
  246MOL    C2729917   2.711   0.736   6.001 -0.3909 -0.6516  0.8240
  246MOL    F2829918   2.596   0.785   5.947 -0.4053 -0.2152  0.1336
  246MOL    H2929919   2.579   0.576   6.054 -1.1013  0.3850 -1.4481
  246MOL    H3029920   2.736   0.525   6.075 -0.5064 -0.3565 -0.4567
  246MOL    H3129921   2.780   0.750   5.918  0.0981 -0.0227  1.3294
  246MOL    C3229922   2.768   0.797   6.133  0.0310 -0.0893 -0.3199
  246MOL    C3329923   2.755   0.957   6.131  0.6674 -0.2032  0.2816
  246MOL    F3429924   2.748   1.009   6.250  0.3208 -0.0717  0.5681
  246MOL    H3529925   2.705   0.772   6.219 -0.9621 -2.2148 -1.6143
  246MOL    H3629926   2.867   0.762   6.161  0.4393  1.2666 -0.0159
  246MOL    H3729927   2.664   0.978   6.075 -0.4529  0.3156  2.2413
  246MOL    C3829928   2.883   1.012   6.064  0.4120 -0.0500 -0.4681
  246MOL    C3929929   2.881   1.166   6.041 -0.0672 -0.3970  0.8706
  246MOL    F4029930   2.895   1.232   6.154  0.2221 -0.1266  0.0962
  246MOL    H4129931   2.968   0.993   6.129  0.6204  0.3016 -0.6334
  246MOL    H4229932   2.915   0.966   5.970 -0.4687  0.1006 -0.8502
  246MOL    H4329933   2.792   1.203   5.989  1.0365  1.0022 -0.0634
  246MOL    C4429934   3.000   1.208   5.956 -0.2471  0.0885  0.1486
  246MOL    C4529935   2.989   1.360   5.916  0.3193 -0.3338 -0.8651
  246MOL    F4629936   3.024   1.455   5.999 -0.2344 -0.5922 -0.6826
  246MOL    H4729937   3.098   1.194   6.002  0.3394 -2.0480 -1.6361
  246MOL    H4829938   3.008   1.141   5.871  0.9657  1.2757 -0.6871
  246MOL    H4929939   2.883   1.373   5.897 -0.0355 -2.3355 -0.3134
  246MOL    C5029940   3.063   1.398   5.794  0.0971  0.0533  0.1108
  246MOL    C5129941   3.013   1.536   5.728 -0.3514  0.6870 -0.2155
  246MOL    F5229942   3.070   1.645   5.786 -0.3225  0.2691 -0.2354
  246MOL    H5329943   3.170   1.409   5.807  0.2447  0.4049 -1.2987
  246MOL    H5429944   3.042   1.314   5.728  2.0271 -0.2589 -0.1295
  246MOL    H5529945   2.905   1.549   5.739 -0.0717  1.8391  1.2687
  246MOL    C5629946   3.044   1.555   5.586 -0.2542 -0.3063  0.1499
  246MOL    C5729947   2.962   1.475   5.485 -0.0163  0.6197  0.1915
  246MOL    F5829948   2.838   1.500   5.507 -0.1031 -0.0005  0.2931
  246MOL    H5929949   3.016   1.655   5.553  0.3114 -0.3924 -0.6058
  246MOL    H6029950   3.150   1.536   5.569 -0.0701  0.3608  0.5426
  246MOL    H6129951   2.964   1.369   5.513 -0.3665  0.1990 -1.3401
  246MOL    C6229952   3.016   1.505   5.348  0.0295 -0.4761 -0.7420
  246MOL    C6329953   2.911   1.456   5.238  0.7462  0.8123  0.2574
  246MOL    F6429954   2.964   1.497   5.125 -0.2763 -0.7135  0.4189
  246MOL    H6529955   3.028   1.612   5.335 -0.8859 -0.2760 -0.0012
  246MOL    H6629956   3.118   1.469   5.340  0.3814  0.2300  0.5326
  246MOL    H6729957   2.818   1.509   5.257  0.3297  0.4063 -0.6261
  246MOL    C6829958   2.887   1.305   5.235 -0.0812  0.3437 -0.4699
  246MOL    C6929959   2.789   1.272   5.118 -0.0494  0.0006  0.0196
  246MOL    F7029960   2.843   1.293   4.999 -0.6386 -0.2085 -0.5072
  246MOL    H7129961   2.977   1.244   5.241 -0.0650  0.4618  0.7071
  246MOL    H7229962   2.836   1.289   5.330 -0.2511 -0.4050 -0.6829
  246MOL    H7329963   2.700   1.335   5.119  0.9751  1.5782 -2.3898
  246MOL    C7429964   2.741   1.130   5.123 -1.2041  0.3457  0.3237
  246MOL    C7529965   2.604   1.099   5.054 -0.2880 -0.8614  0.4074
  246MOL    F7629966   2.506   1.158   5.132 -0.2535 -0.0532 -0.4019
  246MOL    H7729967   2.822   1.065   5.090 -1.9836 -0.1220 -0.7054
  246MOL    H7829968   2.721   1.118   5.230 -0.5128  2.1460  0.6725
  246MOL    H7929969   2.561   0.999   5.061 -1.8632 -0.2885 -0.6336
  246MOL    C8029970   2.603   1.141   4.908  0.7781 -0.0147 -0.2855
  246MOL    C8129971   2.487   1.088   4.823 -0.4263 -0.3427  0.7156
  246MOL    F8229972   2.498   1.148   4.705  0.0098  0.0784 -0.6599
  246MOL    H8329973   2.593   1.250   4.905 -0.5312 -0.1511 -1.6632
  246MOL    H8429974   2.692   1.109   4.853 -0.6339 -1.9570 -1.5198
  246MOL    H8529975   2.394   1.116   4.874 -0.8739 -0.0725 -0.2306
  246MOL    C8629976   2.492   0.940   4.778 -0.0145 -0.4164 -0.4959
  246MOL    C8729977   2.368   0.893   4.698  0.4761 -0.1595 -0.0655
  246MOL    F8829978   2.409   0.782   4.635  0.1149  0.3641 -0.5793
  246MOL    H8929979   2.586   0.927   4.726 -0.8472 -0.5760 -1.9904
  246MOL    H9029980   2.487   0.887   4.873  2.7559  1.9180  1.0194
  246MOL    H9129981   2.354   0.969   4.621 -0.1075 -0.5016 -0.3038
  246MOL    C9229982   2.239   0.866   4.784  0.0920 -0.1479  0.7229
  246MOL    C9329983   2.121   0.805   4.706  0.5712 -0.1368 -0.1287
  246MOL    F9429984   2.032   0.757   4.793 -0.1554 -0.0138 -0.3405
  246MOL    H9529985   2.266   0.792   4.859  0.6334 -1.8950 -1.1497
  246MOL    H9629986   2.220   0.966   4.822  0.0210  0.4304 -0.7879
  246MOL    H9729987   2.168   0.718   4.659  2.1785  1.3273 -1.3278
  246MOL    C9829988   2.050   0.899   4.604 -0.3017  0.0963  0.0852
  246MOL    C9929989   2.082   0.863   4.463 -0.1256 -0.3627  0.0838
  246MOL   F10029990   2.043   0.739   4.436 -0.1024 -0.5468 -0.0577
  246MOL   H10129991   1.944   0.880   4.614 -0.2931 -0.9323 -1.4910
  246MOL   H10229992   2.064   1.004   4.630 -0.6722  0.1825 -0.0722
  246MOL   H10329993   2.191   0.864   4.452 -0.0248 -4.7620 -0.3352
  246MOL   C10429994   2.013   0.965   4.369 -0.3447 -0.1549  0.7697
  246MOL   C10529995   2.088   0.964   4.232 -0.7214 -0.2301 -0.6392
  246MOL   F10629996   2.079   0.846   4.182  0.0631 -0.2317 -0.2373
  246MOL   H10729997   1.910   0.934   4.351  0.1278 -1.1670 -0.2586
  246MOL   H10829998   2.026   1.065   4.410  0.9155 -0.5899  1.4338
  246MOL   H10929999   2.194   0.981   4.248 -0.0448 -1.6939 -3.2027
  246MOL   C11030000   2.038   1.057   4.116  0.8092  0.4550  0.3413
  246MOL   C11130001   2.052   1.207   4.142  0.2676 -0.4790 -1.1756
  246MOL   F11230002   2.178   1.225   4.163 -0.5294  0.2921  0.1316
  246MOL   H11330003   2.081   1.037   4.018 -0.7097  0.5241 -0.3517
  246MOL   H11430004   1.931   1.039   4.103  0.8742 -0.2442  0.7584
  246MOL   H11530005   1.979   1.223   4.222 -0.5991 -3.8634 -1.1907
  246MOL   C11630006   1.998   1.303   4.034 -0.4815  0.0335 -0.4059
  246MOL   C11730007   1.976   1.450   4.068 -0.1344 -0.6503  0.0726
  246MOL   F11830008   1.884   1.463   4.158  0.6304  0.0926 -0.3046
  246MOL   H11930009   2.079   1.297   3.961  2.8537  1.0756  3.0900
  246MOL   H12030010   1.909   1.274   3.979 -0.4676  2.1780 -1.6479
  246MOL   H12130011   1.960   1.506   3.975 -1.3031 -0.2243  0.5322
  246MOL   H12230012   2.067   1.490   4.112 -0.7405 -0.9013  1.5627
  247MOL     C130013   3.374   0.925   0.005  0.0644  0.0570  0.7176
  247MOL     C230014   3.459   1.009   0.098 -0.0241  0.3403  0.6867
  247MOL     F330015   3.564   1.052   0.030 -0.6975  0.0574 -0.3710
  247MOL     H430016   3.431   0.835   7.986  0.4877  0.4251  0.2838
  247MOL     H530017   3.341   0.982   7.921 -1.0858  2.3770  2.5908
  247MOL     H630018   3.493   0.949   0.182  0.5281 -1.9958 -1.1467
  247MOL     H730019   3.284   0.882   0.050 -0.1172  0.0136  0.3144
  247MOL     C830020   3.382   1.134   0.152 -0.0555  0.1864 -0.4374
  247MOL     C930021   3.469   1.233   0.235 -0.2294  0.0687  0.4979
  247MOL    F1030022   3.389   1.322   0.293 -0.0167  0.0343 -0.0447
  247MOL    H1130023   3.346   1.187   0.064  0.9721  1.4569 -0.0981
  247MOL    H1230024   3.295   1.100   0.208  1.8621 -1.3694  1.7071
  247MOL    H1330025   3.520   1.289   0.158 -0.9627 -1.1521 -0.8986
  247MOL    C1430026   3.566   1.164   0.342 -0.3651 -0.1274 -0.0670
  247MOL    C1530027   3.503   1.090   0.459 -0.0727  0.3325 -0.2747
  247MOL    F1630028   3.474   0.966   0.423 -0.1957  0.2492  0.3125
  247MOL    H1730029   3.636   1.102   0.286  0.8400  1.2695 -0.1273
  247MOL    H1830030   3.632   1.239   0.385  1.2513 -1.9615  0.7514
  247MOL    H1930031   3.407   1.138   0.474 -0.2120 -0.9639  3.4351
  247MOL    C2030032   3.573   1.089   0.595  0.3668  0.0575 -0.1073
  247MOL    C2130033   3.497   1.034   0.720 -0.1090  0.9964  0.3017
  247MOL    F2230034   3.498   0.903   0.705 -0.4004  0.7244  0.5069
  247MOL    H2330035   3.674   1.050   0.577  0.0108 -1.1787  0.5398
  247MOL    H2430036   3.584   1.193   0.625  1.0379 -0.6612  2.2071
  247MOL    H2530037   3.395   1.072   0.719 -1.0745 -1.4821  0.9086
  247MOL    C2630038   3.566   1.068   0.852 -0.0182 -0.7485 -0.2856
  247MOL    C2730039   3.503   1.001   0.976 -0.3374 -0.2459  0.1883
  247MOL    F2830040   3.586   1.027   1.071 -0.1231  0.2179 -0.5179
  247MOL    H2930041   3.672   1.042   0.859 -0.2373 -1.4357  0.4043
  247MOL    H3030042   3.556   1.175   0.871 -2.3192 -1.3421  2.1099
  247MOL    H3130043   3.501   0.892   0.971  2.2040 -0.2873 -0.7120
  247MOL    C3230044   3.372   1.060   1.030  0.0152 -0.0448 -0.9443
  247MOL    C3330045   3.299   0.977   1.146  0.0548  0.6472 -0.0454
  247MOL    F3430046   3.367   0.959   1.258 -0.0020 -0.2545  0.5502
  247MOL    H3530047   3.391   1.163   1.059  0.1115 -0.5637  0.8966
  247MOL    H3630048   3.296   1.077   0.953 -0.8210  0.0755 -0.0988
  247MOL    H3730049   3.284   0.874   1.111  0.8899  0.4243  0.2687
  247MOL    C3830050   3.163   1.042   1.181  0.3126 -0.0200 -0.0600
  247MOL    C3930051   3.051   0.948   1.225  0.4376  0.8898  0.1801
  247MOL    F4030052   2.992   0.875   1.119 -0.0853  0.4248  0.0678
  247MOL    H4130053   3.170   1.107   1.268 -0.5439 -0.5777  0.4449
  247MOL    H4230054   3.127   1.109   1.103 -0.9227  0.2805  0.7578
  247MOL    H4330055   2.966   1.008   1.258  0.8900  1.1111  0.9583
  247MOL    C4430056   3.101   0.847   1.326  0.8150 -0.2575  0.4190
  247MOL    C4530057   3.001   0.736   1.374 -0.4133  0.0021 -0.1602
  247MOL    F4630058   3.060   0.646   1.457 -0.1170  0.7330  0.3716
  247MOL    H4730059   3.190   0.795   1.289  0.0311 -0.3869 -1.3592
  247MOL    H4830060   3.120   0.909   1.413  3.7179 -0.7069  0.1866
  247MOL    H4930061   2.971   0.673   1.290  0.3898  0.4800 -0.8103
  247MOL    C5030062   2.866   0.785   1.437  0.7817  0.1925  0.0711
  247MOL    C5130063   2.751   0.678   1.454  0.4632 -0.2204 -0.3670
  247MOL    F5230064   2.727   0.645   1.331 -0.1452  0.0191 -0.3826
  247MOL    H5330065   2.884   0.816   1.540  0.1369  1.5584 -0.2250
  247MOL    H5430066   2.832   0.877   1.391  1.1474  1.0499  1.4714
  247MOL    H5530067   2.662   0.722   1.500 -0.6198 -2.0657 -0.6545
  247MOL    C5630068   2.783   0.554   1.533 -0.2039  0.5590  0.3080
  247MOL    C5730069   2.666   0.461   1.552  0.3499  0.2757 -0.6012
  247MOL    F5830070   2.718   0.357   1.609 -0.1968  0.3844  0.0474
  247MOL    H5930071   2.872   0.512   1.487 -1.2011  0.3150 -1.4228
  247MOL    H6030072   2.834   0.582   1.626  1.9233 -1.4327 -0.2056
  247MOL    H6130073   2.616   0.432   1.460  0.8791  1.0474 -1.1410
  247MOL    C6230074   2.560   0.513   1.654  0.0300 -0.1587 -0.1606
  247MOL    C6330075   2.422   0.451   1.626  0.0821  0.0547 -0.4787
  247MOL    F6430076   2.396   0.507   1.508  0.3381 -0.1011  0.4127
  247MOL    H6530077   2.598   0.484   1.753 -0.2344  0.7592  0.2125
  247MOL    H6630078   2.553   0.621   1.648 -2.4711 -0.3867 -1.8602
  247MOL    H6730079   2.358   0.498   1.700 -0.3087 -0.5460 -0.4336
  247MOL    C6830080   2.425   0.295   1.624 -0.3955 -0.4059  0.1117
  247MOL    C6930081   2.450   0.238   1.763 -0.3878 -0.0351  0.3687
  247MOL    F7030082   2.347   0.289   1.832 -0.1058  0.0121  0.0241
  247MOL    H7130083   2.332   0.250   1.590 -0.7087 -0.6604  1.2839
  247MOL    H7230084   2.488   0.247   1.549 -0.4573 -0.4233  0.0708
  247MOL    H7330085   2.547   0.268   1.801 -1.5583  2.0468  1.7957
  247MOL    C7430086   2.436   0.092   1.774 -0.4823 -1.3339  0.4626
  247MOL    C7530087   2.564   0.020   1.727 -0.0013 -0.8064  0.0690
  247MOL    F7630088   2.641   0.036   1.835 -0.3702 -0.1331  0.0501
  247MOL    H7730089   2.419   0.077   1.881  0.9889 -0.9654  0.7657
  247MOL    H7830090   2.358   0.045   1.715 -1.2744  0.0161  0.4198
  247MOL    H7930091   2.609   0.078   1.646 -1.7308  0.3143 -0.1184
  247MOL    C8030092   2.548   7.871   1.715  0.4032 -0.4180  0.1621
  247MOL    C8130093   2.683   7.810   1.665  0.0945  0.9066 -0.5173
  247MOL    F8230094   2.654   7.680   1.663  0.3040  0.3423  0.1504
  247MOL    H8330095   2.521   7.832   1.813 -2.0815  2.0061  0.5029
  247MOL    H8430096   2.483   7.825   1.641  1.2803 -1.8373  0.2466
  247MOL    H8530097   2.758   7.812   1.744  0.5251 -1.0855 -0.8554
  247MOL    C8630098   2.738   7.834   1.522  0.0033 -0.6672  0.0110
  247MOL    C8730099   2.637   7.821   1.405 -0.5011 -0.1428 -0.3255
  247MOL    F8830100   2.538   7.909   1.423  0.1380  0.5079  0.0780
  247MOL    H8930101   2.795   7.928   1.522 -2.8364  1.2379 -4.1567
  247MOL    H9030102   2.819   7.762   1.515  0.7947  0.3747 -2.0314
  247MOL    H9130103   2.587   7.724   1.416 -3.1901  1.3357  0.9135
  247MOL    C9230104   2.693   7.837   1.270 -0.7992  0.8739  0.6008
  247MOL    C9330105   2.717   7.987   1.229 -0.5027 -0.6344  0.6913
  247MOL    F9430106   2.797   0.046   1.318  0.1389  0.1745  0.0358
  247MOL    H9530107   2.787   7.782   1.258 -0.5525  1.4965 -0.4299
  247MOL    H9630108   2.621   7.794   1.201  0.1002  0.6690 -0.2259
  247MOL    H9730109   2.618   0.030   1.237 -0.8360 -1.4256  1.2160
  247MOL    C9830110   2.771   7.994   1.083 -0.2220 -0.2036 -0.2572
  247MOL    C9930111   2.801   0.136   1.032  0.0982 -0.4953  0.2827
  247MOL   F10030112   2.814   0.120   0.900  0.3009 -0.5890 -0.2054
  247MOL   H10130113   2.857   7.930   1.063 -0.2403 -0.0456 -0.8468
  247MOL   H10230114   2.698   7.949   1.016 -1.0649 -2.1233  1.8859
  247MOL   H10330115   2.894   0.173   1.075 -0.1453 -0.8326  1.1027
  247MOL   C10430116   2.681   0.233   1.030 -0.0853  0.2268 -0.2172
  247MOL   C10530117   2.684   0.346   1.135  0.2810 -0.0706 -0.2488
  247MOL   F10630118   2.796   0.425   1.130 -0.0733  0.5710 -0.3631
  247MOL   H10730119   2.666   0.285   0.936 -1.5968 -0.6023 -0.4451
  247MOL   H10830120   2.593   0.175   1.057 -1.1337  0.1408 -3.6679
  247MOL   H10930121   2.683   0.315   1.239  1.8217  0.8227  0.0624
  247MOL   C11030122   2.559   0.437   1.118 -0.1429  0.0595 -0.2151
  247MOL   C11130123   2.431   0.366   1.153  0.3130 -0.6805 -0.3284
  247MOL   F11230124   2.441   0.296   1.268  0.0073  0.3955  0.4209
  247MOL   H11330125   2.584   0.511   1.193  1.9722 -1.4673  0.6431
  247MOL   H11430126   2.547   0.473   1.016  1.2563  2.7437  0.5398
  247MOL   H11530127   2.401   0.290   1.081 -4.3504  1.4986 -0.8230
  247MOL   C11630128   2.320   0.472   1.178  0.2445  0.0518  0.4432
  247MOL   C11730129   2.183   0.413   1.220  0.2591  0.1532  0.1063
  247MOL   F11830130   2.139   0.344   1.111  0.1052  0.2873 -0.0192
  247MOL   H11930131   2.344   0.553   1.247  1.2808  0.7343 -0.6832
  247MOL   H12030132   2.299   0.524   1.085 -1.2694  1.1102  1.3470
  247MOL   H12130133   2.115   0.495   1.242  0.2239 -0.1882  1.3308
  247MOL   H12230134   2.186   0.357   1.314  2.8347 -2.2302 -1.3082
  248MOL     C130135   3.756   6.817   0.144 -0.3068 -0.5264 -0.3039
  248MOL     C230136   3.774   6.866   7.998 -0.0517  0.0029  0.1622
  248MOL     F330137   3.778   6.758   7.929  0.1970  0.5733 -0.3994
  248MOL     H430138   3.785   6.898   0.211  0.5229  0.7297 -2.1284
  248MOL     H530139   3.824   6.739   0.180 -0.0218 -0.3904 -0.5452
  248MOL     H630140   3.869   6.910   7.971 -0.4224 -1.0295 -3.0458
  248MOL     H730141   3.650   6.796   0.159  0.1239 -1.5272  1.5088
  248MOL     C830142   3.663   6.947   7.935  0.5445  0.4378  0.2568
  248MOL     C930143   3.631   7.076   0.020 -0.7431  0.1225 -0.3028
  248MOL    F1030144   3.728   7.159   7.994 -0.2725  0.1270 -0.1392
  248MOL    H1130145   3.683   6.972   7.830  0.0886  0.4308  0.1665
  248MOL    H1230146   3.571   6.888   7.931  0.4953  0.4027  1.7036
  248MOL    H1330147   3.647   7.047   0.124  2.8012 -0.1732 -0.8969
  248MOL    C1430148   3.499   7.149   7.989 -0.1525 -0.0355 -0.2118
  248MOL    C1530149   3.377   7.089   0.057  0.7224  0.2667 -0.1094
  248MOL    F1630150   3.424   7.044   0.174  0.3480 -0.0933 -0.0783
  248MOL    H1730151   3.500   7.255   0.010 -1.5865  0.5142 -2.3677
  248MOL    H1830152   3.483   7.152   7.881  0.0192  1.1997 -0.2095
  248MOL    H1930153   3.334   6.997   0.016  0.2593  0.3430  0.2003
  248MOL    C2030154   3.265   7.192   0.083 -0.1191 -0.6131  0.9616
  248MOL    C2130155   3.131   7.143   0.151  0.5584  1.3200  0.1366
  248MOL    F2230156   3.089   7.246   0.213  0.1120 -0.2612  0.3917
  248MOL    H2330157   3.308   7.267   0.149  0.1352 -2.2739  2.7234
  248MOL    H2430158   3.239   7.237   7.990  0.0689 -1.8290  0.3297
  248MOL    H2530159   3.156   7.067   0.225 -0.0456  0.5889 -0.4040
  248MOL    C2630160   3.025   7.089   0.054  0.1049  0.0828  0.4727
  248MOL    C2730161   2.908   7.013   0.126 -0.7272 -0.3938  0.0811
  248MOL    F2830162   2.846   7.085   0.213  0.5229  0.1477 -0.3916
  248MOL    H2930163   2.992   7.176   8.001  0.0853 -0.2752 -0.0700
  248MOL    H3030164   3.075   7.022   7.987  1.5149  0.8561  0.7113
  248MOL    H3130165   2.956   6.929   0.176  0.6337 -0.0669 -0.6675
  248MOL    C3230166   2.801   6.941   0.036 -0.9869 -0.1552 -0.1377
  248MOL    C3330167   2.708   6.841   0.113 -0.1550 -0.0128  0.4073
  248MOL    F3430168   2.605   6.826   0.029  0.1041  0.3796  0.0079
  248MOL    H3530169   2.732   7.016   8.000 -0.6257 -0.4587 -1.3947
  248MOL    H3630170   2.847   6.890   7.955 -0.6514  1.0896 -0.7266
  248MOL    H3730171   2.668   6.865   0.212 -0.7240 -0.7761  0.3690
  248MOL    C3830172   2.770   6.703   0.138  0.1770 -0.2875  0.3998
  248MOL    C3930173   2.819   6.639   0.010 -0.1201 -0.1455 -0.0725
  248MOL    F4030174   2.943   6.678   7.980 -0.1116 -0.7742 -0.2727
  248MOL    H4130175   2.850   6.720   0.210 -0.9400 -1.5900  1.9831
  248MOL    H4230176   2.695   6.638   0.184 -1.0183 -0.1751 -1.3586
  248MOL    H4330177   2.749   6.675   7.938  0.8064  1.5491 -0.1329
  248MOL    C4430178   2.818   6.486   0.007  0.9045  0.6620  0.0608
  248MOL    C4530179   2.925   6.412   0.097 -0.3836  0.4822 -0.0119
  248MOL    F4630180   2.902   6.445   0.221 -0.3792 -0.0564 -0.3614
  248MOL    H4730181   2.720   6.456   0.045 -0.1115  1.1098 -2.1236
  248MOL    H4830182   2.821   6.459   7.904 -2.1646  2.0357 -0.4306
  248MOL    H4930183   3.026   6.450   0.086 -0.5677  1.1565  0.6046
  248MOL    C5030184   2.921   6.259   0.074 -0.0968 -0.0057  0.2728
  248MOL    C5130185   3.045   6.183   0.124  0.2552  0.1523 -0.7173
  248MOL    F5230186   3.057   6.209   0.254  0.0983 -0.7145  1.0227
  248MOL    H5330187   2.833   6.218   0.122  0.5795 -0.1071  1.4515
  248MOL    H5430188   2.911   6.243   7.969 -1.9500  0.1006  0.4198
  248MOL    H5530189   3.129   6.225   0.070 -0.4288  2.8617  0.2255
  248MOL    C5630190   3.040   6.031   0.112 -0.0812  0.4565  0.5076
  248MOL    C5730191   3.166   5.963   0.170  0.4054  0.4038 -0.3672
  248MOL    F5830192   3.157   5.825   0.158 -0.7286 -0.4702 -0.1079
  248MOL    H5930193   2.951   6.003   0.168 -1.1293  0.5114 -1.0978
  248MOL    H6030194   3.021   5.997   0.010  2.5698 -0.9518  0.4427
  248MOL    H6130195   3.165   5.971   0.279 -1.9752 -0.7319 -0.2656
  248MOL    C6230196   3.302   6.002   0.101  0.3816 -0.2331 -0.0630
  248MOL    C6330197   3.422   5.914   0.139  0.0822 -0.2347  0.2625
  248MOL    F6430198   3.517   5.963   0.056 -0.2120  0.2543 -0.7828
  248MOL    H6530199   3.285   6.007   7.997  1.0216 -0.1360 -0.1605
  248MOL    H6630200   3.320   6.105   0.132 -0.0225 -0.3395  0.5473
  248MOL    H6730201   3.404   5.813   0.102 -1.5545  1.0736 -2.7684
  248MOL    C6830202   3.467   5.922   0.288 -0.2575  0.3059  0.2065
  248MOL    C6930203   3.573   5.818   0.335 -0.2399 -0.0381  0.3089
  248MOL    F7030204   3.670   5.815   0.242 -0.1764 -0.8376 -0.0869
  248MOL    H7130205   3.493   6.024   0.315 -2.6835  1.0774 -0.1849
  248MOL    H7230206   3.390   5.903   0.363 -0.2871  0.5533  0.2380
  248MOL    H7330207   3.527   5.720   0.322  1.0030 -0.7806  1.4808
  248MOL    C7430208   3.642   5.841   0.469 -1.1921 -0.3761 -0.2266
  248MOL    C7530209   3.559   5.799   0.592 -0.0751  0.4847 -0.0976
  248MOL    F7630210   3.530   5.671   0.587  0.1279  0.3798 -0.3275
  248MOL    H7730211   3.739   5.793   0.462 -1.6683 -1.7391  2.0348
  248MOL    H7830212   3.671   5.946   0.473 -2.3339  0.0051 -1.7304
  248MOL    H7930213   3.469   5.860   0.595  0.1930  0.8348  0.8714
  248MOL    C8030214   3.618   5.827   0.731  0.1579  0.5542 -0.5017
  248MOL    C8130215   3.635   5.983   0.750 -0.0623  0.5730  0.6882
  248MOL    F8230216   3.510   6.031   0.758 -0.1846 -0.1699 -0.1580
  248MOL    H8330217   3.567   5.793   0.821  3.0382 -0.1730  0.8791
  248MOL    H8430218   3.711   5.773   0.744 -0.0267  0.7743  2.0126
  248MOL    H8530219   3.668   6.021   0.653 -1.3027  1.6796  0.6799
  248MOL    C8630220   3.726   6.018   0.867 -0.1455 -0.1294  0.2142
  248MOL    C8730221   3.874   6.006   0.835 -0.5394 -0.2023  0.0315
  248MOL    F8830222   3.912   6.061   0.718 -0.3642 -0.0382 -0.0204
  248MOL    H8930223   3.703   6.116   0.909  1.5022  0.1638  0.4509
  248MOL    H9030224   3.713   5.948   0.949  0.9219 -1.1270 -0.4509
  248MOL    H9130225   3.894   5.900   0.819 -0.8747 -0.0207 -1.6661
  248MOL    C9230226   3.973   6.064   0.942  0.6544  0.1836  0.2383
  248MOL    C9330227   3.978   5.977   1.072  1.2440  0.4621 -0.1851
  248MOL    F9430228   4.054   5.872   1.050  0.2732 -0.1834 -0.6094
  248MOL    H9530229   4.072   6.050   0.898 -0.1465 -1.7622 -0.9947
  248MOL    H9630230   3.955   6.171   0.956 -0.7868  0.4589 -3.1790
  248MOL    H9730231   3.883   5.945   1.115  0.8458  1.7462 -0.0985
  248MOL    C9830232   4.041   6.054   1.188  0.0834  0.0182 -0.1692
  248MOL    C9930233   3.941   6.152   1.257 -0.1231 -0.9115 -0.1653
  248MOL   F10030234   3.847   6.074   1.319  0.0730  0.0350 -0.0995
  248MOL   H10130235   4.095   5.982   1.250 -0.2424  1.4288  1.8144
  248MOL   H10230236   4.126   6.110   1.149  0.3128  0.5718  1.0937
  248MOL   H10330237   3.885   6.197   1.175 -0.6932  1.0012  1.2466
  248MOL   C10430238   4.006   6.257   1.354  0.2280 -0.0399  0.9905
  248MOL   C10530239   4.100   6.208   1.460  0.6877 -0.1381 -0.3179
  248MOL   F10630240   4.219   6.184   1.398 -0.2511 -0.3652 -0.1822
  248MOL   H10730241   4.061   6.321   1.285  1.1500 -1.8526  0.0217
  248MOL   H10830242   3.927   6.312   1.406 -0.4465 -2.2059  2.3368
  248MOL   H10930243   4.066   6.109   1.492  0.6177 -0.6807 -1.9995
  248MOL   C11030244   4.128   6.306   1.578  0.6150  0.2380  0.4406
  248MOL   C11130245   4.242   6.274   1.676  0.3268 -0.0663  0.4268
  248MOL   F11230246   4.266   6.385   1.748 -0.1107  0.4703 -0.4697
  248MOL   H11330247   4.149   6.402   1.531 -0.7848  0.1205 -0.4481
  248MOL   H11430248   4.035   6.324   1.632  1.0817 -0.6870  1.5790
  248MOL   H11530249   4.329   6.256   1.613 -0.3777 -0.2208 -0.5021
  248MOL   C11630250   4.216   6.155   1.767  0.1823 -1.2746  0.1094
  248MOL   C11730251   4.314   6.147   1.886  0.3365 -0.5866 -0.0454
  248MOL   F11830252   4.321   6.021   1.938 -0.0362 -0.2270 -0.7312
  248MOL   H11930253   4.110   6.150   1.792  0.2830  1.9910  1.4731
  248MOL   H12030254   4.223   6.068   1.702  0.4463 -1.7823  0.8182
  248MOL   H12130255   4.296   6.224   1.962 -1.1306 -1.6051  0.6405
  248MOL   H12230256   4.411   6.177   1.846  1.9456 -2.6560  2.1411
  249MOL     C130257   6.905   1.236   3.638  0.6162 -0.0922 -0.2500
  249MOL     C230258   7.036   1.284   3.711  1.0344 -0.1506  0.6163
  249MOL     F330259   7.021   1.243   3.841  0.3017 -0.1808  0.6272
  249MOL     H430260   6.907   1.127   3.631  2.8312 -0.1757  1.1732
  249MOL     H530261   6.902   1.274   3.536 -1.0497  1.9539  0.5213
  249MOL     H630262   7.038   1.393   3.716  1.9398 -0.0910 -0.7834
  249MOL     H730263   6.816   1.271   3.692  0.7907  0.0545 -0.0584
  249MOL     C830264   7.157   1.244   3.641  0.0192 -0.1733  0.4181
  249MOL     C930265   7.179   1.091   3.617  0.4308 -0.1960 -0.8149
  249MOL    F1030266   7.095   1.053   3.524  0.2710 -0.0338 -0.2622
  249MOL    H1130267   7.160   1.282   3.539  0.4959 -1.6564 -0.1404
  249MOL    H1230268   7.245   1.272   3.699  0.0316 -1.8646  1.2407
  249MOL    H1330269   7.146   1.032   3.703 -1.0274  0.6397 -0.7808
  249MOL    C1430270   7.320   1.036   3.588 -0.2785  0.5248 -0.1509
  249MOL    C1530271   7.336   0.888   3.532  0.4356  0.1122  0.3427
  249MOL    F1630272   7.465   0.872   3.503  1.0615  0.1880 -0.3353
  249MOL    H1730273   7.365   1.116   3.528 -0.0743  1.3657  1.1009
  249MOL    H1830274   7.377   1.056   3.679 -1.4159 -0.1888  0.7323
  249MOL    H1930275   7.272   0.890   3.444 -1.7198 -1.3404  1.8339
  249MOL    C2030276   7.308   0.771   3.628  0.5916  0.1495  0.0849
  249MOL    C2130277   7.376   0.757   3.770 -0.1076 -0.3746 -0.2746
  249MOL    F2230278   7.365   0.864   3.844  0.3510  0.2844  0.0459
  249MOL    H2330279   7.202   0.764   3.650  0.3048  0.4000 -1.1739
  249MOL    H2430280   7.328   0.680   3.573  3.0717  0.6147  0.1616
  249MOL    H2530281   7.484   0.760   3.751  0.0268 -1.6337  0.2112
  249MOL    C2630282   7.313   0.640   3.850 -0.2839  0.1832  0.0254
  249MOL    C2730283   7.314   0.493   3.801 -0.3720  0.0492 -0.2418
  249MOL    F2830284   7.441   0.468   3.797 -0.1898 -0.6499  0.0258
  249MOL    H2930285   7.364   0.640   3.946 -0.4245 -0.1445  0.0978
  249MOL    H3030286   7.210   0.662   3.880 -0.7315  0.0088 -1.3287
  249MOL    H3130287   7.275   0.485   3.699 -0.1442 -0.2894 -0.3042
  249MOL    C3230288   7.228   0.395   3.882 -0.5353 -0.2857 -0.5252
  249MOL    C3330289   7.219   0.255   3.833 -0.4510 -0.6230  0.1337
  249MOL    F3430290   7.336   0.215   3.792 -0.5194  0.3147 -0.0260
  249MOL    H3530291   7.278   0.392   3.979 -3.1274  1.3146  0.9144
  249MOL    H3630292   7.127   0.427   3.906 -0.5762  0.7964 -2.0543
  249MOL    H3730293   7.157   0.257   3.743  0.1867  1.0249 -0.2763
  249MOL    C3830294   7.171   0.161   3.942  0.2903  0.8611 -1.1104
  249MOL    C3930295   7.125   0.027   3.885 -0.5551  0.0290 -0.4755
  249MOL    F4030296   7.035   0.050   3.781  0.0944  0.4496 -0.3978
  249MOL    H4130297   7.258   0.153   4.008 -0.7074 -1.4365 -0.0080
  249MOL    H4230298   7.087   0.204   3.995  0.8452 -0.6953  1.1063
  249MOL    H4330299   7.061   7.985   3.961  0.3491 -0.0678  0.2378
  249MOL    C4430300   7.232   7.925   3.860 -0.0551  0.4324  0.7292
  249MOL    C4530301   7.188   7.776   3.833  0.3188 -0.6671 -0.1578
  249MOL    F4630302   7.135   7.730   3.948 -0.2537 -0.0246 -0.5682
  249MOL    H4730303   7.290   7.957   3.773  1.7752 -1.3884  1.2253
  249MOL    H4830304   7.305   7.929   3.940  1.3292  0.7396 -0.5234
  249MOL    H4930305   7.283   7.726   3.816  1.0763  0.8267 -0.4429
  249MOL    C5030306   7.087   7.748   3.715 -0.5535 -0.0912 -1.0320
  249MOL    C5130307   7.159   7.764   3.582 -0.1376  0.1318  0.1474
  249MOL    F5230308   7.230   7.648   3.562 -0.1285 -0.2320  0.1864
  249MOL    H5330309   7.040   7.652   3.735  1.4688 -0.6649  1.2830
  249MOL    H5430310   7.003   7.816   3.725  0.1298  0.3812  2.0113
  249MOL    H5530311   7.224   7.852   3.577 -0.1811  0.2756  1.8539
  249MOL    C5630312   7.070   7.780   3.462 -0.1045  1.0622  0.3451
  249MOL    C5730313   6.965   7.892   3.452 -0.4812 -0.2419 -0.0564
  249MOL    F5830314   7.022   0.007   3.486 -0.0475 -0.3834 -0.6096
  249MOL    H5930315   7.138   7.787   3.377 -0.9083 -0.2931 -0.4159
  249MOL    H6030316   7.019   7.688   3.434 -0.2074  1.0413  0.5968
  249MOL    H6130317   6.887   7.872   3.526  0.8281 -0.0057  1.4135
  249MOL    C6230318   6.906   7.907   3.310  0.1048 -0.6476  0.3151
  249MOL    C6330319   6.807   7.803   3.254 -0.5446  0.1806  0.0624
  249MOL    F6430320   6.710   7.798   3.340 -0.3822  0.1717  0.2184
  249MOL    H6530321   6.852   8.001   3.324  0.1271 -0.4467 -0.9000
  249MOL    H6630322   6.980   7.929   3.234  0.5357 -0.5120  0.7735
  249MOL    H6730323   6.855   7.705   3.259  0.6515  0.4470 -4.0398
  249MOL    C6830324   6.737   7.814   3.118 -0.4045  0.2285  0.4870
  249MOL    C6930325   6.832   7.775   3.002  0.7206 -0.1492  0.2086
  249MOL    F7030326   6.882   7.648   3.016 -0.2232  0.4004  0.0302
  249MOL    H7130327   6.649   7.750   3.112 -1.4225  1.7452 -0.9566
  249MOL    H7230328   6.709   7.919   3.111 -0.0921  0.2596 -0.3734
  249MOL    H7330329   6.920   7.837   3.015  1.1271  0.1243 -3.2373
  249MOL    C7430330   6.772   7.821   2.868 -0.0189  0.7398 -0.0238
  249MOL    C7530331   6.857   7.766   2.754  0.4946  0.2437  0.3154
  249MOL    F7630332   6.801   7.825   2.648  0.3387 -0.1415 -0.0726
  249MOL    H7730333   6.667   7.790   2.874 -0.0958  1.2937  1.7340
  249MOL    H7830334   6.773   7.930   2.872  0.7000  0.7683 -0.8996
  249MOL    H7930335   6.848   7.657   2.748  1.2640  0.2995 -3.0839
  249MOL    C8030336   7.011   7.792   2.771  0.4211  0.1281  0.2467
  249MOL    C8130337   7.085   7.742   2.640  0.6873  0.0007  0.2178
  249MOL    F8230338   7.199   7.808   2.631 -0.1010  0.3016  0.0885
  249MOL    H8330339   7.023   7.900   2.774  0.7354  0.1076 -0.3402
  249MOL    H8430340   7.047   7.747   2.864 -2.3236 -1.8927  0.4096
  249MOL    H8530341   7.034   7.776   2.550  1.5040  1.7876  0.4171
  249MOL    C8630342   7.115   7.587   2.652  0.0875  0.5591  0.0188
  249MOL    C8730343   7.064   7.520   2.524  0.3558  0.0734 -0.2407
  249MOL    F8830344   7.142   7.579   2.429  0.4443 -0.1048  0.2463
  249MOL    H8930345   7.222   7.572   2.669 -0.4531 -3.0607  0.6664
  249MOL    H9030346   7.059   7.547   2.736 -0.5663  0.6106 -0.3910
  249MOL    H9130347   6.960   7.542   2.503  0.2515  0.2785  0.4814
  249MOL    C9230348   7.102   7.375   2.519 -0.4043 -0.0991  0.2065
  249MOL    C9330349   7.018   7.290   2.429 -0.3071  0.2224  0.2946
  249MOL    F9430350   7.013   7.347   2.308  0.6306  0.1480  0.3739
  249MOL    H9530351   7.206   7.369   2.488 -0.6665 -0.9843 -0.5421
  249MOL    H9630352   7.108   7.333   2.620  0.5003 -1.2657 -0.3238
  249MOL    H9730353   6.913   7.297   2.459 -0.9188 -2.7841 -0.9249
  249MOL    C9830354   7.072   7.145   2.412 -0.1774 -0.1132  0.0790
  249MOL    C9930355   6.962   7.056   2.357 -0.4144  0.2890  0.0954
  249MOL   F10030356   6.925   7.094   2.239  0.3639  0.2286 -0.0074
  249MOL   H10130357   7.156   7.151   2.343 -1.0336 -2.3619 -1.2212
  249MOL   H10230358   7.103   7.113   2.511 -1.6005 -0.3695  0.4460
  249MOL   H10330359   6.874   7.070   2.420 -0.8935  2.5748 -1.0172
  249MOL   C10430360   7.006   6.910   2.350  0.2861  0.4315 -0.4741
  249MOL   C10530361   7.036   6.837   2.489  0.0150 -0.3454  0.4353
  249MOL   F10630362   6.924   6.825   2.548 -0.1859  0.1708 -0.1770
  249MOL   H10730363   6.929   6.859   2.294  0.2324 -0.4123  0.3572
  249MOL   H10830364   7.103   6.915   2.301  1.2032  1.9730  1.4255
  249MOL   H10930365   7.100   6.898   2.552 -0.3434  1.3620 -0.8117
  249MOL   C11030366   7.097   6.693   2.469 -0.6938 -0.6487  0.1739
  249MOL   C11130367   7.239   6.667   2.406  0.1393 -0.2435  0.4920
  249MOL   F11230368   7.330   6.737   2.463 -0.4311  0.2262  0.2792
  249MOL   H11330369   7.087   6.649   2.568 -1.5111 -1.1960 -0.1537
  249MOL   H11430370   7.031   6.629   2.410  1.5369 -4.7186  1.8614
  249MOL   H11530371   7.244   6.706   2.304  1.1694 -2.2380 -0.2493
  249MOL   C11630372   7.274   6.518   2.411 -0.4550  0.3685 -0.3141
  249MOL   C11730373   7.383   6.476   2.313  0.0801  0.1841 -0.1399
  249MOL   F11830374   7.319   6.485   2.196 -0.8618 -0.1474 -0.5960
  249MOL   H11930375   7.308   6.492   2.511 -0.5318  1.1779 -0.0747
  249MOL   H12030376   7.194   6.450   2.384 -2.4542  3.0074 -1.2725
  249MOL   H12130377   7.407   6.370   2.323 -0.4874  0.1400  0.7687
  249MOL   H12230378   7.470   6.542   2.319  0.8995 -0.9585  1.0699
  250MOL     C130379   1.693   5.083   3.659  0.6054  0.0857 -0.1707
  250MOL     C230380   1.679   5.009   3.524  0.0690  0.5142 -0.1570
  250MOL     F330381   1.622   5.100   3.438 -0.1821  0.1589 -0.4293
  250MOL     H430382   1.591   5.102   3.693  0.9574 -1.1655  1.6669
  250MOL     H530383   1.738   5.179   3.635  0.3917 -0.0009 -0.9064
  250MOL     H630384   1.603   4.932   3.541  0.1828  0.1750 -1.1827
  250MOL     H730385   1.757   5.030   3.730  0.0584 -0.4036 -0.0350
  250MOL     C830386   1.812   4.953   3.465 -0.6674 -0.6864  0.1373
  250MOL     C930387   1.824   4.913   3.316  0.5326 -0.3855  0.0626
  250MOL    F1030388   1.937   4.847   3.291 -0.0254 -0.3397 -0.3058
  250MOL    H1130389   1.887   5.031   3.476 -1.5373 -0.0210  1.6639
  250MOL    H1230390   1.842   4.869   3.527 -0.6801 -1.6380 -1.1324
  250MOL    H1330391   1.827   5.001   3.252 -2.0522 -0.6540 -0.4703
  250MOL    C1430392   1.705   4.825   3.260  0.2493  0.3270  0.0815
  250MOL    C1530393   1.692   4.814   3.103 -0.3273  0.8166 -0.7953
  250MOL    F1630394   1.693   4.935   3.058 -0.2540  0.0006 -0.3539
  250MOL    H1730395   1.706   4.730   3.312  2.6897  1.1045  1.4917
  250MOL    H1830396   1.614   4.867   3.302  0.4119  0.6638  0.1011
  250MOL    H1930397   1.600   4.760   3.080  0.9605 -2.5063  1.4906
  250MOL    C2030398   1.809   4.742   3.042  0.1528 -0.1467 -0.6021
  250MOL    C2130399   1.793   4.697   2.904 -0.2225 -0.4357 -0.0145
  250MOL    F2230400   1.759   4.811   2.838 -0.0875  0.2283  0.4873
  250MOL    H2330401   1.900   4.802   3.048  1.3171 -1.9943  0.8546
  250MOL    H2430402   1.816   4.647   3.095 -2.6156  0.0881  0.2291
  250MOL    H2530403   1.709   4.629   2.893  0.0619 -0.5665 -1.4144
  250MOL    C2630404   1.922   4.634   2.837  0.2760 -0.1901 -0.1683
  250MOL    C2730405   1.900   4.578   2.694 -0.1165  0.3007  0.2549
  250MOL    F2830406   1.832   4.670   2.628 -0.3796  0.7221  0.3948
  250MOL    H2930407   2.006   4.701   2.847 -0.0280  0.0319  0.9833
  250MOL    H3030408   1.945   4.547   2.899  0.0440 -0.8439 -0.9873
  250MOL    H3130409   1.843   4.487   2.711 -1.0062  0.6423 -0.8416
  250MOL    C3230410   2.032   4.574   2.616 -0.3176  0.6530 -0.0901
  250MOL    C3330411   2.151   4.498   2.677 -0.9007 -0.5500 -0.1707
  250MOL    F3430412   2.123   4.371   2.681 -0.3373  0.1827 -0.1416
  250MOL    H3530413   2.024   4.539   2.513  2.8162  1.1547 -0.5652
  250MOL    H3630414   2.065   4.676   2.597  1.4938  0.3714  1.3817
  250MOL    H3730415   2.175   4.530   2.779  0.9801  1.6342 -1.2431
  250MOL    C3830416   2.281   4.502   2.588 -0.2699  0.0385 -0.4707
  250MOL    C3930417   2.415   4.489   2.664  0.3898 -0.1222  0.0965
  250MOL    F4030418   2.492   4.423   2.570  0.2989 -0.0883 -0.1274
  250MOL    H4130419   2.286   4.428   2.508  0.4242 -0.2538 -0.1579
  250MOL    H4230420   2.278   4.600   2.539 -0.7643  0.3016  0.0842
  250MOL    H4330421   2.396   4.422   2.747 -0.6280 -1.0867 -0.9026
  250MOL    C4430422   2.473   4.630   2.712 -0.0304 -0.2724 -0.3756
  250MOL    C4530423   2.526   4.712   2.595  0.0351 -0.1748 -0.0840
  250MOL    F4630424   2.424   4.788   2.551  0.3894  0.1486  0.2898
  250MOL    H4730425   2.395   4.677   2.771  2.2019  1.8925  0.9738
  250MOL    H4830426   2.550   4.610   2.787 -1.4318  0.0646  1.1866
  250MOL    H4930427   2.537   4.645   2.510  0.0422 -1.1297  0.6600
  250MOL    C5030428   2.645   4.801   2.625 -0.2526 -0.2819 -0.0263
  250MOL    C5130429   2.781   4.718   2.650  0.4742  0.4657  0.0529
  250MOL    F5230430   2.802   4.628   2.555 -0.0349 -0.1150  0.1488
  250MOL    H5330431   2.661   4.883   2.554  1.8631  0.1438  0.8985
  250MOL    H5430432   2.617   4.851   2.718  1.5178  1.4168 -0.3617
  250MOL    H5530433   2.776   4.657   2.741 -1.2330 -1.0082 -0.9867
  250MOL    C5630434   2.908   4.810   2.645  0.5824  0.3152  0.5057
  250MOL    C5730435   2.928   4.906   2.763 -0.0666  0.1794 -0.1133
  250MOL    F5830436   2.949   4.830   2.872  0.6052  0.2589  0.0408
  250MOL    H5930437   2.994   4.744   2.637  1.0251  1.0241 -0.6531
  250MOL    H6030438   2.898   4.866   2.552 -0.5907 -0.5461  0.1020
  250MOL    H6130439   2.834   4.958   2.781 -0.7594 -1.1956  0.3761
  250MOL    C6230440   3.049   5.004   2.753 -0.7001  1.1640  0.8890
  250MOL    C6330441   3.049   5.111   2.869 -0.8580  0.2084  1.3492
  250MOL    F6430442   3.105   5.043   2.973  0.0508 -0.1934  0.1269
  250MOL    H6530443   3.141   4.945   2.745 -0.9247  1.0711 -1.4577
  250MOL    H6630444   3.041   5.055   2.657 -0.6239 -1.3931 -0.5511
  250MOL    H6730445   2.946   5.124   2.902 -0.9487 -3.3848  2.6741
  250MOL    C6830446   3.141   5.233   2.843 -0.0181  0.1225  0.8254
  250MOL    C6930447   3.146   5.349   2.941  0.6819 -0.4442 -0.0679
  250MOL    F7030448   3.242   5.431   2.897  0.0267 -0.4649 -0.0109
  250MOL    H7130449   3.246   5.208   2.827  0.0702  0.5414  0.7373
  250MOL    H7230450   3.108   5.280   2.750 -1.1482  1.5869  1.9543
  250MOL    H7330451   3.183   5.311   3.037  1.9664 -2.2788 -1.2467
  250MOL    C7430452   3.012   5.431   2.958 -0.2886 -0.9586 -0.4012
  250MOL    C7530453   3.015   5.571   3.034  0.6403 -0.4940  0.0505
  250MOL    F7630454   2.898   5.619   3.013 -0.0670 -0.3006 -0.4194
  250MOL    H7730455   2.977   5.458   2.858  1.6373  1.5856 -0.4300
  250MOL    H7830456   2.942   5.365   3.009  0.0002 -2.4185 -1.8468
  250MOL    H7930457   3.089   5.632   2.982 -1.6835 -0.0731 -2.9057
  250MOL    C8030458   3.060   5.557   3.182  0.1526 -0.5622  0.3919
  250MOL    C8130459   3.014   5.667   3.280  0.7002 -0.3513 -0.5191
  250MOL    F8230460   3.025   5.622   3.408 -0.9386 -0.3667  0.0402
  250MOL    H8330461   3.006   5.468   3.215 -2.1364  0.4150 -0.5880
  250MOL    H8430462   3.168   5.544   3.187  0.5453  2.7233  1.4479
  250MOL    H8530463   2.908   5.689   3.268  0.3742 -0.8092  1.2776
  250MOL    C8630464   3.097   5.794   3.265  0.1514  0.5746  0.2552
  250MOL    C8730465   3.062   5.898   3.375  0.3228  0.1192  0.2888
  250MOL    F8830466   3.165   5.976   3.390  0.2862 -0.1668 -0.3774
  250MOL    H8930467   3.196   5.754   3.284  0.1946  0.2169 -0.6866
  250MOL    H9030468   3.097   5.842   3.167  1.2325  1.7398  0.8161
  250MOL    H9130469   3.043   5.854   3.473 -2.2646 -1.1842 -0.7492
  250MOL    C9230470   2.941   5.982   3.333  0.2117 -0.1513  0.4041
  250MOL    C9330471   2.886   6.081   3.439  0.1218 -0.3296 -0.6936
  250MOL    F9430472   2.796   6.020   3.519 -0.1459 -0.2848 -0.2032
  250MOL    H9530473   2.968   6.042   3.246  0.3805 -0.1179  0.4798
  250MOL    H9630474   2.863   5.917   3.292  2.4574 -3.7363  1.5391
  250MOL    H9730475   2.825   6.155   3.388  0.5409  0.7044  0.2692
  250MOL    C9830476   2.991   6.149   3.525  0.1610 -0.3787 -1.2758
  250MOL    C9930477   3.084   6.253   3.459  0.2016 -0.0525  0.8013
  250MOL   F10030478   3.020   6.355   3.397 -0.2800  0.6958  0.4216
  250MOL   H10130479   2.931   6.189   3.606  2.1854 -1.5706  0.8866
  250MOL   H10230480   3.055   6.077   3.576  0.7170 -0.2907 -1.8429
  250MOL   H10330481   3.122   6.209   3.367  1.3749  1.2757  0.6353
  250MOL   C10430482   3.201   6.296   3.542  0.6054  0.3799  0.4274
  250MOL   C10530483   3.316   6.363   3.456  0.1522  0.2687 -0.4598
  250MOL   F10630484   3.392   6.430   3.533 -0.1357 -0.0460 -0.0581
  250MOL   H10730485   3.157   6.368   3.610  0.2488 -0.2828  0.9116
  250MOL   H10830486   3.229   6.197   3.578  0.7030 -0.3695 -1.6537
  250MOL   H10930487   3.263   6.433   3.392  0.8015  1.2054  0.0090
  250MOL   C11030488   3.405   6.268   3.382 -0.4634 -0.4294  0.0479
  250MOL   C11130489   3.516   6.324   3.301 -0.1537 -0.0299 -0.3339
  250MOL   F11230490   3.582   6.215   3.271 -0.0948 -0.0685 -0.4231
  250MOL   H11330491   3.454   6.199   3.451  0.4919  0.0088 -0.1869
  250MOL   H11430492   3.351   6.214   3.304  0.9445 -1.1327 -0.4592
  250MOL   H11530493   3.581   6.395   3.352 -2.3891  0.3658  2.1251
  250MOL   C11630494   3.488   6.398   3.172 -0.8032 -0.3125  0.4016
  250MOL   C11730495   3.598   6.415   3.072 -0.1885  0.0329 -0.0568
  250MOL   F11830496   3.686   6.513   3.105 -0.4224 -0.3032  0.3676
  250MOL   H11930497   3.411   6.333   3.130  0.6784 -1.4526 -0.6102
  250MOL   H12030498   3.450   6.497   3.195 -0.9191 -0.7142  1.9883
  250MOL   H12130499   3.558   6.439   2.974  0.9026 -1.0575 -0.7783
  250MOL   H12230500   3.656   6.325   3.056  2.2185  1.7918 -1.5504
  251MOL     C130501   3.916   7.043   4.485  0.1579  0.5593  0.5263
  251MOL     C230502   3.799   7.020   4.389  0.2619  0.2316  0.5594
  251MOL     F330503   3.686   6.984   4.456 -0.6647 -0.1845  0.1563
  251MOL     H430504   4.012   7.052   4.435  0.5138  0.7465  1.2358
  251MOL     H530505   3.929   6.949   4.538 -0.2601  0.4322  0.4024
  251MOL     H630506   3.829   6.931   4.334 -2.3828 -0.5739  0.3791
  251MOL     H730507   3.895   7.126   4.554 -1.0685  0.6782  0.0292
  251MOL     C830508   3.776   7.139   4.303 -0.2175 -0.0342  0.4384
  251MOL     C930509   3.883   7.166   4.195  0.4108  0.0558  0.1999
  251MOL    F1030510   3.864   7.079   4.096 -0.0436 -0.4699  0.1147
  251MOL    H1130511   3.679   7.110   4.262 -0.0645 -0.6952  0.5365
  251MOL    H1230512   3.762   7.233   4.356 -0.0746 -0.2161  0.8004
  251MOL    H1330513   3.978   7.150   4.244 -0.1719 -2.3302  0.5804
  251MOL    C1430514   3.876   7.298   4.125  0.4353 -0.2128  0.1188
  251MOL    C1530515   3.986   7.331   4.017 -0.4463 -0.1626 -0.4519
  251MOL    F1630516   4.103   7.286   4.065 -0.4867  0.2575 -0.0729
  251MOL    H1730517   3.776   7.314   4.086  0.5084 -0.0156  0.0056
  251MOL    H1830518   3.885   7.378   4.199 -1.0563  0.1426 -0.0810
  251MOL    H1930519   3.998   7.439   4.017  0.7249 -0.2693 -2.2674
  251MOL    C2030520   3.963   7.285   3.873  0.0859 -0.0161  0.0508
  251MOL    C2130521   3.837   7.337   3.806  0.7839  0.1216 -0.8087
  251MOL    F2230522   3.834   7.467   3.797  0.0202  0.1349  0.0166
  251MOL    H2330523   4.047   7.321   3.812 -0.4436 -1.8546 -1.8274
  251MOL    H2430524   3.953   7.176   3.869  2.0158 -0.2372  0.7254
  251MOL    H2530525   3.745   7.308   3.858 -0.7229  1.7673 -2.5201
  251MOL    C2630526   3.814   7.283   3.657 -0.5826  0.0973  0.0039
  251MOL    C2730527   3.693   7.346   3.589  0.5427  0.1146 -0.2502
  251MOL    F2830528   3.687   7.309   3.460 -0.3867 -0.4049 -0.0658
  251MOL    H2930529   3.898   7.300   3.590 -0.3041 -1.5036 -0.0526
  251MOL    H3030530   3.796   7.176   3.665  1.2212 -0.2349 -0.1070
  251MOL    H3130531   3.719   7.452   3.584  1.3152 -0.0723 -0.1837
  251MOL    C3230532   3.561   7.316   3.657  0.6259  0.4541  0.2712
  251MOL    C3330533   3.434   7.363   3.582  0.8522  0.6242  0.0915
  251MOL    F3430534   3.333   7.280   3.605 -0.9091 -0.3722  0.0103
  251MOL    H3530535   3.561   7.207   3.658 -0.0551  0.4498  0.3118
  251MOL    H3630536   3.565   7.349   3.760  0.4296 -0.5097  0.5900
  251MOL    H3730537   3.453   7.347   3.476  0.0934 -2.0513  0.2996
  251MOL    C3830538   3.376   7.497   3.630  0.4125 -0.2446 -0.4519
  251MOL    C3930539   3.471   7.609   3.612 -0.0067 -0.1107  1.2461
  251MOL    F4030540   3.491   7.610   3.482 -0.2972 -0.1694 -0.0885
  251MOL    H4130541   3.281   7.508   3.578  0.4987 -1.7807 -0.9413
  251MOL    H4230542   3.353   7.489   3.736 -1.0691 -1.6904 -0.8783
  251MOL    H4330543   3.566   7.591   3.662  0.9466 -1.1685 -0.8494
  251MOL    C4430544   3.408   7.745   3.652  0.6929 -0.2525  0.3530
  251MOL    C4530545   3.371   7.747   3.805 -0.6593  1.0008  0.8493
  251MOL    F4630546   3.473   7.698   3.875  0.0325 -0.0524 -0.3046
  251MOL    H4730547   3.477   7.830   3.644 -0.3137  0.5473 -0.0644
  251MOL    H4830548   3.322   7.771   3.589  2.5516 -0.1781 -2.2324
  251MOL    H4930549   3.285   7.687   3.833  2.3923 -4.5596 -1.0283
  251MOL    C5030550   3.336   7.884   3.862 -0.1613  0.2636 -0.3544
  251MOL    C5130551   3.216   7.952   3.783 -0.2211  0.0707  0.0117
  251MOL    F5230552   3.100   7.888   3.794  0.5627  0.0414 -0.2839
  251MOL    H5330553   3.313   7.888   3.969 -1.2608 -1.8542 -0.4808
  251MOL    H5430554   3.424   7.948   3.854 -0.5248  0.8764  0.4359
  251MOL    H5530555   3.250   7.950   3.680  1.4690  0.9105  0.5429
  251MOL    C5630556   3.191   0.096   3.833  0.3532  0.3693  0.3452
  251MOL    C5730557   3.078   0.178   3.772  0.2077  0.2236 -0.4058
  251MOL    F5830558   3.071   0.282   3.851  0.7683 -0.7825  0.4138
  251MOL    H5930559   3.153   0.084   3.935  0.1439 -0.8251  0.1401
  251MOL    H6030560   3.286   0.147   3.848  0.6162 -0.3852  1.3353
  251MOL    H6130561   2.981   0.131   3.790  0.9059 -0.5837  1.4252
  251MOL    C6230562   3.106   0.227   3.629 -0.8770  0.5370 -0.4807
  251MOL    C6330563   2.988   0.287   3.558  0.4202  0.0926  0.6378
  251MOL    F6430564   2.886   0.197   3.565 -0.3734  0.1711  0.7424
  251MOL    H6530565   3.193   0.291   3.619  0.5504 -0.6533  3.3863
  251MOL    H6630566   3.127   0.131   3.582  2.3681  1.8878 -1.9416
  251MOL    H6730567   3.006   0.302   3.451 -0.9660 -1.8635  0.1067
  251MOL    C6830568   2.932   0.423   3.608 -0.4005  0.3618  0.2883
  251MOL    C6930569   3.027   0.537   3.590  0.2192  0.2375  0.6205
  251MOL    F7030570   3.020   0.574   3.459  0.1172  0.1800 -0.0628
  251MOL    H7130571   2.841   0.447   3.552 -0.0529  0.8464 -0.0678
  251MOL    H7230572   2.913   0.410   3.714  2.9583 -1.7036  0.7216
  251MOL    H7330573   3.125   0.495   3.611 -0.6993 -0.9685  2.6200
  251MOL    C7430574   3.013   0.665   3.676  0.8636 -0.1732 -0.0040
  251MOL    C7530575   3.072   0.650   3.822  0.3169  0.0866  0.5466
  251MOL    F7630576   3.204   0.619   3.811  0.5073  0.2105 -0.4761
  251MOL    H7730577   3.053   0.745   3.614 -1.2288  1.4078  0.6454
  251MOL    H7830578   2.912   0.692   3.704  1.3996  0.3803  1.4552
  251MOL    H7930579   3.033   0.560   3.870 -0.5709 -0.3865 -1.0032
  251MOL    C8030580   3.051   0.773   3.910  0.1399  0.0671  0.2953
  251MOL    C8130581   3.085   0.770   4.054  0.1583 -0.2434 -0.6427
  251MOL    F8230582   3.052   0.885   4.109  1.3569  0.5287 -0.2428
  251MOL    H8330583   3.095   0.855   3.853  0.4396  0.6372  1.3505
  251MOL    H8430584   2.945   0.799   3.911 -0.4072 -1.9554 -0.6881
  251MOL    H8530585   3.193   0.758   4.065  0.0007 -0.6492  0.4868
  251MOL    C8630586   3.018   0.658   4.142 -0.4052  0.5349 -0.7156
  251MOL    C8730587   3.090   0.629   4.281  0.2759  1.0648  0.1191
  251MOL    F8830588   3.027   0.532   4.351  0.2426  1.0291 -0.5200
  251MOL    H8930589   2.916   0.668   4.179 -0.6787  1.0573 -1.6077
  251MOL    H9030590   3.021   0.567   4.082 -1.1149  0.2127 -0.2710
  251MOL    H9130591   3.086   0.714   4.349 -1.6582  1.3412 -0.3025
  251MOL    C9230592   3.231   0.583   4.267 -0.5372 -0.6712 -0.1364
  251MOL    C9330593   3.315   0.546   4.390 -0.2081 -0.2079 -0.1258
  251MOL    F9430594   3.427   0.486   4.354 -0.3170 -0.0416 -0.2446
  251MOL    H9530595   3.222   0.501   4.196 -0.5600 -0.0872 -0.8105
  251MOL    H9630596   3.293   0.650   4.208 -4.1808 -0.2464 -3.7400
  251MOL    H9730597   3.259   0.477   4.453 -0.4490  0.6929  0.6454
  251MOL    C9830598   3.354   0.672   4.471  0.6653 -0.3825 -0.0749
  251MOL    C9930599   3.419   0.642   4.610 -0.0746  0.0670 -0.5862
  251MOL   F10030600   3.544   0.590   4.596  0.2118 -0.6900  0.2180
  251MOL   H10130601   3.418   0.749   4.427  0.8841 -0.0217  0.8502
  251MOL   H10230602   3.267   0.736   4.480  0.4359 -0.6462 -0.4218
  251MOL   H10330603   3.361   0.564   4.659 -0.1173  0.3016 -0.2584
  251MOL   C10430604   3.419   0.774   4.698  0.2513 -0.0172  0.2739
  251MOL   C10530605   3.491   0.779   4.832 -0.8422 -0.1289 -0.5057
  251MOL   F10630606   3.451   0.681   4.913  0.0180  0.0708  0.2874
  251MOL   H10730607   3.447   0.864   4.644  2.0384 -1.0370 -0.5274
  251MOL   H10830608   3.319   0.803   4.732  0.1404 -1.4833  1.2844
  251MOL   H10930609   3.449   0.865   4.883  0.5929  0.3558 -0.1138
  251MOL   C11030610   3.648   0.781   4.832 -0.2541 -0.4003 -0.3876
  251MOL   C11130611   3.719   0.789   4.961 -0.0553 -0.2278  0.0961
  251MOL   F11230612   3.842   0.780   4.923 -0.3811 -0.0927  0.8367
  251MOL   H11330613   3.695   0.697   4.780  0.3258 -0.3400  0.0359
  251MOL   H11430614   3.677   0.865   4.770  1.0166 -0.8332 -0.3895
  251MOL   H11530615   3.685   0.713   5.032 -2.9625 -0.1029 -1.0880
  251MOL   C11630616   3.697   0.931   5.015 -0.0324 -0.1815 -0.3522
  251MOL   C11730617   3.783   0.965   5.141 -0.3516  0.0177  0.4442
  251MOL   F11830618   3.763   1.087   5.174  0.0692  0.0874 -0.0741
  251MOL   H11930619   3.720   1.009   4.942  0.8267  0.1291  0.2514
  251MOL   H12030620   3.596   0.951   5.050 -0.6220 -0.5764 -1.7706
  251MOL   H12130621   3.889   0.973   5.115 -0.8433  1.7312 -1.1490
  251MOL   H12230622   3.758   0.898   5.223 -4.1909 -0.0655 -0.6828
  252MOL     C130623   0.470   4.188   2.003  0.1124 -0.5124 -0.0472
  252MOL     C230624   0.517   4.255   1.873  0.3768 -0.7787  0.5378
  252MOL     F330625   0.485   4.385   1.878  0.6265  0.2073 -0.0845
  252MOL     H430626   0.552   4.170   2.074  2.5022  1.0662 -2.2915
  252MOL     H530627   0.428   4.090   1.983 -0.9471 -0.1838  0.5414
  252MOL     H630628   0.474   4.206   1.786  1.6533 -1.3751  0.2317
  252MOL     H730629   0.387   4.235   2.055 -0.3520 -1.5445  0.1590
  252MOL     C830630   0.670   4.248   1.855 -0.2682  0.6843 -0.0571
  252MOL     C930631   0.727   4.219   1.720  0.1681  0.2203 -0.0522
  252MOL    F1030632   0.681   4.307   1.627 -0.2099 -0.0926 -0.2523
  252MOL    H1130633   0.724   4.337   1.886 -0.5658  0.7874  0.1696
  252MOL    H1230634   0.710   4.169   1.919 -1.5025  0.4213  0.4088
  252MOL    H1330635   0.695   4.120   1.687 -1.1812 -0.1240  2.2139
  252MOL    C1430636   0.880   4.219   1.712 -0.0764 -0.0265  0.6786
  252MOL    C1530637   0.955   4.113   1.791 -0.5281 -0.0979 -0.4377
  252MOL    F1630638   0.908   3.992   1.759  0.0145 -0.1949  0.6508
  252MOL    H1730639   0.915   4.220   1.608 -1.4781 -1.0222  0.1774
  252MOL    H1830640   0.922   4.309   1.755 -0.9775 -0.4324  2.4495
  252MOL    H1930641   0.943   4.134   1.897 -2.2542 -0.3030 -0.5769
  252MOL    C2030642   1.106   4.101   1.767 -0.8564 -0.3356  0.0907
  252MOL    C2130643   1.181   3.982   1.840 -0.1640  0.5548  0.3697
  252MOL    F2230644   1.307   3.989   1.793 -0.3551 -0.2248 -0.3584
  252MOL    H2330645   1.112   4.086   1.659  0.9587  0.8594  0.0151
  252MOL    H2430646   1.166   4.190   1.786 -0.2887 -0.5160 -0.8477
  252MOL    H2530647   1.156   3.882   1.804 -0.3866  1.0992 -1.0221
  252MOL    C2630648   1.179   3.994   1.996  0.0306 -0.1521  0.6606
  252MOL    C2730649   1.236   3.877   2.076 -0.6582  0.6330 -0.0690
  252MOL    F2830650   1.365   3.876   2.053  0.0254 -0.1314 -0.1436
  252MOL    H2930651   1.225   4.088   2.028  0.6920 -0.5738  0.9681
  252MOL    H3030652   1.075   4.010   2.023  0.1817  4.3815 -1.0964
  252MOL    H3130653   1.188   3.785   2.043  1.2756 -0.5696  0.3587
  252MOL    C3230654   1.221   3.898   2.226  0.0557 -0.5386 -0.3203
  252MOL    C3330655   1.087   3.867   2.289 -0.2522  0.0442 -0.6306
  252MOL    F3430656   1.031   3.769   2.232  0.1207 -0.0693  0.1650
  252MOL    H3530657   1.300   3.836   2.269  0.1265 -1.6476 -1.9632
  252MOL    H3630658   1.250   4.001   2.245  1.2051 -0.4543 -2.3713
  252MOL    H3730659   1.019   3.952   2.284  0.2841  0.5571  0.4695
  252MOL    C3830660   1.094   3.825   2.435 -0.1212  0.1217  0.5037
  252MOL    C3930661   1.184   3.926   2.519  0.0414  1.0293 -0.0293
  252MOL    F4030662   1.160   4.058   2.491 -0.6702  0.1133 -0.2473
  252MOL    H4130663   0.994   3.826   2.479 -1.3649 -2.7763 -2.0941
  252MOL    H4230664   1.128   3.723   2.447  1.4339  0.5144 -0.5503
  252MOL    H4330665   1.290   3.918   2.495 -0.2251 -1.7409 -0.4194
  252MOL    C4430666   1.158   3.895   2.666 -0.3206  0.1331  0.5985
  252MOL    C4530667   1.239   3.977   2.773  0.1839 -0.9694  0.3373
  252MOL    F4630668   1.369   3.972   2.750  0.2552 -0.0786 -0.2514
  252MOL    H4730669   1.050   3.903   2.679 -0.5802  1.0391 -1.8107
  252MOL    H4830670   1.170   3.790   2.689 -0.1060  0.0601  0.1633
  252MOL    H4930671   1.229   3.923   2.867  1.2134  0.7487  1.4592
  252MOL    C5030672   1.192   4.128   2.787 -0.6360 -0.2349  0.0661
  252MOL    C5130673   1.255   4.201   2.908 -0.4161  0.3243  0.5409
  252MOL    F5230674   1.249   4.135   3.017  0.6882  0.0214 -0.0054
  252MOL    H5330675   1.236   4.164   2.694 -2.0245  1.4661  0.0469
  252MOL    H5430676   1.084   4.134   2.774 -0.6484  1.7564  0.9372
  252MOL    H5530677   1.190   4.288   2.921  0.1566  0.9209 -0.5131
  252MOL    C5630678   1.387   4.260   2.875  0.0473  0.4412 -0.1167
  252MOL    C5730679   1.465   4.338   2.991 -0.1564 -0.3362 -0.1054
  252MOL    F5830680   1.593   4.389   2.952  0.4754  0.1078 -0.2130
  252MOL    H5930681   1.446   4.174   2.843  0.0565 -0.2030  1.5826
  252MOL    H6030682   1.388   4.323   2.786  0.6180  0.6590  0.0395
  252MOL    H6130683   1.483   4.265   3.070  0.3325  0.3339  0.4102
  252MOL    C6230684   1.385   4.461   3.037 -0.3916  0.1619  0.4277
  252MOL    C6330685   1.435   4.503   3.176 -0.1137  0.0155  0.8503
  252MOL    F6430686   1.556   4.541   3.166  0.0802 -0.3006 -0.9426
  252MOL    H6530687   1.407   4.543   2.968  0.9371  0.6768  1.4423
  252MOL    H6630688   1.279   4.439   3.049 -0.1290 -0.8112  1.0525
  252MOL    H6730689   1.429   4.409   3.231 -0.9459 -0.0989  0.5812
  252MOL    C6830690   1.351   4.615   3.242  0.1919 -0.0753  0.2832
  252MOL    C6930691   1.365   4.591   3.396  0.0284 -0.0033  0.0883
  252MOL    F7030692   1.489   4.616   3.448  0.8766  0.3875 -0.0815
  252MOL    H7130693   1.386   4.714   3.213  1.1594 -0.7694 -0.9185
  252MOL    H7230694   1.244   4.605   3.223  0.5454 -1.5168 -1.0536
  252MOL    H7330695   1.355   4.482   3.405  0.4205  0.0168  0.8286
  252MOL    C7430696   1.260   4.668   3.485 -0.3309 -0.5094 -0.0841
  252MOL    C7530697   1.251   4.601   3.623 -0.5425  0.1043  0.8784
  252MOL    F7630698   1.202   4.483   3.617 -0.2175 -0.4844  0.2601
  252MOL    H7730699   1.283   4.773   3.506 -1.9618 -0.2809  0.6229
  252MOL    H7830700   1.162   4.660   3.438 -0.1681 -0.7081 -0.3876
  252MOL    H7930701   1.181   4.665   3.677 -0.9142 -0.6471  1.2835
  252MOL    C8030702   1.373   4.589   3.709 -0.4115 -0.5640 -0.4254
  252MOL    C8130703   1.439   4.722   3.745 -0.1611  0.1777 -0.3900
  252MOL    F8230704   1.354   4.823   3.717  0.2251 -0.9736 -0.3342
  252MOL    H8330705   1.345   4.533   3.799  1.4962 -0.1189  0.4772
  252MOL    H8430706   1.443   4.519   3.664  0.9666 -1.4165  2.8560
  252MOL    H8530707   1.533   4.737   3.690 -0.7078 -0.9650 -1.6651
  252MOL    C8630708   1.462   4.746   3.899  0.3819 -0.9398 -0.0333
  252MOL    C8730709   1.563   4.868   3.923  0.2785 -0.4172 -0.0212
  252MOL    F8830710   1.500   4.983   3.888 -0.5364  0.2263  0.6768
  252MOL    H8930711   1.367   4.767   3.948  0.3984 -0.8216 -0.0507
  252MOL    H9030712   1.508   4.662   3.950  0.8880 -0.1017  0.9133
  252MOL    H9130713   1.654   4.850   3.866  0.4094  0.4594 -0.0962
  252MOL    C9230714   1.616   4.891   4.073  0.3177 -0.6348 -0.5425
  252MOL    C9330715   1.518   4.927   4.177  1.0909 -0.3823 -1.1717
  252MOL    F9430716   1.424   4.833   4.179 -0.4228 -0.7578 -0.6096
  252MOL    H9530717   1.668   4.801   4.104 -0.5604 -0.7364  0.6442
  252MOL    H9630718   1.692   4.969   4.069  0.0226 -0.3251 -0.0804
  252MOL    H9730719   1.482   5.027   4.153 -0.6040 -0.2984  1.5005
  252MOL    C9830720   1.570   4.930   4.326 -0.5614  0.6238 -0.1162
  252MOL    C9930721   1.495   5.027   4.418  0.3093 -0.1729 -0.0257
  252MOL   F10030722   1.498   5.147   4.355 -0.5169  0.2917  0.0146
  252MOL   H10130723   1.576   4.824   4.351  0.4217  1.2387  2.4895
  252MOL   H10230724   1.671   4.972   4.326 -0.1515 -0.3161 -2.2757
  252MOL   H10330725   1.549   5.038   4.512  0.2900 -1.4235  0.1352
  252MOL   C10430726   1.344   5.000   4.440  0.1774 -0.0676  0.5650
  252MOL   C10530727   1.322   4.875   4.538  0.6098 -0.0893  0.6057
  252MOL   F10630728   1.373   4.902   4.659  0.4683  0.2223 -0.5728
  252MOL   H10730729   1.298   5.090   4.482 -0.0788 -0.0373  0.2259
  252MOL   H10830730   1.285   4.993   4.348 -0.1429 -0.9793  0.8406
  252MOL   H10930731   1.382   4.797   4.492  0.8715  0.0617  0.6901
  252MOL   C11030732   1.178   4.843   4.559  0.4905 -0.2144 -0.0919
  252MOL   C11130733   1.128   4.771   4.431  0.1905 -0.1331  0.5629
  252MOL   F11230734   1.189   4.655   4.427  0.0337  0.2457 -0.1399
  252MOL   H11330735   1.161   4.776   4.643  1.1052 -1.0952 -0.6580
  252MOL   H11430736   1.136   4.941   4.582  1.4485 -0.0699  1.1077
  252MOL   H11530737   1.164   4.817   4.338  1.7568 -1.4958  0.4880
  252MOL   C11630738   0.981   4.735   4.438 -0.1297 -0.4297 -0.1579
  252MOL   C11730739   0.934   4.660   4.569 -0.6290 -0.0300  0.0358
  252MOL   F11830740   0.825   4.593   4.550  0.1631  0.7436  0.5455
  252MOL   H11930741   0.914   4.813   4.402 -0.7486 -0.6683  0.4619
  252MOL   H12030742   0.979   4.654   4.365 -0.0161 -0.4081 -0.1861
  252MOL   H12130743   0.912   4.720   4.657 -1.8257 -0.5274  0.0909
  252MOL   H12230744   1.014   4.595   4.608 -0.8664 -0.8550 -0.8481
  253MOL     C130745   3.787   7.561   6.455  0.1254  0.1960 -0.0739
  253MOL     C230746   3.876   7.500   6.350 -0.4911  0.0407  0.1182
  253MOL     F330747   3.813   7.398   6.302  0.0508 -0.1207 -0.1221
  253MOL     H430748   3.838   7.629   6.524  2.5263 -1.1760 -0.4296
  253MOL     H530749   3.758   7.476   6.517  1.4862  0.0934  0.4542
  253MOL     H630750   3.974   7.482   6.395  0.7467  1.9075 -1.7179
  253MOL     H730751   3.695   7.611   6.424 -0.8758 -2.2537 -1.1567
  253MOL     C830752   3.908   7.600   6.237 -0.4080 -0.4735 -0.1233
  253MOL     C930753   3.971   7.736   6.289  0.0990 -0.5245  0.2050
  253MOL    F1030754   4.089   7.716   6.356  0.0300  0.3861  0.2362
  253MOL    H1130755   3.965   7.547   6.160  0.2179  0.2026 -0.1382
  253MOL    H1230756   3.817   7.619   6.180 -0.4515  0.0834  0.1198
  253MOL    H1330757   3.904   7.786   6.359  0.1488  0.3300 -0.3582
  253MOL    C1430758   4.000   7.827   6.161  0.3532 -0.3592 -0.3530
  253MOL    C1530759   4.046   7.975   6.186  0.2430 -0.5103 -0.8500
  253MOL    F1630760   4.137   7.972   6.276 -0.9477 -0.1319  0.4199
  253MOL    H1730761   4.078   7.779   6.102  1.3994  0.9428 -0.0564
  253MOL    H1830762   3.906   7.817   6.106  0.8833  0.5317 -1.4580
  253MOL    H1930763   3.958   0.026   6.220 -1.2042 -3.0410 -0.4121
  253MOL    C2030764   4.086   0.057   6.068 -0.0101 -0.1037  0.2340
  253MOL    C2130765   4.145   0.200   6.109  0.8002  0.7199 -0.3261
  253MOL    F2230766   4.225   0.251   6.016  0.2510 -0.1044 -0.2811
  253MOL    H2330767   4.153   0.002   6.003 -2.0139 -3.1579  0.6495
  253MOL    H2430768   4.010   0.083   5.993  1.3133 -1.0499 -1.4718
  253MOL    H2530769   4.207   0.192   6.198 -1.1416  0.0140  1.0051
  253MOL    C2630770   4.041   0.316   6.139 -0.1855 -0.5873  0.8583
  253MOL    C2730771   4.109   0.426   6.227 -0.1860  0.0749 -0.5395
  253MOL    F2830772   4.038   0.538   6.207  0.0499  0.4729 -0.8747
  253MOL    H2930773   4.000   0.360   6.048 -0.0909 -0.1846  1.0071
  253MOL    H3030774   3.953   0.281   6.192  0.6397 -0.3294  2.4373
  253MOL    H3130775   4.213   0.442   6.199  0.8061 -2.4453  1.5185
  253MOL    C3230776   4.089   0.399   6.379 -0.2247 -0.0763 -0.1160
  253MOL    C3330777   4.191   0.461   6.478  0.6074 -0.1461  0.6602
  253MOL    F3430778   4.309   0.432   6.429 -0.0607 -0.3123  0.3797
  253MOL    H3530779   3.985   0.413   6.410  0.2475 -1.2778  2.1101
  253MOL    H3630780   4.091   0.291   6.397  0.0220  0.1576  1.3225
  253MOL    H3730781   4.187   0.403   6.570 -0.1700 -0.4092  0.4638
  253MOL    C3830782   4.184   0.612   6.495 -0.0211 -0.0876  1.2071
  253MOL    C3930783   4.066   0.662   6.574  0.5167  0.4652 -0.0440
  253MOL    F4030784   4.069   0.605   6.693 -0.6359  0.2217 -0.2151
  253MOL    H4130785   4.273   0.646   6.549  0.1528 -1.8853  2.0878
  253MOL    H4230786   4.178   0.668   6.402  1.6288 -1.2258  0.4018
  253MOL    H4330787   3.982   0.626   6.515  1.5081 -1.1422 -0.4888
  253MOL    C4430788   4.063   0.819   6.610  0.3433  1.1427  1.1320
  253MOL    C4530789   4.192   0.881   6.674 -0.7736 -0.1943  0.4766
  253MOL    F4630790   4.279   0.894   6.578  0.2457  0.2801  0.7290
  253MOL    H4730791   4.045   0.872   6.516 -0.5838 -0.6658  0.2595
  253MOL    H4830792   3.974   0.824   6.673  0.2786  1.7672  0.9957
  253MOL    H4930793   4.243   0.823   6.751  0.8197 -0.3744 -0.7015
  253MOL    C5030794   4.153   1.011   6.733  0.0542 -0.1442 -0.0329
  253MOL    C5130795   4.262   1.105   6.791 -0.0150  0.8011  0.5002
  253MOL    F5230796   4.217   1.230   6.811 -0.0438 -0.3878 -0.2638
  253MOL    H5330797   4.120   1.072   6.649  0.4191  1.7359  1.1386
  253MOL    H5430798   4.069   1.007   6.803 -0.9723  0.6441 -1.1792
  253MOL    H5530799   4.335   1.115   6.710  0.6806  1.0444  1.1551
  253MOL    C5630800   4.321   1.062   6.926  0.9658  0.1342 -0.1171
  253MOL    C5730801   4.405   1.164   7.002  0.0326  0.5695  0.4458
  253MOL    F5830802   4.458   1.096   7.102 -0.0274  0.5734  0.0340
  253MOL    H5930803   4.243   1.028   6.994 -0.2365  1.5786 -0.7410
  253MOL    H6030804   4.383   0.974   6.910  1.4740  0.2047  1.3815
  253MOL    H6130805   4.357   1.246   7.054  0.5534  0.9591  0.3125
  253MOL    C6230806   4.523   1.240   6.932 -0.1050 -0.4973  0.1915
  253MOL    C6330807   4.635   1.150   6.871  0.9678  0.2749  0.9565
  253MOL    F6430808   4.578   1.067   6.777  0.3958 -0.1032 -0.4280
  253MOL    H6530809   4.487   1.298   6.847  2.6914  1.0686  0.0407
  253MOL    H6630810   4.565   1.320   6.994 -0.5644  0.5111 -0.7781
  253MOL    H6730811   4.673   1.085   6.950 -3.0983 -0.4079  2.5140
  253MOL    C6830812   4.737   1.230   6.785  0.2106 -0.9164 -0.2946
  253MOL    C6930813   4.864   1.253   6.866 -0.2248 -1.3264 -0.6210
  253MOL    F7030814   4.832   1.355   6.950  0.7002 -0.2541  0.2565
  253MOL    H7130815   4.767   1.171   6.698 -1.1935  1.1198 -2.2069
  253MOL    H7230816   4.703   1.323   6.740  1.9378 -0.8802 -1.5941
  253MOL    H7330817   4.938   1.304   6.804  0.8251 -0.0602  1.5840
  253MOL    C7430818   4.931   1.138   6.942 -0.8207 -0.4610 -0.2127
  253MOL    C7530819   5.077   1.173   6.984  0.3198 -0.5660 -0.2976
  253MOL    F7630820   5.080   1.290   7.050 -0.4103  0.0579 -0.2257
  253MOL    H7730821   4.875   1.106   7.030 -1.4072 -0.4562 -0.5837
  253MOL    H7830822   4.938   1.043   6.889 -0.9292 -2.0049  2.4069
  253MOL    H7930823   5.130   1.196   6.891  0.2307 -0.4166 -0.3106
  253MOL    C8030824   5.149   1.064   7.064 -0.4548  0.1746  0.7121
  253MOL    C8130825   5.174   0.936   6.992 -0.8310  0.3504  0.4613
  253MOL    F8230826   5.230   0.961   6.878  0.6261  0.1770 -0.1116
  253MOL    H8330827   5.252   1.093   7.087  0.2223 -1.2410 -0.4032
  253MOL    H8430828   5.083   1.056   7.150 -1.0237  0.0183  0.2619
  253MOL    H8530829   5.083   0.884   6.963 -2.1217  2.4980  0.5696
  253MOL    C8630830   5.272   0.832   7.066  0.4615 -0.2851 -0.7944
  253MOL    C8730831   5.306   0.697   7.001  0.1880  0.4701  0.4451
  253MOL    F8830832   5.379   0.624   7.076 -0.1007 -0.0455  0.5384
  253MOL    H8930833   5.364   0.891   7.078  0.1666  0.1893 -0.8296
  253MOL    H9030834   5.227   0.810   7.163  1.7237  0.5496  0.0003
  253MOL    H9130835   5.367   0.726   6.915  0.5967 -1.7469 -0.0492
  253MOL    C9230836   5.193   0.607   6.946  0.4906 -0.1879  0.1852
  253MOL    C9330837   5.107   0.550   7.061 -0.2490 -0.3372  0.2337
  253MOL    F9430838   5.023   0.633   7.125  0.1163  0.3146 -0.3646
  253MOL    H9530839   5.127   0.658   6.876  0.8082  0.9370  0.6904
  253MOL    H9630840   5.240   0.522   6.896  0.4963 -1.1184  1.7207
  253MOL    H9730841   5.182   0.519   7.134 -0.6034 -1.0251  0.3106
  253MOL    C9830842   5.013   0.443   7.010  0.1953 -0.1077  0.7032
  253MOL    C9930843   4.959   0.353   7.123 -0.3970 -0.1548 -0.4135
  253MOL   F10030844   4.876   0.419   7.203  0.6462 -0.3770  0.4813
  253MOL   H10130845   4.937   0.492   6.949  0.5899 -0.1670  0.1656
  253MOL   H10230846   5.075   0.381   6.946  0.5209  1.2405 -0.3027
  253MOL   H10330847   5.041   0.304   7.175  1.6655  1.3075 -2.1799
  253MOL   C10430848   4.885   0.235   7.062  0.1355  0.0361  0.3199
  253MOL   C10530849   4.824   0.136   7.159  0.2360 -0.3336  0.5009
  253MOL   F10630850   4.726   0.062   7.102 -0.1274  0.0206 -0.3578
  253MOL   H10730851   4.803   0.277   7.003 -0.2379 -0.8272  0.2146
  253MOL   H10830852   4.946   0.184   6.988  2.0540  2.6044  0.0626
  253MOL   H10930853   4.769   0.192   7.235  1.0491 -1.2608  1.7730
  253MOL   C11030854   4.929   0.054   7.234  0.7499 -0.3729 -0.7804
  253MOL   C11130855   4.877   7.959   7.339 -0.0590  0.0479 -0.1047
  253MOL   F11230856   4.781   7.880   7.293  0.3196  0.0330  0.1841
  253MOL   H11330857   4.990   0.006   7.157  0.0905 -1.9974 -0.3135
  253MOL   H11430858   4.993   0.127   7.283 -0.9768  1.6533 -1.4424
  253MOL   H11530859   4.828   0.015   7.416  0.8697  1.7286 -0.7608
  253MOL   C11630860   4.992   7.890   7.415 -0.6603 -0.4600 -0.0692
  253MOL   C11730861   4.948   7.809   7.539  0.5091  0.2825 -0.1284
  253MOL   F11830862   5.052   7.772   7.610 -0.9800 -0.1499  0.2118
  253MOL   H11930863   5.044   7.822   7.348  0.9224 -0.4087  1.0806
  253MOL   H12030864   5.059   7.962   7.463 -0.0785 -0.6366 -0.6155
  253MOL   H12130865   4.890   7.721   7.511  1.6099 -0.4658 -0.1285
  253MOL   H12230866   4.891   7.881   7.598  1.5890  0.5799  0.5746
  254MOL     C130867   4.290   2.125   6.913  0.0527 -0.0163  0.2007
  254MOL     C230868   4.400   2.221   6.955  0.0110 -0.1326  0.8332
  254MOL     F330869   4.483   2.239   6.857  0.3289 -0.0278 -0.3218
  254MOL     H430870   4.196   2.122   6.969 -2.2112  0.7086 -3.4130
  254MOL     H530871   4.324   2.022   6.904  1.1524  0.4595 -1.2021
  254MOL     H630872   4.457   2.160   7.026 -2.6367 -0.3827  2.8252
  254MOL     H730873   4.254   2.144   6.812  0.4412  0.2639  0.1128
  254MOL     C830874   4.344   2.351   7.003 -0.4672 -0.9777  0.8529
  254MOL     C930875   4.456   2.443   7.057 -0.2227 -0.4514  0.2560
  254MOL    F1030876   4.529   2.497   6.957  0.4697 -0.7637  0.1693
  254MOL    H1130877   4.282   2.403   6.930  1.5303 -2.4559 -1.9812
  254MOL    H1230878   4.271   2.325   7.079  0.3510 -3.0829  0.9369
  254MOL    H1330879   4.529   2.378   7.106  1.8512  1.3630 -0.3422
  254MOL    C1430880   4.401   2.548   7.150  0.0271  0.2866 -0.6672
  254MOL    C1530881   4.273   2.618   7.098 -0.5473 -0.9242 -0.8724
  254MOL    F1630882   4.163   2.547   7.121 -0.2424 -0.1798  0.1355
  254MOL    H1730883   4.381   2.506   7.248 -0.1234  2.2625  0.1686
  254MOL    H1830884   4.482   2.619   7.171 -0.0718 -0.0108  0.7541
  254MOL    H1930885   4.291   2.643   6.993  2.0688  0.4430 -0.1688
  254MOL    C2030886   4.259   2.755   7.158 -0.8630 -0.1896 -0.0251
  254MOL    C2130887   4.154   2.848   7.092  0.4050  0.4140  0.4131
  254MOL    F2230888   4.031   2.784   7.105 -0.6210 -0.2592 -0.0217
  254MOL    H2330889   4.228   2.749   7.263 -2.0863  3.0052 -0.1424
  254MOL    H2430890   4.356   2.804   7.149 -1.1046  0.6902  1.8099
  254MOL    H2530891   4.181   2.851   6.987 -1.0766  0.6763  0.0358
  254MOL    C2630892   4.158   2.996   7.146 -0.0844  0.4943 -0.1125
  254MOL    C2730893   4.061   3.093   7.078  0.4933  0.2220  0.4468
  254MOL    F2830894   4.051   3.198   7.166  0.1388 -0.1882 -0.1208
  254MOL    H2930895   4.138   3.004   7.252 -0.0585  0.7447 -0.1274
  254MOL    H3030896   4.257   3.040   7.134 -0.9601  2.9694  1.4235
  254MOL    H3130897   3.961   3.051   7.076  0.5298  0.0572  1.6173
  254MOL    C3230898   4.086   3.150   6.944 -0.2125  0.6159 -0.2983
  254MOL    C3330899   3.985   3.256   6.889  1.3343 -0.0016 -0.0843
  254MOL    F3430900   3.985   3.376   6.950  0.1992 -0.2125 -0.2525
  254MOL    H3530901   4.185   3.196   6.941 -0.4930  1.6336  3.6707
  254MOL    H3630902   4.094   3.060   6.882  0.9659  1.7117 -1.7801
  254MOL    H3730903   3.882   3.223   6.899  0.7383  1.8817  0.2268
  254MOL    C3830904   4.013   3.284   6.736  0.3635 -0.1334  0.4133
  254MOL    C3930905   3.943   3.400   6.671  0.2089 -0.2336 -0.4034
  254MOL    F4030906   3.991   3.403   6.547 -0.8224 -0.2685 -0.3754
  254MOL    H4130907   4.120   3.283   6.718  0.0958  0.0964 -1.2493
  254MOL    H4230908   3.980   3.192   6.688  0.5297 -0.1354  0.3035
  254MOL    H4330909   3.967   3.496   6.717 -0.8977  0.8475 -2.0330
  254MOL    C4430910   3.785   3.385   6.668  0.5303 -0.2857  0.4639
  254MOL    C4530911   3.714   3.497   6.584 -0.7563  0.4726 -0.7435
  254MOL    F4630912   3.585   3.471   6.558 -0.3482  0.1090 -0.0101
  254MOL    H4730913   3.749   3.290   6.627 -2.0093  0.1960  1.4939
  254MOL    H4830914   3.740   3.389   6.767  1.3843  1.6771  0.7900
  254MOL    H4930915   3.769   3.491   6.489 -1.3772 -2.1293 -0.9654
  254MOL    C5030916   3.727   3.638   6.637 -0.5402 -0.8216  0.1138
  254MOL    C5130917   3.724   3.667   6.793 -0.5799 -0.2476  0.3309
  254MOL    F5230918   3.838   3.629   6.858  0.0770  0.1664 -0.0918
  254MOL    H5330919   3.819   3.674   6.590 -2.1092  1.7267 -1.1339
  254MOL    H5430920   3.651   3.695   6.583 -0.7747 -1.3449 -0.1122
  254MOL    H5530921   3.652   3.605   6.848 -0.5623  1.1793  1.9970
  254MOL    C5630922   3.695   3.817   6.815  0.4743  0.4093  0.0427
  254MOL    C5730923   3.823   3.902   6.796  0.0480  0.2375  0.3124
  254MOL    F5830924   3.856   3.895   6.665 -0.3012 -0.1243  0.2459
  254MOL    H5930925   3.625   3.862   6.744  1.2875 -0.5261 -1.3837
  254MOL    H6030926   3.651   3.835   6.913 -2.1587 -1.4426 -0.7482
  254MOL    H6130927   3.905   3.846   6.840  0.1376 -0.0739 -0.2460
  254MOL    C6230928   3.821   4.055   6.833  0.2079  0.9445  0.2427
  254MOL    C6330929   3.945   4.131   6.778  0.2636 -0.5366  0.5358
  254MOL    F6430930   4.045   4.061   6.818  0.5353  0.5997 -0.5262
  254MOL    H6530931   3.734   4.108   6.792 -0.2099 -0.9692 -1.4182
  254MOL    H6630932   3.810   4.054   6.942  1.5226 -0.1306  0.3733
  254MOL    H6730933   3.952   4.225   6.833  0.1001 -2.0001  3.0867
  254MOL    C6830934   3.948   4.164   6.625  0.7623  0.5479  0.3711
  254MOL    C6930935   4.032   4.284   6.586 -0.6627  0.8341  0.1770
  254MOL    F7030936   3.988   4.398   6.647  0.5747 -0.8355  0.0242
  254MOL    H7130937   3.967   4.082   6.556  0.0579  0.8047 -0.1330
  254MOL    H7230938   3.844   4.188   6.602  0.5853  0.1205  0.7163
  254MOL    H7330939   4.012   4.307   6.481 -2.9723  1.8204  0.8075
  254MOL    C7430940   4.177   4.263   6.620 -0.4793  0.4473 -0.7689
  254MOL    C7530941   4.273   4.342   6.519  0.1590  0.7023  0.0468
  254MOL    F7630942   4.255   4.289   6.394 -0.8551 -0.1665  0.1364
  254MOL    H7730943   4.194   4.284   6.725  0.8949  1.6087 -1.2072
  254MOL    H7830944   4.202   4.158   6.604 -2.0845 -0.4240  2.1147
  254MOL    H7930945   4.377   4.314   6.540 -0.1409 -0.9694 -0.5934
  254MOL    C8030946   4.249   4.498   6.513 -0.0946  1.0052 -0.4145
  254MOL    C8130947   4.253   4.566   6.651  0.5897  0.4374  0.1638
  254MOL    F8230948   4.377   4.554   6.695 -0.1335 -0.2023  0.3750
  254MOL    H8330949   4.324   4.547   6.451  0.8157  0.7188  0.4523
  254MOL    H8430950   4.149   4.525   6.478 -0.2617  1.9942  0.7730
  254MOL    H8530951   4.185   4.526   6.727 -1.9712  2.5482 -0.9113
  254MOL    C8630952   4.238   4.719   6.647 -0.1057  0.4502  0.4216
  254MOL    C8730953   4.092   4.759   6.641  0.0974  0.1524 -0.0151
  254MOL    F8830954   4.028   4.713   6.745  0.1598 -0.2143 -0.2749
  254MOL    H8930955   4.279   4.760   6.739  0.0464 -0.0317  0.5716
  254MOL    H9030956   4.300   4.759   6.567  2.8765 -0.7938  2.0415
  254MOL    H9130957   4.040   4.720   6.554 -0.8914  1.4446 -0.0224
  254MOL    C9230958   4.083   4.911   6.643  0.5211 -0.7442  0.4794
  254MOL    C9330959   4.113   4.973   6.500 -0.0859 -0.5006 -0.2290
  254MOL    F9430960   4.039   4.919   6.402 -0.2715 -0.2795  0.0297
  254MOL    H9530961   3.985   4.939   6.682  0.5879  1.1388 -0.6761
  254MOL    H9630962   4.153   4.953   6.715 -0.3620 -0.2939  1.0824
  254MOL    H9730963   4.215   4.949   6.471  0.0586 -2.1530  1.5352
  254MOL    C9830964   4.103   5.127   6.501 -0.1377 -0.3422  0.6175
  254MOL    C9930965   4.158   5.206   6.383  0.5568  0.4691 -0.1757
  254MOL   F10030966   4.117   5.333   6.390 -0.3279 -0.4119 -0.3920
  254MOL   H10130967   3.996   5.148   6.508 -0.1763 -0.2175 -0.2154
  254MOL   H10230968   4.154   5.169   6.587  1.1890  1.2475 -0.8953
  254MOL   H10330969   4.130   5.163   6.287  1.6241  1.1677 -0.8205
  254MOL   C10430970   4.311   5.199   6.378  0.6811  0.0417  0.0013
  254MOL   C10530971   4.367   5.257   6.247  0.4177  0.8667 -0.4085
  254MOL   F10630972   4.340   5.384   6.218  0.5577 -0.5853  0.2503
  254MOL   H10730973   4.362   5.248   6.461  1.6900  0.1973 -0.6859
  254MOL   H10830974   4.349   5.097   6.389  0.8625  0.2872  1.8085
  254MOL   H10930975   4.321   5.200   6.165  0.5352  0.2280 -0.0364
  254MOL   C11030976   4.515   5.241   6.232  0.6799  0.0851  0.4848
  254MOL   C11130977   4.598   5.327   6.326  0.0286 -0.6582 -0.2524
  254MOL   F11230978   4.574   5.292   6.449 -0.2827 -0.4206  0.4596
  254MOL   H11330979   4.530   5.133   6.235  0.6913  0.1149  2.9519
  254MOL   H11430980   4.547   5.263   6.130 -0.3454  3.4921  0.8144
  254MOL   H11530981   4.559   5.428   6.328 -0.4865 -0.8066 -1.7757
  254MOL   C11630982   4.749   5.326   6.295  0.3662 -0.7457 -0.5750
  254MOL   C11730983   4.817   5.199   6.325 -0.2883 -0.2290  0.0590
  254MOL   F11830984   4.778   5.105   6.237 -0.0092  0.4002  0.0574
  254MOL   H11930985   4.768   5.368   6.197  1.4905  1.7369  0.6517
  254MOL   H12030986   4.797   5.404   6.355 -1.8797 -1.8472  2.8243
  254MOL   H12130987   4.784   5.166   6.424 -1.8627 -0.3259 -0.4847
  254MOL   H12230988   4.926   5.203   6.334 -0.3385 -0.6258  0.9159
  255MOL     C130989   2.873   2.421   1.666 -0.1547  0.4272  0.3819
  255MOL     C230990   2.733   2.369   1.705 -1.1484  0.9713  0.8461
  255MOL     F330991   2.746   2.249   1.765  0.4756  0.2952  0.7236
  255MOL     H430992   2.917   2.391   1.571 -1.1899  0.0764  0.0094
  255MOL     H530993   2.936   2.370   1.739 -3.5435 -2.1246  1.6412
  255MOL     H630994   2.690   2.346   1.607  0.5236 -0.6509  0.4566
  255MOL     H730995   2.893   2.528   1.671 -0.4517  0.6176 -2.0223
  255MOL     C830996   2.655   2.452   1.814  0.4450 -0.6156  0.2635
  255MOL     C930997   2.510   2.424   1.835 -0.1651  0.2755 -0.3889
  255MOL    F1030998   2.474   2.479   1.949  0.1107  0.2635  0.5390
  255MOL    H1130999   2.716   2.444   1.904  1.9599 -2.5122 -0.8958
  255MOL    H1231000   2.666   2.559   1.794 -1.7409 -0.3104  0.5748
  255MOL    H1331001   2.507   2.317   1.858 -0.1945  0.8007  2.2531
  255MOL    C1431002   2.417   2.466   1.726  0.1022  0.1673  0.1914
  255MOL    C1531003   2.272   2.428   1.749  0.2403 -0.2852  0.5955
  255MOL    F1631004   2.198   2.491   1.659  0.2902 -0.6674  0.0086
  255MOL    H1731005   2.409   2.575   1.732 -2.2258  0.0015  0.9198
  255MOL    H1831006   2.451   2.437   1.627  0.3820 -0.0120  0.3427
  255MOL    H1931007   2.239   2.458   1.849  0.4666 -0.7435  0.8108
  255MOL    C2031008   2.252   2.275   1.718  0.3707  0.2008  0.2630
  255MOL    C2131009   2.112   2.220   1.739 -0.3218  0.4329 -0.0619
  255MOL    F2231010   2.031   2.288   1.659  0.0283  0.4835 -0.5087
  255MOL    H2331011   2.293   2.249   1.620 -1.9938  0.6534 -0.9064
  255MOL    H2431012   2.326   2.219   1.774  0.0108  0.0707  0.6122
  255MOL    H2531013   2.079   2.255   1.838 -2.0073  1.6397 -1.0125
  255MOL    C2631014   2.107   2.065   1.707 -0.6128 -0.6394  0.0056
  255MOL    C2731015   1.986   1.996   1.778  0.2629  0.4930  0.9192
  255MOL    F2831016   1.990   2.036   1.897  0.2159 -0.1046 -0.0014
  255MOL    H2931017   2.093   2.055   1.599 -1.5381 -0.1970  0.0861
  255MOL    H3031018   2.205   2.022   1.726 -0.6236 -0.5564  0.2440
  255MOL    H3131019   1.990   1.887   1.787  1.6079  0.5285  0.9153
  255MOL    C3231020   1.847   2.054   1.728 -0.5496 -0.3653  0.2110
  255MOL    C3331021   1.809   1.994   1.592 -0.0598 -0.5578 -0.4617
  255MOL    F3431022   1.802   1.864   1.601 -0.0851 -0.0617 -0.1654
  255MOL    H3531023   1.764   2.041   1.798 -0.6745  1.8907  0.5004
  255MOL    H3631024   1.846   2.162   1.721  0.1858 -0.4687 -2.0119
  255MOL    H3731025   1.887   2.028   1.524  0.1075  0.5814  0.2856
  255MOL    C3831026   1.668   2.027   1.533 -0.0097 -0.0907 -0.4958
  255MOL    C3931027   1.659   2.174   1.480  0.0685  0.7798  0.1588
  255MOL    F4031028   1.726   2.180   1.367 -0.5819  0.4351  0.5295
  255MOL    H4131029   1.644   1.957   1.453 -2.5601  0.2006 -0.0305
  255MOL    H4231030   1.598   2.006   1.614 -1.7019 -2.9628 -2.6353
  255MOL    H4331031   1.712   2.235   1.553 -1.2593 -0.1325  1.9454
  255MOL    C4431032   1.515   2.234   1.459  0.0727 -0.4715 -0.5446
  255MOL    C4531033   1.444   2.165   1.339 -0.0404 -0.3444 -0.8989
  255MOL    F4631034   1.425   2.034   1.346  0.0372 -0.3997  0.0659
  255MOL    H4731035   1.461   2.200   1.547  0.9527  0.8582  0.5376
  255MOL    H4831036   1.512   2.343   1.462  1.3471 -0.4487  3.4172
  255MOL    H4931037   1.508   2.181   1.253 -1.4307  1.3552 -1.6451
  255MOL    C5031038   1.313   2.245   1.314  0.0428 -0.2266  0.5901
  255MOL    C5131039   1.207   2.240   1.423 -0.2069 -0.3949  0.0058
  255MOL    F5231040   1.254   2.312   1.526  0.9018 -0.3896  0.4169
  255MOL    H5331041   1.340   2.348   1.295  1.1931 -0.6938 -0.3752
  255MOL    H5431042   1.262   2.198   1.230  2.1014  1.7922 -1.8389
  255MOL    H5531043   1.194   2.142   1.468  0.5629 -0.3914  0.2421
  255MOL    C5631044   1.070   2.303   1.398  0.6562  0.2914 -0.5022
  255MOL    C5731045   1.078   2.444   1.343  0.1339  0.2780 -0.2301
  255MOL    F5831046   1.117   2.430   1.217 -0.3470 -0.6043  0.0009
  255MOL    H5931047   0.996   2.239   1.352 -0.4684  0.9047  0.4378
  255MOL    H6031048   1.020   2.300   1.494  1.6195 -0.9601 -0.0280
  255MOL    H6131049   1.153   2.509   1.389 -1.6504  2.1986  0.0177
  255MOL    C6231050   0.933   2.503   1.343 -0.6045  0.1435 -0.2784
  255MOL    C6331051   0.933   2.654   1.379 -0.3015  0.3548 -0.4066
  255MOL    F6431052   0.994   2.698   1.268 -0.5770  0.3776  0.4934
  255MOL    H6531053   0.866   2.473   1.262  0.0980  0.9464 -1.1670
  255MOL    H6631054   0.874   2.454   1.421  1.0471 -1.0205  0.2743
  255MOL    H6731055   0.999   2.663   1.465  0.0573 -2.2209 -0.3617
  255MOL    C6831056   0.791   2.724   1.381 -0.4248  0.3229  0.5897
  255MOL    C6931057   0.698   2.664   1.483  0.4454  0.3063  0.8967
  255MOL    F7031058   0.755   2.682   1.603 -0.5636  0.6423  0.3153
  255MOL    H7131059   0.810   2.829   1.407  1.1745  0.3928 -0.7823
  255MOL    H7231060   0.736   2.719   1.288 -0.3815  0.5784  0.5478
  255MOL    H7331061   0.677   2.557   1.471 -0.7824  0.8009 -1.5939
  255MOL    C7431062   0.563   2.739   1.489  0.3031 -0.1590  0.5453
  255MOL    C7531063   0.473   2.718   1.367 -0.2371  0.1582  0.2588
  255MOL    F7631064   0.426   2.593   1.359 -0.0448  0.5858  0.2485
  255MOL    H7731065   0.513   2.705   1.579 -0.0236  2.0942  1.2375
  255MOL    H7831066   0.590   2.844   1.494  0.5906 -0.0672 -1.9322
  255MOL    H7931067   0.510   2.743   1.267  0.2682  0.4247  0.5143
  255MOL    C8031068   0.353   2.806   1.384 -0.0843  0.6036 -0.0266
  255MOL    C8131069   0.271   2.816   1.260 -0.5279 -0.2536  0.2671
  255MOL    F8231070   0.341   2.855   1.151  0.4916 -0.2723 -0.3801
  255MOL    H8331071   0.297   2.772   1.472  0.6708 -0.6625 -0.0106
  255MOL    H8431072   0.367   2.908   1.420  1.7933  0.3728 -0.0227
  255MOL    H8531073   0.202   2.898   1.277 -1.7271 -0.7921 -1.9041
  255MOL    C8631074   0.198   2.688   1.220 -0.1354  0.2891  0.2351
  255MOL    C8731075   0.116   2.702   1.090 -0.6797 -0.4719  0.0436
  255MOL    F8831076   0.052   2.586   1.086  0.2011 -0.4885 -0.0458
  255MOL    H8931077   0.268   2.609   1.194 -0.7600  0.2155 -1.3038
  255MOL    H9031078   0.129   2.644   1.292 -0.7734  0.1821 -0.4278
  255MOL    H9131079   0.176   2.713   1.000 -2.3419 -1.5668 -1.2254
  255MOL    C9231080   0.020   2.814   1.098  0.0743 -0.1257 -0.3802
  255MOL    C9331081   7.939   2.829   0.971  0.2872  0.2866  1.1446
  255MOL    F9431082   7.830   2.758   0.968 -0.0113  0.5265  0.1546
  255MOL    H9531083   7.946   2.799   1.174 -1.1243  1.0953 -1.3126
  255MOL    H9631084   0.064   2.911   1.120  0.7195 -1.2644  3.6885
  255MOL    H9731085   7.997   2.796   0.885 -1.3202 -1.2487  0.6052
  255MOL    C9831086   7.901   2.970   0.927 -0.5505  0.2277  0.3259
  255MOL    C9931087   7.820   3.055   1.019  0.6108 -0.1289 -1.3370
  255MOL   F10031088   7.901   3.094   1.122  0.0468 -0.2394  0.0115
  255MOL   H10131089   7.997   3.018   0.911  0.2028 -1.2829  0.2739
  255MOL   H10231090   7.856   2.962   0.828  0.5086  0.4309 -0.1715
  255MOL   H10331091   7.749   2.992   1.072  0.7930 -0.1402 -1.1088
  255MOL   C10431092   7.771   3.187   0.960 -0.0720  0.3353  0.5078
  255MOL   C10531093   7.656   3.172   0.868  0.2529  0.7126  0.2442
  255MOL   F10631094   7.556   3.132   0.937  0.2599  0.7846  0.0222
  255MOL   H10731095   7.737   3.255   1.038  0.9095 -0.3595  1.5733
  255MOL   H10831096   7.849   3.253   0.922 -1.7404  2.7123  1.1416
  255MOL   H10931097   7.672   3.097   0.791 -0.5262  1.6406 -0.8432
  255MOL   C11031098   7.608   3.293   0.782 -0.8657 -0.2577 -0.3880
  255MOL   C11131099   7.720   3.354   0.697  0.0620  0.4303 -0.6076
  255MOL   F11231100   7.721   3.262   0.606  0.0845  0.4957  0.0546
  255MOL   H11331101   7.519   3.258   0.730 -0.5640 -2.8668  0.7997
  255MOL   H11431102   7.571   3.372   0.849 -2.7504 -1.3780 -0.0606
  255MOL   H11531103   7.813   3.364   0.754 -1.1333  0.4409  1.3993
  255MOL   C11631104   7.674   3.483   0.638 -0.0312 -0.3820  0.1093
  255MOL   C11731105   7.779   3.538   0.542 -0.2550  0.7032 -0.6636
  255MOL   F11831106   7.725   3.637   0.462 -0.8635 -0.0281  0.1452
  255MOL   H11931107   7.579   3.482   0.584  2.1136 -0.6052 -3.8499
  255MOL   H12031108   7.659   3.559   0.715  1.4821  1.3286 -1.2410
  255MOL   H12131109   7.814   3.465   0.469 -0.2765  0.6640 -0.6343
  255MOL   H12231110   7.869   3.575   0.592 -0.5832  0.0585  0.4044
  256MOL     C131111   3.631   4.567   2.380 -0.0067  0.1639  0.0157
  256MOL     C231112   3.785   4.579   2.386 -0.3732 -0.4574 -0.9629
  256MOL     F331113   3.839   4.460   2.355  0.0451 -0.0765 -0.0417
  256MOL     H431114   3.585   4.639   2.448 -0.7343  0.2702 -0.5710
  256MOL     H531115   3.590   4.470   2.405  0.1657  0.7330  2.6023
  256MOL     H631116   3.809   4.599   2.490 -0.6012  0.6157 -1.1066
  256MOL     H731117   3.578   4.588   2.287 -2.4600 -0.1115  1.3080
  256MOL     C831118   3.833   4.683   2.280  0.3354 -0.1719  0.2043
  256MOL     C931119   3.984   4.700   2.276  0.1966  0.0640  0.4932
  256MOL    F1031120   3.991   4.781   2.169 -0.6070  0.2317 -0.1977
  256MOL    H1131121   3.806   4.651   2.179  0.9454 -0.5764  0.1662
  256MOL    H1231122   3.777   4.774   2.299 -2.9799 -2.2732  0.9720
  256MOL    H1331123   4.034   4.606   2.251  1.1118  0.7703 -0.4080
  256MOL    C1431124   4.049   4.765   2.399  0.1982 -0.1627 -0.1595
  256MOL    C1531125   4.194   4.798   2.379 -0.7979  0.0402  0.1920
  256MOL    F1631126   4.228   4.867   2.272  0.3136  0.4148 -0.3309
  256MOL    H1731127   3.977   4.843   2.423 -0.5659  0.2388 -3.4430
  256MOL    H1831128   4.038   4.696   2.483 -0.3910  0.4885  0.3046
  256MOL    H1931129   4.251   4.705   2.375 -0.3966  0.2113  1.4930
  256MOL    C2031130   4.258   4.877   2.492 -0.3299 -0.7160 -0.2695
  256MOL    C2131131   4.408   4.855   2.512 -0.0967  0.2340  0.5689
  256MOL    F2231132   4.472   4.895   2.400 -0.2096 -0.1774  0.1589
  256MOL    H2331133   4.222   4.978   2.475 -1.2953 -1.0990 -0.5469
  256MOL    H2431134   4.212   4.843   2.585  0.2284  0.0674  0.2997
  256MOL    H2531135   4.429   4.748   2.511 -0.3357  0.1692 -3.2896
  256MOL    C2631136   4.465   4.935   2.639  0.3904 -0.4762 -0.3605
  256MOL    C2731137   4.624   4.939   2.635 -0.5642  0.8524 -0.9806
  256MOL    F2831138   4.666   4.996   2.751 -0.0001  0.2318  0.4462
  256MOL    H2931139   4.415   5.032   2.640 -0.5949 -0.9382  2.9875
  256MOL    H3031140   4.436   4.894   2.736  1.3230 -0.8067 -0.2123
  256MOL    H3131141   4.658   5.004   2.553  0.1393  1.0112 -0.5725
  256MOL    C3231142   4.694   4.801   2.612  0.1998 -0.8234 -0.2302
  256MOL    C3331143   4.686   4.710   2.728  0.0417 -0.1874  0.1373
  256MOL    F3431144   4.559   4.660   2.745  0.1945 -0.1913  0.1767
  256MOL    H3531145   4.675   4.755   2.514 -2.6374 -1.6693  0.6561
  256MOL    H3631146   4.798   4.826   2.593  0.0509 -0.2437 -0.2850
  256MOL    H3731147   4.696   4.771   2.818  2.6086 -0.8274  0.3122
  256MOL    C3831148   4.791   4.599   2.731 -0.1965  0.0539 -0.1190
  256MOL    C3931149   4.945   4.647   2.730 -0.4584  0.0686 -0.1672
  256MOL    F4031150   4.975   4.718   2.844  0.4045 -0.1996  0.1625
  256MOL    H4131151   4.767   4.534   2.815  0.9643  1.0581  1.0185
  256MOL    H4231152   4.770   4.528   2.652  1.8079  0.2130 -0.8215
  256MOL    H4331153   4.969   4.714   2.648  0.5366  0.5384  0.5027
  256MOL    C4431154   5.036   4.526   2.732 -0.4199  0.2250  0.5261
  256MOL    C4531155   5.183   4.552   2.738  0.0600  0.1147  0.1540
  256MOL    F4631156   5.259   4.455   2.710 -0.3222 -0.3999 -0.2916
  256MOL    H4731157   5.003   4.467   2.818  0.9629 -0.2208  0.7612
  256MOL    H4831158   5.023   4.473   2.638 -2.0139 -2.1078  1.9883
  256MOL    H4931159   5.205   4.570   2.843 -0.7327  2.7873 -0.0952
  256MOL    C5031160   5.230   4.680   2.661 -0.5862 -0.3171 -0.1317
  256MOL    C5131161   5.235   4.657   2.514 -0.0046  0.3781  0.9035
  256MOL    F5231162   5.129   4.709   2.458 -0.1781 -0.0981 -0.0695
  256MOL    H5331163   5.190   4.776   2.694 -1.1956 -0.3136 -0.8760
  256MOL    H5431164   5.338   4.678   2.678 -0.3571 -1.0204 -1.5482
  256MOL    H5531165   5.236   4.549   2.498 -0.1203  0.5131 -0.0763
  256MOL    C5631166   5.348   4.735   2.448 -0.5789  0.2895  0.7678
  256MOL    C5731167   5.328   4.892   2.442 -0.5744  0.1094 -0.4503
  256MOL    F5831168   5.323   4.957   2.561  0.1887  0.3465 -0.1669
  256MOL    H5931169   5.442   4.717   2.500  0.3125  0.0719 -0.8928
  256MOL    H6031170   5.352   4.701   2.345  2.3930  0.8647  0.6591
  256MOL    H6131171   5.231   4.912   2.396 -0.2764  0.9072 -0.7427
  256MOL    C6231172   5.445   4.966   2.372  0.3711  1.0307  0.1564
  256MOL    C6331173   5.408   5.111   2.347  0.0371 -0.3134  0.3447
  256MOL    F6431174   5.521   5.161   2.301 -0.2002  0.4875  0.4033
  256MOL    H6531175   5.529   4.960   2.441 -0.1629 -3.8423  0.5151
  256MOL    H6631176   5.472   4.923   2.276 -2.2494  1.8061 -0.9766
  256MOL    H6731177   5.403   5.167   2.440  1.1272  0.0611  0.1805
  256MOL    C6831178   5.290   5.140   2.251 -0.2154 -1.4568  0.4003
  256MOL    C6931179   5.318   5.108   2.098  0.1084  0.4416 -0.1090
  256MOL    F7031180   5.328   4.973   2.084  0.9709 -0.5238 -0.1346
  256MOL    H7131181   5.208   5.074   2.280 -0.7154 -1.7809 -1.7093
  256MOL    H7231182   5.252   5.242   2.258  1.5875 -0.4661 -3.3109
  256MOL    H7331183   5.414   5.158   2.082  0.2485 -0.2310 -1.4132
  256MOL    C7431184   5.202   5.167   2.009 -0.4445  0.3964 -0.1249
  256MOL    C7531185   5.235   5.170   1.855 -0.4251 -0.4687  0.7092
  256MOL    F7631186   5.289   5.050   1.829  0.1155 -0.6808 -0.5353
  256MOL    H7731187   5.107   5.113   2.021  0.0212  0.2437  3.4684
  256MOL    H7831188   5.193   5.274   2.027  0.8172  0.0399  2.9189
  256MOL    H7931189   5.308   5.250   1.841 -1.1557  0.2249  0.8184
  256MOL    C8031190   5.112   5.192   1.770 -0.3872  0.3108  0.3083
  256MOL    C8131191   5.030   5.324   1.800 -0.2921  0.0245  0.6793
  256MOL    F8231192   5.101   5.431   1.762  0.5766  0.4037 -0.1785
  256MOL    H8331193   5.135   5.180   1.664 -1.6445  0.1710  0.0433
  256MOL    H8431194   5.037   5.114   1.786  0.3761 -0.3964  0.4763
  256MOL    H8531195   5.005   5.328   1.906  0.4023  0.2538  0.8371
  256MOL    C8631196   4.903   5.335   1.711  0.2660  0.8497 -0.7460
  256MOL    C8731197   4.819   5.462   1.733  0.6348 -1.3112 -0.1435
  256MOL    F8831198   4.890   5.565   1.681 -0.6971  0.5051 -0.2721
  256MOL    H8931199   4.928   5.308   1.609  2.2399 -0.9874  0.1818
  256MOL    H9031200   4.848   5.246   1.742  1.0663  0.8768  0.7821
  256MOL    H9131201   4.812   5.477   1.841  1.1822 -0.1942 -0.2580
  256MOL    C9231202   4.679   5.476   1.676 -0.1606  0.4472  0.2500
  256MOL    C9331203   4.575   5.364   1.701  0.1417  0.3134 -0.5789
  256MOL    F9431204   4.532   5.385   1.828  0.2205 -0.0932 -0.1343
  256MOL    H9531205   4.647   5.576   1.705 -1.1039  0.2513 -0.0971
  256MOL    H9631206   4.699   5.482   1.569  2.0313 -2.1226  0.4683
  256MOL    H9731207   4.619   5.265   1.708 -0.3527  0.2280  1.3369
  256MOL    C9831208   4.453   5.374   1.612 -0.0875 -0.2184 -0.8583
  256MOL    C9931209   4.472   5.355   1.460  0.1943 -0.0668 -0.5800
  256MOL   F10031210   4.531   5.238   1.453 -0.0190 -0.1589 -0.0310
  256MOL   H10131211   4.395   5.291   1.651  1.2940 -0.6302  0.3653
  256MOL   H10231212   4.382   5.454   1.637 -0.4318 -0.4842 -0.9830
  256MOL   H10331213   4.545   5.420   1.412  0.2834  2.0897  2.3324
  256MOL   C10431214   4.336   5.350   1.383  0.1345 -0.1240 -0.1600
  256MOL   C10531215   4.266   5.483   1.353 -0.4425  0.0255 -1.0080
  256MOL   F10631216   4.338   5.554   1.263 -0.1296 -0.2094  0.5977
  256MOL   H10731217   4.353   5.291   1.294 -2.0556 -0.1019 -0.6347
  256MOL   H10831218   4.268   5.290   1.444 -0.8709  0.4235 -0.7258
  256MOL   H10931219   4.252   5.536   1.447 -1.0943 -1.2324 -0.3833
  256MOL   C11031220   4.132   5.459   1.284  0.0511 -0.6024  0.3018
  256MOL   C11131221   4.042   5.589   1.272 -0.0026 -0.9560 -0.7194
  256MOL   F11231222   3.948   5.569   1.174  0.1145 -0.0855 -0.4505
  256MOL   H11331223   4.153   5.437   1.180  2.1494  0.9703  0.3607
  256MOL   H11431224   4.074   5.382   1.334  0.9247 -1.3362  0.1979
  256MOL   H11531225   4.097   5.675   1.235 -0.5579 -0.3063 -0.0537
  256MOL   C11631226   3.967   5.625   1.404  0.2081  0.6946  0.8483
  256MOL   C11731227   3.890   5.750   1.385  0.3550  0.2891  0.5787
  256MOL   F11831228   3.794   5.751   1.483 -0.4560 -0.2616 -0.2576
  256MOL   H11931229   3.906   5.538   1.426 -0.8768  1.0179 -0.8320
  256MOL   H12031230   4.041   5.631   1.484  2.8249  2.5354 -1.6117
  256MOL   H12131231   3.854   5.747   1.282  2.2493 -0.4845 -0.0932
  256MOL   H12231232   3.943   5.845   1.393 -0.3386  1.0337 -2.7444
  257MOL     C131233   1.299   1.578   0.619  0.1717 -0.1834  0.2846
  257MOL     C231234   1.269   1.697   0.705  0.3727 -0.0586 -0.4625
  257MOL     F331235   1.156   1.677   0.771  0.6478  0.2927 -0.6748
  257MOL     H431236   1.209   1.568   0.558  0.3073 -0.3037  0.1053
  257MOL     H531237   1.310   1.485   0.675  2.1608 -0.4458 -0.5092
  257MOL     H631238   1.248   1.783   0.641  1.6016  0.3108 -0.3865
  257MOL     H731239   1.387   1.584   0.555 -2.2720 -0.7682 -3.2971
  257MOL     C831240   1.378   1.736   0.803  0.5131 -0.2515 -0.7446
  257MOL     C931241   1.359   1.875   0.867 -0.3199  0.3759  0.5468
  257MOL    F1031242   1.240   1.895   0.927 -0.1640  0.3798 -0.1623
  257MOL    H1131243   1.399   1.655   0.874 -0.4480  1.0797  1.0888
  257MOL    H1231244   1.462   1.758   0.738  1.1441 -0.6455 -0.0779
  257MOL    H1331245   1.354   1.946   0.785 -2.1085  0.5217  0.7470
  257MOL    C1431246   1.472   1.919   0.958  0.4255 -0.4659  0.9722
  257MOL    C1531247   1.601   1.955   0.889  0.1297  0.0602 -0.6114
  257MOL    F1631248   1.566   2.045   0.794 -0.1814 -0.1435  0.5309
  257MOL    H1731249   1.448   2.003   1.024  0.8381 -1.2142  2.0927
  257MOL    H1831250   1.505   1.844   1.031 -1.3426 -2.9071 -0.6648
  257MOL    H1931251   1.649   1.866   0.847  0.9855  0.9268 -1.5214
  257MOL    C2031252   1.711   2.018   0.976 -0.0347 -0.1754  0.9667
  257MOL    C2131253   1.837   2.064   0.903  0.6869 -0.2759  0.0878
  257MOL    F2231254   1.903   2.135   1.002  0.7810  0.3519 -0.4432
  257MOL    H2331255   1.666   2.108   1.019 -1.1604 -1.5269  2.6704
  257MOL    H2431256   1.719   1.953   1.063  0.5803 -0.2828  0.8344
  257MOL    H2531257   1.809   2.138   0.829 -0.3903 -1.7135 -0.9903
  257MOL    C2631258   1.937   1.966   0.849  0.7639 -0.0558 -0.5294
  257MOL    C2731259   1.918   1.941   0.704  0.0715  0.5991 -0.1375
  257MOL    F2831260   1.952   2.052   0.639  0.3056  0.5044  0.6571
  257MOL    H2931261   2.041   1.998   0.864  0.3341  0.8663  0.5221
  257MOL    H3031262   1.923   1.873   0.904 -1.2776  1.7919  2.1693
  257MOL    H3131263   1.811   1.934   0.685 -0.0163 -1.8323  1.1465
  257MOL    C3231264   1.992   1.817   0.645 -0.3258 -0.2027  0.1955
  257MOL    C3331265   1.984   1.820   0.489 -0.0471  0.0711 -0.6583
  257MOL    F3431266   2.067   1.729   0.436  0.2730 -0.3592  0.2576
  257MOL    H3531267   2.098   1.820   0.670 -0.7601  1.3379  1.9703
  257MOL    H3631268   1.957   1.723   0.687 -0.6846 -0.2449 -0.1944
  257MOL    H3731269   2.030   1.912   0.453 -1.0159  0.1715 -1.7109
  257MOL    C3831270   1.838   1.815   0.430  0.1875  0.3460  0.2903
  257MOL    C3931271   1.786   1.671   0.425 -0.7565 -0.6455  0.0965
  257MOL    F4031272   1.764   1.637   0.553 -0.0236  0.2174  0.0676
  257MOL    H4131273   1.772   1.884   0.484 -0.3676 -0.8868  1.2052
  257MOL    H4231274   1.844   1.862   0.332  1.2833 -0.7473 -0.1719
  257MOL    H4331275   1.872   1.613   0.392 -0.4576  0.9943 -2.1335
  257MOL    C4431276   1.658   1.651   0.351  0.8670 -0.2458 -0.4461
  257MOL    C4531277   1.612   1.500   0.351 -0.3021  0.4209 -0.4726
  257MOL    F4631278   1.583   1.463   0.482 -0.0802 -0.4727 -0.3591
  257MOL    H4731279   1.585   1.714   0.402 -1.7834 -1.7755 -2.2341
  257MOL    H4831280   1.653   1.669   0.244 -0.2888 -1.1813 -0.5594
  257MOL    H4931281   1.693   1.433   0.320  1.1313  1.6455  0.5261
  257MOL    C5031282   1.479   1.479   0.278  0.0771 -0.9154  0.4634
  257MOL    C5131283   1.422   1.339   0.287 -0.3616  1.5851 -0.0057
  257MOL    F5231284   1.307   1.333   0.225 -0.3412  0.3060 -0.3981
  257MOL    H5331285   1.402   1.548   0.315  1.7783 -0.4033  3.1498
  257MOL    H5431286   1.500   1.507   0.175 -3.1089  0.7142  0.1887
  257MOL    H5531287   1.397   1.322   0.392  0.5743 -0.1889 -0.0380
  257MOL    C5631288   1.514   1.218   0.241  0.1823 -0.8105 -0.4961
  257MOL    C5731289   1.551   1.220   0.095  0.5670  0.0088 -0.2271
  257MOL    F5831290   1.655   1.300   0.077 -0.0260 -0.3732  0.4005
  257MOL    H5931291   1.606   1.209   0.298  0.3214  3.0454  0.0179
  257MOL    H6031292   1.448   1.132   0.257  0.2894 -1.0037 -1.1048
  257MOL    H6131293   1.470   1.268   0.040  0.1388 -1.4293 -0.8604
  257MOL    C6231294   1.593   1.091   0.020  0.3636 -0.6434  0.5271
  257MOL    C6331295   1.476   0.997   7.982 -0.1377  0.4619 -0.5560
  257MOL    F6431296   1.400   1.073   7.902  0.1680 -0.0732 -0.6108
  257MOL    H6531297   1.643   1.111   7.928  0.9537 -0.5667  0.8506
  257MOL    H6631298   1.664   1.037   0.083  0.2074 -1.8834 -0.3421
  257MOL    H6731299   1.410   0.989   0.065 -1.1812 -0.9085 -1.4647
  257MOL    C6831300   1.504   0.856   7.923  0.2525 -0.2982  0.2073
  257MOL    C6931301   1.557   0.751   0.017 -0.2724  0.3743 -0.3841
  257MOL    F7031302   1.499   0.640   7.978  0.2267 -0.3010  0.0069
  257MOL    H7131303   1.419   0.815   7.869 -0.0049  1.1124 -0.4729
  257MOL    H7231304   1.565   0.876   7.835  0.2237  2.7041  0.8101
  257MOL    H7331305   1.508   0.778   0.110 -2.2492 -2.0821 -0.6278
  257MOL    C7431306   1.708   0.731   0.012  0.1564  0.3388 -0.4051
  257MOL    C7531307   1.760   0.614   0.107 -0.0511 -0.0185  0.5383
  257MOL    F7631308   1.729   0.500   0.049  0.0219 -0.2018 -0.1141
  257MOL    H7731309   1.743   0.704   7.916 -1.1487 -2.5205 -0.1328
  257MOL    H7831310   1.768   0.818   0.037  0.9389 -0.8023  1.8259
  257MOL    H7931311   1.706   0.621   0.202  2.3155  1.8592  1.8037
  257MOL    C8031312   1.913   0.616   0.132  0.1204  0.0875 -0.4058
  257MOL    C8131313   1.967   0.475   0.176  0.6742  0.3263 -0.0450
  257MOL    F8231314   2.100   0.486   0.199 -0.0173 -0.1771  0.0654
  257MOL    H8331315   1.971   0.662   0.052 -1.1372  1.6021 -0.4729
  257MOL    H8431316   1.931   0.690   0.210  0.0762  0.3382 -0.6350
  257MOL    H8531317   1.945   0.402   0.097  0.3454  0.7603 -0.3522
  257MOL    C8631318   1.907   0.420   0.308  0.1417 -0.1473  0.7205
  257MOL    C8731319   1.966   0.292   0.353  0.2201 -0.5370 -0.2219
  257MOL    F8831320   1.930   0.281   0.488  0.2697 -0.1769  0.4226
  257MOL    H8931321   1.931   0.489   0.389  1.4255  3.3683 -2.4895
  257MOL    H9031322   1.799   0.409   0.310 -0.0217  0.8516 -1.5266
  257MOL    H9131323   2.075   0.292   0.358  0.3823  1.9294 -2.8229
  257MOL    C9231324   1.923   0.160   0.277  0.8598 -0.3172 -0.6417
  257MOL    C9331325   2.020   0.045   0.288 -0.6608 -0.1774  0.2301
  257MOL    F9431326   2.121   0.083   0.204 -0.5858 -0.1472 -0.3275
  257MOL    H9531327   1.820   0.140   0.308  0.9065  0.1342 -0.1846
  257MOL    H9631328   1.919   0.179   0.170  1.3957 -0.3976 -0.6769
  257MOL    H9731329   1.975   7.962   0.238 -1.2501 -0.5724  1.4163
  257MOL    C9831330   2.066   7.999   0.428 -0.0279  0.7719 -0.0446
  257MOL    C9931331   2.152   7.875   0.423  0.0639  0.0389 -0.1218
  257MOL   F10031332   2.211   7.860   0.538 -0.4367  0.1003  0.2081
  257MOL   H10131333   2.128   0.075   0.472  0.9364 -0.5851  1.0919
  257MOL   H10231334   1.980   0.002   0.495  0.4313  1.9008  0.4574
  257MOL   H10331335   2.230   7.880   0.347  0.0314 -1.1793 -0.2429
  257MOL   C10431336   2.072   7.743   0.404 -0.8285 -0.0097  0.4803
  257MOL   C10531337   2.156   7.613   0.397  0.0862 -0.7935  0.4575
  257MOL   F10631338   2.079   7.513   0.363  0.5553 -0.0807 -0.1479
  257MOL   H10731339   2.019   7.723   0.497  0.1603  1.0141  1.2739
  257MOL   H10831340   2.005   7.741   0.318 -3.2403 -0.1758  2.3034
  257MOL   H10931341   2.184   7.593   0.501  0.2413  1.1645  0.8161
  257MOL   C11031342   2.284   7.629   0.313  0.7600  0.3520 -0.6304
  257MOL   C11131343   2.276   7.678   0.167  0.6658  0.4378 -0.0676
  257MOL   F11231344   2.397   7.686   0.123  0.2675  0.6542 -0.0871
  257MOL   H11331345   2.356   7.688   0.370  2.4877 -0.2675 -2.1017
  257MOL   H11431346   2.349   7.542   0.320 -2.1778 -1.9470 -0.9698
  257MOL   H11531347   2.230   7.777   0.162 -0.9379 -0.3489 -1.2259
  257MOL   C11631348   2.204   7.564   0.087 -0.3656 -0.1269 -0.2863
  257MOL   C11731349   2.172   7.611   7.952 -0.2863 -0.3675  0.0356
  257MOL   F11831350   2.086   7.715   7.943  0.5141  0.4584 -0.1439
  257MOL   H11931351   2.258   7.469   0.088 -1.4269 -0.7298  0.0561
  257MOL   H12031352   2.108   7.537   0.130 -0.1829 -0.7806 -0.2943
  257MOL   H12131353   2.133   7.525   7.897 -0.9322 -0.3529  0.4706
  257MOL   H12231354   2.260   7.640   7.894  1.0345 -4.0192  0.1397
  258MOL     C131355   5.244   2.427   2.603 -0.4939 -0.4456  0.4621
  258MOL     C231356   5.095   2.446   2.573  1.1484  0.0805 -0.0973
  258MOL     F331357   5.029   2.383   2.666 -0.5606  0.1811  0.3149
  258MOL     H431358   5.276   2.479   2.694  1.6461  1.6136 -1.4129
  258MOL     H531359   5.303   2.463   2.519 -2.4608  1.4358 -0.1431
  258MOL     H631360   5.067   2.395   2.482 -0.4201  0.4734  0.1578
  258MOL     H731361   5.269   2.321   2.603 -0.3522 -0.4113  0.4207
  258MOL     C831362   5.049   2.591   2.577 -0.1470 -0.6238 -0.3849
  258MOL     C931363   4.895   2.612   2.579 -0.0668 -0.5526  0.4390
  258MOL    F1031364   4.837   2.556   2.689  0.0726 -0.3480  0.1302
  258MOL    H1131365   5.083   2.630   2.673  1.2913 -2.2810 -0.2067
  258MOL    H1231366   5.084   2.648   2.490 -2.7826  0.6036 -0.7041
  258MOL    H1331367   4.859   2.566   2.487 -1.6468  2.4154 -0.4631
  258MOL    C1431368   4.837   2.753   2.573 -0.4536  0.1742 -0.6287
  258MOL    C1531369   4.858   2.834   2.704  0.5790  0.1563  0.2059
  258MOL    F1631370   4.990   2.852   2.720  0.7772 -0.4199 -0.1703
  258MOL    H1731371   4.865   2.815   2.488 -0.4456  0.2264 -0.5879
  258MOL    H1831372   4.730   2.739   2.558 -0.5652 -0.1400  0.4620
  258MOL    H1931373   4.816   2.770   2.782 -2.5171  2.9945  0.9478
  258MOL    C2031374   4.791   2.970   2.703  0.6169 -0.7760  0.2140
  258MOL    C2131375   4.784   3.036   2.840 -0.5267  0.0429  0.1733
  258MOL    F2231376   4.911   3.037   2.886 -0.7447  0.0478  0.6472
  258MOL    H2331377   4.835   3.034   2.626 -1.3471  0.3473 -0.0168
  258MOL    H2431378   4.690   2.946   2.669  0.1125 -1.5005  2.1757
  258MOL    H2531379   4.725   2.980   2.912 -0.2184 -1.8180 -0.9896
  258MOL    C2631380   4.726   3.180   2.842 -0.3436  0.6061  0.1547
  258MOL    C2731381   4.723   3.251   2.986 -0.5324 -0.3438 -0.1444
  258MOL    F2831382   4.703   3.379   2.959  0.0892 -0.1972 -0.3014
  258MOL    H2931383   4.792   3.238   2.777  0.5653  0.3541  0.8399
  258MOL    H3031384   4.632   3.176   2.786  0.0718 -0.7972 -0.4804
  258MOL    H3131385   4.823   3.245   3.031 -0.4439  0.0232 -0.2896
  258MOL    C3231386   4.618   3.198   3.087  0.7973 -0.0892  0.4638
  258MOL    C3331387   4.477   3.188   3.030 -0.4016 -0.3542  0.3777
  258MOL    F3431388   4.458   3.080   2.958  0.1411  0.5508 -0.0597
  258MOL    H3531389   4.642   3.106   3.140 -0.2152 -0.6693 -0.0723
  258MOL    H3631390   4.621   3.276   3.163  0.3291 -0.0292  0.4207
  258MOL    H3731391   4.457   3.275   2.966  1.0124 -0.1617  0.1752
  258MOL    C3831392   4.371   3.186   3.139  0.2548  0.7701  0.4361
  258MOL    C3931393   4.230   3.185   3.096 -0.4652  0.9860  0.7707
  258MOL    F4031394   4.208   3.071   3.027 -0.0980  0.2489 -0.0980
  258MOL    H4131395   4.387   3.091   3.190 -1.1155  1.1917  1.6828
  258MOL    H4231396   4.391   3.264   3.213 -0.5330 -0.8448  2.4269
  258MOL    H4331397   4.213   3.261   3.020 -1.4660  0.0604  0.0633
  258MOL    C4431398   4.125   3.215   3.210 -0.2339  0.6966  0.4889
  258MOL    C4531399   4.122   3.364   3.251  0.0458 -0.0742 -0.0203
  258MOL    F4631400   4.089   3.430   3.137  0.0610 -0.0656 -0.3162
  258MOL    H4731401   4.025   3.192   3.173  0.1679 -1.0810  0.4819
  258MOL    H4831402   4.142   3.144   3.291  2.4456  1.8646  0.9908
  258MOL    H4931403   4.223   3.381   3.287 -0.1722 -1.1147  1.1303
  258MOL    C5031404   4.014   3.401   3.347 -0.1874 -0.1487 -0.3123
  258MOL    C5131405   4.021   3.343   3.491  0.4298 -0.7828  0.6685
  258MOL    F5231406   4.144   3.365   3.536 -0.5101  0.0080 -0.1686
  258MOL    H5331407   4.009   3.509   3.357  0.4419  0.0897 -2.4383
  258MOL    H5431408   3.917   3.365   3.312  0.5019 -1.6606 -0.7399
  258MOL    H5531409   3.999   3.237   3.488 -0.1274 -0.6391 -0.8657
  258MOL    C5631410   3.926   3.416   3.584  0.3500 -0.1573 -0.4654
  258MOL    C5731411   3.783   3.402   3.554  1.0961 -0.2784 -0.3947
  258MOL    F5831412   3.748   3.273   3.551  0.4543  0.4885  0.5618
  258MOL    H5931413   3.930   3.377   3.685 -3.1509  0.0343 -0.1831
  258MOL    H6031414   3.945   3.523   3.590 -1.5083  0.3095 -2.4213
  258MOL    H6131415   3.749   3.439   3.458 -0.3208  0.4486  0.3713
  258MOL    C6231416   3.697   3.471   3.655 -0.5295  0.4065 -0.0154
  258MOL    C6331417   3.543   3.483   3.634  0.6470  0.0501  0.7812
  258MOL    F6431418   3.515   3.564   3.533  0.3352 -0.3191  0.2942
  258MOL    H6531419   3.708   3.432   3.756  0.7450  0.4729 -0.1205
  258MOL    H6631420   3.730   3.574   3.667 -1.6481  0.8673 -0.7749
  258MOL    H6731421   3.512   3.537   3.723  0.6455  2.7530 -0.8261
  258MOL    C6831422   3.468   3.342   3.621 -1.0431  0.2715 -0.2203
  258MOL    C6931423   3.316   3.349   3.671  0.5788  0.3582  0.2577
  258MOL    F7031424   3.252   3.450   3.613 -0.0509 -0.4757  0.4935
  258MOL    H7131425   3.469   3.311   3.516  0.8836  0.8804 -0.3898
  258MOL    H7231426   3.528   3.263   3.666  0.5207  0.6879 -1.5061
  258MOL    H7331427   3.324   3.377   3.776 -1.6362  0.5448  0.3974
  258MOL    C7431428   3.231   3.228   3.648 -0.2294 -0.1088 -0.0591
  258MOL    C7531429   3.271   3.087   3.699 -0.1713  0.4934 -0.4270
  258MOL    F7631430   3.403   3.061   3.668 -0.2373 -0.0181  0.0912
  258MOL    H7731431   3.133   3.247   3.691 -1.4499 -3.7906 -1.0241
  258MOL    H7831432   3.209   3.214   3.542 -0.8137  0.6164 -0.0345
  258MOL    H7931433   3.219   3.001   3.658 -0.1217  0.1917  0.1333
  258MOL    C8031434   3.272   3.082   3.857 -1.0814  0.0181 -0.6396
  258MOL    C8131435   3.326   2.945   3.912  0.0266  0.0134 -0.6517
  258MOL    F8231436   3.291   2.854   3.826 -0.2781  0.1991 -0.1098
  258MOL    H8331437   3.330   3.167   3.892 -0.9527 -0.0601 -0.6644
  258MOL    H8431438   3.168   3.102   3.883 -0.9607  1.6935 -1.3470
  258MOL    H8531439   3.265   2.928   4.001 -0.9994  1.5345 -1.0467
  258MOL    C8631440   3.475   2.935   3.945 -0.2225  1.3586 -0.5439
  258MOL    C8731441   3.526   2.801   3.999  0.4096  0.5274  0.2377
  258MOL    F8831442   3.646   2.819   4.046  0.6028  0.0104  0.5507
  258MOL    H8931443   3.533   2.946   3.854  1.7376  0.0880  0.5216
  258MOL    H9031444   3.501   3.020   4.008  2.0766  1.1793 -1.2097
  258MOL    H9131445   3.527   2.734   3.914 -2.5449 -0.1222  0.6475
  258MOL    C9231446   3.435   2.732   4.097 -0.0600 -0.5948 -0.8592
  258MOL    C9331447   3.481   2.588   4.126 -0.4213  0.5017 -0.3745
  258MOL    F9431448   3.591   2.589   4.202 -0.2430 -0.1423 -0.2149
  258MOL    H9531449   3.420   2.793   4.187  1.3607 -0.1284 -0.9230
  258MOL    H9631450   3.336   2.728   4.052 -1.6946 -1.2643  2.5768
  258MOL    H9731451   3.512   2.539   4.034  0.7879  1.0817 -0.2874
  258MOL    C9831452   3.369   2.505   4.192  0.4099  0.1154  0.1091
  258MOL    C9931453   3.321   2.548   4.330  0.2504  0.1189 -0.0854
  258MOL   F10031454   3.257   2.662   4.323 -0.6163  0.4745 -0.1568
  258MOL   H10131455   3.277   2.521   4.136  0.1916  2.7472  1.1561
  258MOL   H10231456   3.397   2.401   4.177 -1.2679 -0.4751  1.0114
  258MOL   H10331457   3.401   2.561   4.402 -1.4421 -0.9042  2.0570
  258MOL   C10431458   3.221   2.440   4.381  0.0224 -0.4165  0.1967
  258MOL   C10531459   3.161   2.468   4.524  0.1919 -0.0663  0.7683
  258MOL   F10631460   3.083   2.584   4.519 -0.0039  0.3963  0.0161
  258MOL   H10731461   3.137   2.444   4.312  0.5961  1.4144 -0.4299
  258MOL   H10831462   3.275   2.346   4.368  0.4412 -0.3566  1.4598
  258MOL   H10931463   3.238   2.478   4.601  2.1980  0.6044 -1.2651
  258MOL   C11031464   3.066   2.356   4.574 -0.1960 -0.0586  0.6206
  258MOL   C11131465   3.133   2.234   4.641  0.8308 -0.6153 -0.7175
  258MOL   F11231466   3.201   2.265   4.764  0.2363 -0.5084  0.5786
  258MOL   H11331467   3.003   2.384   4.657 -0.0403 -1.9887  1.4195
  258MOL   H11431468   3.000   2.312   4.500 -1.4561  0.3072  1.5253
  258MOL   H11531469   3.201   2.188   4.570  0.7608  1.5471 -2.2370
  258MOL   C11631470   3.019   2.129   4.691 -0.9656  0.1623 -0.2262
  258MOL   C11731471   3.079   2.005   4.771 -0.7536 -0.0461 -0.1710
  258MOL   F11831472   2.996   1.901   4.776  0.1621  0.2961 -0.5925
  258MOL   H11931473   2.939   2.177   4.748 -1.0668  0.2289 -0.4270
  258MOL   H12031474   2.981   2.071   4.607  1.7173  0.1031 -1.4515
  258MOL   H12131475   3.100   2.021   4.877  0.5727  0.1938 -0.4622
  258MOL   H12231476   3.176   1.981   4.728  0.6298  1.6602  1.8659
  259MOL     C131477   7.164   3.435   5.431 -0.1492  0.2693  0.2293
  259MOL     C231478   7.144   3.548   5.329 -0.1822 -0.0680 -0.0036
  259MOL     F331479   7.258   3.626   5.330  0.1118  0.0141  0.4784
  259MOL     H431480   7.178   3.478   5.530  0.2198 -0.9141  0.7090
  259MOL     H531481   7.252   3.373   5.411  0.4828  1.4015 -0.5109
  259MOL     H631482   7.063   3.613   5.360  0.6788  1.0087  0.0402
  259MOL     H731483   7.074   3.373   5.429 -0.6899  1.0313  0.7605
  259MOL     C831484   7.121   3.499   5.187 -0.2669 -0.4081  0.0508
  259MOL     C931485   7.246   3.430   5.122 -0.9476  0.2760 -0.2580
  259MOL    F1031486   7.222   3.297   5.135  0.1530  0.3863  0.3430
  259MOL    H1131487   7.045   3.422   5.204  0.5735 -1.1139  0.6660
  259MOL    H1231488   7.076   3.579   5.128  1.1210  0.0735 -0.3623
  259MOL    H1331489   7.336   3.448   5.180 -2.2689  0.9300  1.6654
  259MOL    C1431490   7.261   3.454   4.968  0.8817 -0.6780 -0.3595
  259MOL    C1531491   7.305   3.602   4.945  0.0268 -0.2897  0.3363
  259MOL    F1631492   7.413   3.633   5.016 -0.0915 -0.7245 -0.6842
  259MOL    H1731493   7.352   3.402   4.937 -0.2566 -2.3516 -0.9454
  259MOL    H1831494   7.184   3.420   4.899 -1.6375 -0.8012  2.4207
  259MOL    H1931495   7.228   3.667   4.988  1.2871  1.7489 -0.3778
  259MOL    C2031496   7.327   3.641   4.793  0.5073 -0.1511  0.2049
  259MOL    C2131497   7.200   3.647   4.708 -0.0387  0.0529 -0.2363
  259MOL    F2231498   7.121   3.738   4.757  0.3053  0.1616  0.4071
  259MOL    H2331499   7.375   3.739   4.793 -0.0157  0.1067  0.8680
  259MOL    H2431500   7.402   3.576   4.747  0.9566  0.8149 -0.4485
  259MOL    H2531501   7.149   3.551   4.712  1.5859 -0.8904 -1.1289
  259MOL    C2631502   7.210   3.691   4.560 -0.3892  0.0336 -0.2148
  259MOL    C2731503   7.080   3.660   4.479 -0.1469  0.4698  0.2589
  259MOL    F2831504   7.054   3.531   4.495 -0.3668 -0.0654 -0.2327
  259MOL    H2931505   7.232   3.798   4.554 -0.3789 -0.0170 -1.2773
  259MOL    H3031506   7.303   3.650   4.518 -0.9768  0.8074 -2.3381
  259MOL    H3131507   7.098   3.668   4.372  2.1241 -1.2570  0.4680
  259MOL    C3231508   6.964   3.755   4.515  0.2962 -0.2604  0.1730
  259MOL    C3331509   6.869   3.766   4.395 -0.2660  0.2222 -0.2581
  259MOL    F3431510   6.816   3.647   4.359  0.2502  0.1489 -0.4456
  259MOL    H3531511   6.904   3.730   4.602 -0.6927  1.3047 -0.0257
  259MOL    H3631512   6.996   3.856   4.542  1.0525 -0.6318  0.6551
  259MOL    H3731513   6.908   3.813   4.305 -2.7219  1.1419 -0.9052
  259MOL    C3831514   6.748   3.850   4.443 -0.1780  0.1864 -0.4294
  259MOL    C3931515   6.760   4.004   4.438 -0.0909  0.1504  0.1961
  259MOL    F4031516   6.777   4.026   4.310 -0.0372 -0.6773 -0.8531
  259MOL    H4131517   6.665   3.826   4.375  0.1449  1.1235 -1.1703
  259MOL    H4231518   6.710   3.821   4.541  0.4531 -0.4668 -0.3724
  259MOL    H4331519   6.846   4.038   4.494 -1.0507  1.0624  1.1377
  259MOL    C4431520   6.624   4.071   4.484 -0.2692  0.7541 -0.0999
  259MOL    C4531521   6.631   4.222   4.494  0.5073  0.3445 -0.2416
  259MOL    F4631522   6.522   4.269   4.557 -0.5302 -0.0503  0.0722
  259MOL    H4731523   6.550   4.036   4.413 -0.4515 -2.3191  1.5069
  259MOL    H4831524   6.602   4.028   4.582  1.9381 -2.3050 -0.8785
  259MOL    H4931525   6.618   4.274   4.399 -0.8048 -0.6314 -0.6218
  259MOL    C5031526   6.751   4.287   4.570  1.1855 -0.4142 -0.0098
  259MOL    C5131527   6.732   4.289   4.724 -0.0617 -0.8699  0.4048
  259MOL    F5231528   6.738   4.167   4.773  0.4154  0.1356  0.3832
  259MOL    H5331529   6.850   4.253   4.538  0.6671 -1.4266 -0.5562
  259MOL    H5431530   6.747   4.392   4.542 -1.9905 -0.6157 -0.3959
  259MOL    H5531531   6.633   4.328   4.750 -0.7807 -0.9760 -2.0841
  259MOL    C5631532   6.841   4.373   4.797 -0.1690  0.1127 -0.2185
  259MOL    C5731533   6.805   4.410   4.949 -0.0526 -0.3706  0.6435
  259MOL    F5831534   6.802   4.301   5.016  0.5119  0.6939 -0.0735
  259MOL    H5931535   6.936   4.321   4.801  0.5017  1.0441 -2.8870
  259MOL    H6031536   6.854   4.469   4.747 -0.2981  0.0941 -0.2885
  259MOL    H6131537   6.711   4.465   4.946  0.1629 -0.0529 -0.3845
  259MOL    C6231538   6.889   4.517   5.014  0.5938 -0.2284 -0.7907
  259MOL    C6331539   6.876   4.662   4.961 -0.3911  0.2133  0.1223
  259MOL    F6431540   6.743   4.695   4.958  0.0194 -0.0930 -0.2925
  259MOL    H6531541   6.856   4.520   5.118  1.9556  1.6728 -0.3701
  259MOL    H6631542   6.994   4.490   5.000  0.4275 -0.8045 -0.9593
  259MOL    H6731543   6.907   4.675   4.858 -0.1598 -1.2439 -0.0099
  259MOL    C6831544   6.935   4.761   5.063  0.5393  0.0805 -0.2790
  259MOL    C6931545   6.899   4.909   5.049 -0.0641  0.1789 -0.2225
  259MOL    F7031546   6.961   4.963   5.148  0.1733 -0.1286  0.5684
  259MOL    H7131547   6.910   4.720   5.161 -0.5995 -0.1914 -0.6725
  259MOL    H7231548   7.043   4.750   5.051  0.5944  0.9900 -0.6925
  259MOL    H7331549   6.793   4.925   5.072 -0.7139 -0.3955 -2.6848
  259MOL    C7431550   6.948   4.986   4.929  0.0321  0.4651 -0.2789
  259MOL    C7531551   6.873   5.120   4.903 -0.0511  0.7718 -0.2794
  259MOL    F7631552   6.884   5.198   5.014 -0.6191 -0.0442 -0.4582
  259MOL    H7731553   7.056   4.995   4.939  0.1530  1.1454 -2.1064
  259MOL    H7831554   6.945   4.920   4.842 -0.6330  1.6164 -1.1319
  259MOL    H7931555   6.771   5.090   4.880 -0.3300  1.6095 -0.1353
  259MOL    C8031556   6.915   5.208   4.788 -0.2872  0.4949 -0.2136
  259MOL    C8131557   7.056   5.280   4.793 -0.6373 -0.3569  0.7130
  259MOL    F8231558   7.150   5.189   4.793  0.1147 -0.2124 -0.1848
  259MOL    H8331559   6.907   5.162   4.689 -0.3124  0.9757 -0.4395
  259MOL    H8431560   6.851   5.296   4.782 -0.9785 -0.1042 -1.7940
  259MOL    H8531561   7.069   5.331   4.889  3.2375 -0.6702  0.4539
  259MOL    C8631562   7.074   5.389   4.682  0.3538  0.1490  0.4987
  259MOL    C8731563   7.200   5.473   4.698 -0.2151  0.6480  0.2667
  259MOL    F8831564   7.249   5.503   4.577 -0.2621  0.6221 -0.0068
  259MOL    H8931565   7.063   5.324   4.595 -2.0341 -1.7012  2.0842
  259MOL    H9031566   6.987   5.454   4.671 -0.8261 -1.8171 -2.5791
  259MOL    H9131567   7.275   5.410   4.746 -0.1602 -0.4483 -1.2191
  259MOL    C9231568   7.182   5.597   4.778  0.0741  0.0410  1.4892
  259MOL    C9331569   7.300   5.668   4.855 -1.0497 -0.4188 -0.6195
  259MOL    F9431570   7.398   5.671   4.764 -0.6423 -0.0569  0.1828
  259MOL    H9531571   7.131   5.667   4.712 -1.2296 -1.6169  0.6958
  259MOL    H9631572   7.098   5.587   4.848 -1.2863 -3.3488 -0.5254
  259MOL    H9731573   7.340   5.619   4.943 -2.6652 -1.5688 -0.5064
  259MOL    C9831574   7.262   5.814   4.887 -0.5073  0.5197  0.0432
  259MOL    C9931575   7.163   5.809   5.009 -0.7629  0.2070 -0.0576
  259MOL   F10031576   7.222   5.748   5.106 -0.4579 -0.1776 -0.2055
  259MOL   H10131577   7.349   5.873   4.915 -0.5263  0.4660  0.2161
  259MOL   H10231578   7.205   5.852   4.803  1.0465 -2.2120 -2.3501
  259MOL   H10331579   7.071   5.753   4.988 -1.2325  0.4659  1.2661
  259MOL   C10431580   7.133   5.954   5.057 -0.1632  0.2729  0.5806
  259MOL   C10531581   7.032   6.036   4.965 -0.1571  0.2257 -0.3972
  259MOL   F10631582   6.914   5.974   4.949 -0.4006  0.6434  0.6621
  259MOL   H10731583   7.089   5.937   5.155  3.4522 -0.2343  2.1774
  259MOL   H10831584   7.226   6.009   5.070  0.8220 -1.1944 -0.1874
  259MOL   H10931585   7.074   6.048   4.866 -1.8358  0.6204 -1.0881
  259MOL   C11031586   6.997   6.180   5.012 -0.1065  0.6251 -0.5759
  259MOL   C11131587   6.941   6.193   5.154  0.2573 -0.3408  0.0107
  259MOL   F11231588   7.036   6.168   5.248  0.2066  0.0597  0.1768
  259MOL   H11331589   7.083   6.247   5.010 -0.2510  0.8441  0.4832
  259MOL   H11431590   6.926   6.209   4.934 -3.2421  0.6346  2.1978
  259MOL   H11531591   6.877   6.106   5.167 -2.5254  1.4767 -1.1385
  259MOL   C11631592   6.856   6.321   5.183  0.2261  0.5070 -0.1743
  259MOL   C11731593   6.945   6.445   5.185  0.3043  0.3089  0.0666
  259MOL   F11831594   6.979   6.477   5.063 -0.3410  0.5939  0.6947
  259MOL   H11931595   6.767   6.325   5.120  0.3811  1.1389 -0.3633
  259MOL   H12031596   6.815   6.317   5.284  0.4538 -1.5156 -0.1466
  259MOL   H12131597   7.042   6.430   5.234  0.3121  0.5197  0.1147
  259MOL   H12231598   6.887   6.529   5.223  0.8535  1.1372 -0.8978
  260MOL     C131599   7.027   7.190   6.867 -0.1018 -0.2278 -0.0339
  260MOL     C231600   7.152   7.245   6.798 -0.2124 -0.2941  0.2597
  260MOL     F331601   7.189   7.164   6.708 -0.3563 -0.8526  0.4118
  260MOL     H431602   7.045   7.104   6.931 -1.0863 -0.9075 -0.6659
  260MOL     H531603   6.949   7.158   6.798 -1.9063 -1.1733  2.3835
  260MOL     H631604   7.228   7.252   6.875  0.0397  0.6835 -0.0636
  260MOL     H731605   6.982   7.261   6.936 -1.4463 -2.8097  1.8297
  260MOL     C831606   7.135   7.374   6.723  0.9441  0.2156 -0.3243
  260MOL     C931607   7.263   7.458   6.704 -0.3085 -0.4962  0.1098
  260MOL    F1031608   7.362   7.380   6.657 -0.3228  0.0565 -0.0558
  260MOL    H1131609   7.099   7.351   6.623  2.5934  1.9056 -1.3329
  260MOL    H1231610   7.058   7.437   6.769  0.9932  0.4936 -0.6227
  260MOL    H1331611   7.297   7.504   6.797 -2.5053  1.0031  0.2080
  260MOL    C1431612   7.242   7.562   6.593  0.1613  0.6654  0.1986
  260MOL    C1531613   7.340   7.674   6.590 -0.1871 -0.0090 -0.4158
  260MOL    F1631614   7.459   7.611   6.558 -0.0777 -0.2212  0.1456
  260MOL    H1731615   7.212   7.512   6.501  2.7010 -0.3635 -0.1059
  260MOL    H1831616   7.147   7.608   6.621 -0.4732  0.0895 -0.9509
  260MOL    H1931617   7.352   7.722   6.687 -1.3553 -1.2188  0.3427
  260MOL    C2031618   7.299   7.790   6.494  0.0138  0.0871  0.2434
  260MOL    C2131619   7.399   7.906   6.488  0.6696  0.3102  0.3089
  260MOL    F2231620   7.372   7.984   6.387  0.1821  0.3188 -0.0050
  260MOL    H2331621   7.284   7.744   6.396 -0.1877 -1.3233  0.9192
  260MOL    H2431622   7.198   7.825   6.516  0.2771  1.0838 -0.0974
  260MOL    H2531623   7.498   7.869   6.458  1.1351  1.1734  0.7506
  260MOL    C2631624   7.422   7.991   6.618 -0.5161  0.5488  0.0047
  260MOL    C2731625   7.502   0.115   6.600 -0.0988 -0.3529  0.6006
  260MOL    F2831626   7.481   0.181   6.713 -0.2378 -0.5016 -0.1656
  260MOL    H2931627   7.330   0.014   6.671 -0.3436 -1.4523  1.3225
  260MOL    H3031628   7.477   7.930   6.689  0.4345 -0.8494 -1.9118
  260MOL    H3131629   7.454   0.178   6.526  1.5448 -0.1888 -0.3446
  260MOL    C3231630   7.653   0.100   6.572  0.4578  0.2827 -0.4530
  260MOL    C3331631   7.715   0.238   6.529  1.2669 -0.0351 -0.2514
  260MOL    F3431632   7.852   0.232   6.516  0.3643  0.4936 -0.0485
  260MOL    H3531633   7.703   0.068   6.664  0.8488  0.7137 -0.5142
  260MOL    H3631634   7.672   0.024   6.496 -0.5216 -0.6341  0.2038
  260MOL    H3731635   7.700   0.317   6.602  1.4858 -0.6528  0.4631
  260MOL    C3831636   7.663   0.274   6.389  0.7071 -0.3953  0.1185
  260MOL    C3931637   7.738   0.372   6.307  0.3363  0.4898  0.6277
  260MOL    F4031638   7.673   0.383   6.191 -0.1314  0.1936 -0.7418
  260MOL    H4131639   7.651   0.178   6.339  1.0135 -1.1553  1.4632
  260MOL    H4231640   7.559   0.303   6.396  1.1479  0.9423  1.5317
  260MOL    H4331641   7.842   0.342   6.293  0.3768  1.6128 -1.8172
  260MOL    C4431642   7.732   0.513   6.370 -0.4913 -0.5720 -0.5586
  260MOL    C4531643   7.805   0.622   6.298  0.3167  0.4256  0.4640
  260MOL    F4631644   7.743   0.654   6.184 -0.2904  0.0739 -0.5381
  260MOL    H4731645   7.628   0.543   6.380 -0.1721  1.3988 -2.6749
  260MOL    H4831646   7.768   0.497   6.471 -0.4344 -1.7542 -0.7623
  260MOL    H4931647   7.900   0.590   6.254  1.4646  1.8492  1.8591
  260MOL    C5031648   7.824   0.753   6.374  0.3231  0.3631  0.0077
  260MOL    C5131649   7.921   0.854   6.319 -0.6136  0.0957  0.2647
  260MOL    F5231650   7.904   0.967   6.391 -0.6858  0.2630  0.0018
  260MOL    H5331651   7.725   0.799   6.380  0.7479  1.5197 -1.5933
  260MOL    H5431652   7.847   0.718   6.475  1.2888  0.5357 -0.1455
  260MOL    H5531653   7.896   0.876   6.215  0.4695 -0.6299 -0.1514
  260MOL    C5631654   0.062   0.815   6.319 -0.4884 -0.2118 -0.2931
  260MOL    C5731655   0.165   0.909   6.264  0.0551 -0.3160 -0.4012
  260MOL    F5831656   0.139   0.955   6.151 -0.0389 -0.4281  0.2212
  260MOL    H5931657   0.093   0.766   6.411 -0.2338 -0.1823 -0.3650
  260MOL    H6031658   0.062   0.727   6.255 -0.0373  0.4808 -1.2691
  260MOL    H6131659   0.249   0.841   6.250 -1.2403 -1.8221 -1.0814
  260MOL    C6231660   0.217   1.022   6.356 -0.2090 -0.4530 -0.1492
  260MOL    C6331661   0.298   0.979   6.476 -0.4544  0.5670  1.0002
  260MOL    F6431662   0.407   0.920   6.420  0.1001 -0.2684  0.2682
  260MOL    H6531663   0.290   1.079   6.300 -1.5505  0.5663 -0.9032
  260MOL    H6631664   0.141   1.091   6.393  1.6455  1.4016  0.2572
  260MOL    H6731665   0.243   0.904   6.532 -0.0135 -0.7401 -0.2778
  260MOL    C6831666   0.358   1.080   6.569 -0.1063  0.0385 -0.3419
  260MOL    C6931667   0.425   1.019   6.695 -0.1261  0.8160  0.0469
  260MOL    F7031668   0.519   0.937   6.651  0.1135 -0.8649 -0.1097
  260MOL    H7131669   0.427   1.152   6.526  0.4154 -0.8091 -0.9309
  260MOL    H7231670   0.272   1.137   6.605 -1.2827 -1.5794 -0.5167
  260MOL    H7331671   0.355   0.947   6.738  0.8880  0.6809  1.4894
  260MOL    C7431672   0.481   1.122   6.796  0.2307 -0.6187  0.0067
  260MOL    C7531673   0.536   1.060   6.917  0.0320  0.2924  0.1285
  260MOL    F7631674   0.577   1.153   6.995  0.1779 -0.5065 -0.0734
  260MOL    H7731675   0.564   1.170   6.744  0.8761 -1.4709  0.2489
  260MOL    H7831676   0.409   1.203   6.811  1.9136  1.3054 -2.0336
  260MOL    H7931677   0.614   0.986   6.899  0.3494  1.0562 -1.8616
  260MOL    C8031678   0.425   1.000   7.006  0.1456  0.1043 -0.1629
  260MOL    C8131679   0.466   0.971   7.149  0.0938  0.5193  0.0244
  260MOL    F8231680   0.347   0.955   7.210 -0.2583 -0.2765  0.7625
  260MOL    H8331681   0.341   1.069   7.003  0.0436 -0.0262 -0.4016
  260MOL    H8431682   0.382   0.916   6.951 -0.4977 -0.6401  1.4539
  260MOL    H8531683   0.514   1.058   7.193  0.6421 -0.6697  1.8763
  260MOL    C8631684   0.548   0.840   7.155  0.2877  0.0431 -0.7764
  260MOL    C8731685   0.576   0.796   7.304 -0.8205  0.0491 -0.0906
  260MOL    F8831686   0.467   0.772   7.370  0.3798  0.2485  0.3126
  260MOL    H8931687   0.491   0.758   7.112 -0.7314  1.0043 -1.2781
  260MOL    H9031688   0.637   0.841   7.091 -0.5829  1.3748 -1.9965
  260MOL    H9131689   0.612   0.887   7.353 -0.4696 -0.6155  0.8955
  260MOL    C9231690   0.678   0.679   7.316 -0.0290  0.1414  1.3412
  260MOL    C9331691   0.700   0.623   7.459  0.4802 -0.0315  0.0583
  260MOL    F9431692   0.769   0.514   7.447 -0.2119 -0.3090 -0.2352
  260MOL    H9531693   0.643   0.596   7.254 -0.7440  0.0014  1.9279
  260MOL    H9631694   0.775   0.708   7.275 -0.0006  0.8792  1.9299
  260MOL    H9731695   0.615   0.581   7.513 -1.6238  0.9570 -2.4031
  260MOL    C9831696   0.781   0.709   7.552 -1.3167  0.8933 -0.0878
  260MOL    C9931697   0.938   0.718   7.530  0.1488 -0.3637 -0.3164
  260MOL   F10031698   0.954   0.794   7.419 -0.1917  0.2093  0.7008
  260MOL   H10131699   0.745   0.812   7.557  0.9609  1.6805  1.0993
  260MOL   H10231700   0.765   0.674   7.654 -1.2296  0.8812 -0.0787
  260MOL   H10331701   0.984   0.625   7.497  0.0712  0.0337 -1.5447
  260MOL   C10431702   1.015   0.800   7.634 -0.1148  0.5050 -0.1607
  260MOL   C10531703   1.041   0.738   7.771  0.0157 -0.3644  0.7713
  260MOL   F10631704   1.102   0.622   7.751 -0.0599  0.4950 -0.1901
  260MOL   H10731705   1.107   0.833   7.586  1.4015 -2.6458  0.4556
  260MOL   H10831706   0.956   0.891   7.652 -1.2124  0.6481 -4.0017
  260MOL   H10931707   0.939   0.709   7.795 -0.0316 -0.2448  0.7114
  260MOL   C11031708   1.114   0.830   7.867  0.1314  0.4226  0.0535
  260MOL   C11131709   1.108   0.792   0.009 -1.0187 -0.1783  0.1092
  260MOL   F11231710   1.200   0.877   0.057 -0.5488  0.4601 -0.1265
  260MOL   H11331711   1.219   0.822   7.838  0.8487 -0.7197  2.7557
  260MOL   H11431712   1.080   0.932   7.850 -3.1596  0.0277  3.6387
  260MOL   H11531713   1.159   0.700   0.037  0.4637  0.8926  0.9596
  260MOL   C11631714   0.972   0.826   0.081  0.1627 -0.5472 -0.0490
  260MOL   C11731715   0.862   0.716   0.086 -0.7774 -0.1409 -0.9646
  260MOL   F11831716   0.749   0.750   0.138 -0.2471  0.4811  0.1485
  260MOL   H11931717   0.991   0.842   0.187  0.1209  2.0123 -0.4103
  260MOL   H12031718   0.940   0.927   0.057 -0.1430 -0.8829 -1.0590
  260MOL   H12131719   0.906   0.639   0.149 -0.8890  0.8205  0.3146
  260MOL   H12231720   0.845   0.684   7.986 -0.0397 -0.0130 -1.1307
  261MOL     C131721   1.807   2.462   0.493  0.2761 -0.3266 -0.3066
  261MOL     C231722   1.818   2.533   0.354 -0.4371 -0.0653  0.3083
  261MOL     F331723   1.723   2.486   0.280 -0.9653 -0.1665  0.4276
  261MOL     H431724   1.715   2.495   0.540  1.0244  1.0497  0.2269
  261MOL     H531725   1.890   2.499   0.553 -0.1995  2.4757 -1.2870
  261MOL     H631726   1.911   2.505   0.304  0.4615  1.4902  1.0704
  261MOL     H731727   1.803   2.353   0.493 -1.5191 -0.2774 -0.2531
  261MOL     C831728   1.798   2.684   0.356  0.3140  0.1586  0.3309
  261MOL     C931729   1.906   2.764   0.426 -0.0502  0.2452  0.7683
  261MOL    F1031730   2.019   2.746   0.360 -0.3251  0.3935  0.0695
  261MOL    H1131731   1.782   2.724   0.256  3.3845 -0.8353 -0.6209
  261MOL    H1231732   1.702   2.713   0.399 -0.4405  2.4841 -2.7442
  261MOL    H1331733   1.934   2.732   0.526 -1.0865 -0.4127  0.8627
  261MOL    C1431734   1.874   2.917   0.433  0.4782 -0.3357 -0.0338
  261MOL    C1531735   1.994   3.015   0.448  0.0901  0.0523 -0.3751
  261MOL    F1631736   1.935   3.138   0.434 -0.0896 -0.2444  0.4637
  261MOL    H1731737   1.822   2.933   0.339 -0.3998 -2.6066  0.0302
  261MOL    H1831738   1.802   2.933   0.513 -0.4763 -0.1123 -0.9388
  261MOL    H1931739   2.058   3.010   0.360 -1.7886  0.6304 -1.7948
  261MOL    C2031740   2.065   3.012   0.585 -0.4502  0.1112  0.4612
  261MOL    C2131741   2.192   3.097   0.595  0.1158 -0.4494  0.8240
  261MOL    F2231742   2.172   3.229   0.595 -0.5821  0.0803 -0.4780
  261MOL    H2331743   1.991   3.026   0.664 -1.8196  0.0239 -0.7857
  261MOL    H2431744   2.090   2.907   0.602  0.0017  0.4982  2.2940
  261MOL    H2531745   2.253   3.066   0.511  0.7767 -0.8271  1.4393
  261MOL    C2631746   2.274   3.055   0.716 -0.4834 -0.0310 -0.4282
  261MOL    C2731747   2.420   3.106   0.729 -0.2507 -0.5533 -0.4278
  261MOL    F2831748   2.472   3.025   0.816  0.3523  0.1562 -0.5632
  261MOL    H2931749   2.208   3.079   0.799 -1.4107 -0.5118 -1.0195
  261MOL    H3031750   2.275   2.947   0.703 -1.0835 -0.1433  0.4824
  261MOL    H3131751   2.412   3.206   0.772 -2.9350 -1.2020  0.7303
  261MOL    C3231752   2.506   3.110   0.606  0.3294  0.5848  0.2088
  261MOL    C3331753   2.487   3.237   0.521 -0.0423  0.7579 -0.3437
  261MOL    F3431754   2.526   3.341   0.592  0.0099  0.0822  0.1302
  261MOL    H3531755   2.611   3.107   0.637  1.1548  1.2469 -2.3233
  261MOL    H3631756   2.499   3.019   0.546  3.2049 -0.0698  0.7882
  261MOL    H3731757   2.384   3.256   0.490 -0.2593  0.3735  0.1234
  261MOL    C3831758   2.583   3.233   0.392  0.3880  0.0559 -0.4765
  261MOL    C3931759   2.553   3.131   0.277 -0.1040  0.1200 -0.1290
  261MOL    F4031760   2.421   3.111   0.260  1.0050  0.5831 -0.2189
  261MOL    H4131761   2.570   3.335   0.355  0.2147 -0.3910 -1.6531
  261MOL    H4231762   2.690   3.226   0.412  0.6802  1.8437 -1.2428
  261MOL    H4331763   2.585   3.033   0.311 -0.7106  0.6201  2.0134
  261MOL    C4431764   2.617   3.169   0.141 -0.3778  0.5475  0.8562
  261MOL    C4531765   2.774   3.189   0.146 -0.5729 -0.1006 -0.5529
  261MOL    F4631766   2.819   3.085   0.218 -0.1400  0.2931 -0.4485
  261MOL    H4731767   2.594   3.087   0.074 -2.8159  1.1096  0.9886
  261MOL    H4831768   2.566   3.256   0.099  3.1342  1.9660 -0.6859
  261MOL    H4931769   2.814   3.278   0.194  1.2299 -0.6692 -0.9709
  261MOL    C5031770   2.837   3.195   0.001 -0.2889 -0.7865  0.3294
  261MOL    C5131771   2.994   3.241   7.999 -0.7051 -0.0841 -0.8781
  261MOL    F5231772   3.038   3.228   7.878 -0.3032  0.2209 -0.4322
  261MOL    H5331773   2.841   3.097   7.957 -0.9647 -0.8984  0.5006
  261MOL    H5431774   2.783   3.250   7.926  3.0551  2.6632  0.3011
  261MOL    H5531775   3.061   3.176   0.052  0.2354  2.5249  1.1464
  261MOL    C5631776   3.009   3.385   0.043 -0.6686 -0.0712 -0.0491
  261MOL    C5731777   3.148   3.438   0.022  1.1287  0.7533 -0.2228
  261MOL    F5831778   3.144   3.568   0.042  0.1335 -0.1751  0.2497
  261MOL    H5931779   2.924   3.431   7.996 -1.7550 -2.9376 -0.9411
  261MOL    H6031780   2.985   3.403   0.148 -1.3600 -1.3345  0.0158
  261MOL    H6131781   3.178   3.415   7.923  1.2051 -0.7058  0.1132
  261MOL    C6231782   3.254   3.399   0.119  0.1204  0.4743  0.2401
  261MOL    C6331783   3.393   3.431   0.076  0.0058 -0.2480 -0.2841
  261MOL    F6431784   3.440   3.361   7.974 -0.0732 -0.0503 -0.0505
  261MOL    H6531785   3.246   3.452   0.214 -2.4242 -2.5287  1.7940
  261MOL    H6631786   3.252   3.293   0.145  0.0907 -0.2591 -2.5887
  261MOL    H6731787   3.467   3.397   0.149 -0.2911  1.8662  1.0532
  261MOL    C6831788   3.429   3.582   0.052 -0.3239 -0.4764  0.7364
  261MOL    C6931789   3.585   3.623   0.032 -1.2243 -0.4369 -0.1058
  261MOL    F7031790   3.627   3.563   7.919 -0.4900 -0.1298 -0.0567
  261MOL    H7131791   3.373   3.619   7.969  2.5997 -0.7359 -1.3692
  261MOL    H7231792   3.389   3.632   0.140  1.3166 -0.9506  1.7664
  261MOL    H7331793   3.634   3.580   0.119  0.2549 -2.5717 -1.9633
  261MOL    C7431794   3.606   3.778   0.013  0.2531 -0.0210 -0.4404
  261MOL    C7531795   3.695   3.844   0.115  0.3610 -0.0711  0.7403
  261MOL    F7631796   3.805   3.766   0.124  0.2274  0.2573 -0.1689
  261MOL    H7731797   3.656   3.793   7.921  1.3805  0.7189  0.2554
  261MOL    H7831798   3.515   3.835   7.998 -0.3981 -0.6887  0.6790
  261MOL    H7931799   3.641   3.845   0.210 -1.4666 -3.0284 -0.1948
  261MOL    C8031800   3.727   3.994   0.083  0.1769 -0.3180 -0.9673
  261MOL    C8131801   3.607   4.094   0.094 -0.4812 -0.5545 -0.1101
  261MOL    F8231802   3.551   4.089   0.210  0.3038 -0.5870  0.4868
  261MOL    H8331803   3.802   4.020   0.158 -0.9089 -0.0004  0.0305
  261MOL    H8431804   3.760   4.005   7.983 -0.5854  0.6488 -1.1109
  261MOL    H8531805   3.533   4.053   0.025 -0.6861 -2.8151  1.3963
  261MOL    C8631806   3.637   4.242   0.059 -0.5231  1.3246  0.1632
  261MOL    C8731807   3.706   4.322   0.182 -0.5314  0.0821  0.1948
  261MOL    F8831808   3.838   4.284   0.207 -0.0029 -0.2494 -0.1512
  261MOL    H8931809   3.692   4.242   7.967  1.8436  0.4501  1.4816
  261MOL    H9031810   3.545   4.293   0.033 -0.0546  1.2752 -1.6663
  261MOL    H9131811   3.650   4.313   0.275  0.5561  0.2416  0.8787
  261MOL    C9231812   3.709   4.470   0.141 -0.0763 -0.1170  0.5489
  261MOL    C9331813   3.772   4.567   0.235 -0.3423  0.1977  0.1978
  261MOL    F9431814   3.770   4.686   0.184 -0.7748 -0.0284  0.0152
  261MOL    H9531815   3.768   4.480   0.050 -2.5226  0.0536 -1.0719
  261MOL    H9631816   3.611   4.506   0.110  0.7728 -0.1316 -2.3475
  261MOL    H9731817   3.879   4.545   0.232 -0.4531 -0.1503 -1.6677
  261MOL    C9831818   3.734   4.577   0.382  0.0258  0.5830  0.2427
  261MOL    C9931819   3.785   4.699   0.454 -0.3113  0.4393 -0.8136
  261MOL   F10031820   3.714   4.711   0.568 -0.0620  0.0625 -0.0286
  261MOL   H10131821   3.627   4.597   0.387  0.7463  4.5848  1.1495
  261MOL   H10231822   3.741   4.482   0.435  1.6530 -0.5096 -1.8339
  261MOL   H10331823   3.758   4.789   0.398 -0.4786  2.2708  2.1136
  261MOL   C10431824   3.935   4.690   0.498  0.2113 -0.2643  0.0019
  261MOL   C10531825   3.984   4.819   0.564 -0.8309 -0.1154  0.6288
  261MOL   F10631826   3.934   4.822   0.689 -0.1172  0.5777 -0.3727
  261MOL   H10731827   3.955   4.605   0.563 -0.4693 -0.1027  0.4381
  261MOL   H10831828   3.997   4.674   0.410 -0.4497 -0.4848 -0.4304
  261MOL   H10931829   3.952   4.908   0.510 -0.8397 -1.0696 -0.9404
  261MOL   C11031830   4.131   4.814   0.597 -0.0451  0.2024 -0.3128
  261MOL   C11131831   4.192   4.942   0.653 -0.6384  0.4971 -0.5534
  261MOL   F11231832   4.324   4.922   0.672  0.4840  0.5234  0.0407
  261MOL   H11331833   4.142   4.720   0.652 -0.3164 -0.2055 -0.9489
  261MOL   H11431834   4.193   4.786   0.511 -3.0759  0.3359 -2.6375
  261MOL   H11531835   4.140   4.958   0.748  0.5799  2.8961 -0.2375
  261MOL   C11631836   4.167   5.067   0.564 -0.7027 -0.1872 -0.3921
  261MOL   C11731837   4.225   5.195   0.625  0.0599 -0.1197  0.1217
  261MOL   F11831838   4.245   5.277   0.524  0.2565  0.4250 -0.4163
  261MOL   H11931839   4.206   5.047   0.465  1.4087  0.3279  0.3267
  261MOL   H12031840   4.060   5.072   0.542 -0.2988 -0.9993 -2.7462
  261MOL   H12131841   4.319   5.169   0.673  0.1288 -1.7196 -0.8162
  261MOL   H12231842   4.151   5.242   0.689  0.0789 -1.5105  1.2011
  262MOL     C131843   7.103   4.397   2.032 -0.0317  0.3845  0.0550
  262MOL     C231844   7.254   4.365   2.070 -0.3698  0.4989  0.0686
  262MOL     F331845   7.318   4.362   1.950 -0.2475  0.6106 -0.5331
  262MOL     H431846   7.071   4.327   1.956  1.4656 -0.7190  0.4107
  262MOL     H531847   7.083   4.490   1.980 -0.1390 -0.5891 -1.6688
  262MOL     H631848   7.258   4.267   2.118 -1.0098  0.4052 -0.0721
  262MOL     H731849   7.035   4.401   2.117 -1.5581 -1.4536 -1.0590
  262MOL     C831850   7.303   4.463   2.176 -0.0116  0.0300 -0.2432
  262MOL     C931851   7.439   4.448   2.237 -1.0590  0.6302 -0.4865
  262MOL    F1031852   7.433   4.347   2.327 -0.2471 -0.1474  0.3867
  262MOL    H1131853   7.302   4.560   2.126 -2.6258 -0.2841 -0.8721
  262MOL    H1231854   7.236   4.480   2.260  0.8525 -0.5735  0.5691
  262MOL    H1331855   7.449   4.531   2.307 -0.6331 -0.9948  1.4382
  262MOL    C1431856   7.553   4.425   2.138  1.0259  0.1297  0.3645
  262MOL    C1531857   7.581   4.539   2.047 -0.1759  0.2906 -0.1792
  262MOL    F1631858   7.596   4.651   2.116  0.0040 -0.0813 -0.4547
  262MOL    H1731859   7.644   4.409   2.196  0.3974  3.0776  2.2137
  262MOL    H1831860   7.543   4.329   2.086 -1.3416  1.0656 -0.9610
  262MOL    H1931861   7.502   4.569   1.979 -0.1312  0.4089 -0.1799
  262MOL    C2031862   7.696   4.506   1.951 -0.8864  0.2713  0.3334
  262MOL    C2131863   7.735   4.615   1.845  0.7988  0.1636  0.2297
  262MOL    F2231864   7.766   4.720   1.922 -0.0629 -0.5537  0.5187
  262MOL    H2331865   7.782   4.490   2.017 -0.1328 -0.6548 -0.8622
  262MOL    H2431866   7.674   4.417   1.893  2.2648  0.0393 -0.6079
  262MOL    H2531867   7.651   4.643   1.781  1.1312  1.2386  0.2614
  262MOL    C2631868   7.848   4.571   1.753  1.1436 -1.0587 -0.3573
  262MOL    C2731869   7.815   4.464   1.645 -0.6637 -0.0991  0.8046
  262MOL    F2831870   7.719   4.521   1.571  0.4755  0.1180  0.1269
  262MOL    H2931871   7.884   4.654   1.692 -1.1589  0.9720  0.9626
  262MOL    H3031872   7.932   4.538   1.815  0.7582  1.3769  1.5391
  262MOL    H3131873   7.778   4.377   1.701  0.7355 -1.7713 -0.7917
  262MOL    C3231874   7.935   4.425   1.558  0.0746  0.0934 -0.3431
  262MOL    C3331875   0.042   4.342   1.622  0.4928 -0.4994 -0.1686
  262MOL    F3431876   7.995   4.221   1.651 -0.2106 -0.4551 -0.4227
  262MOL    H3531877   7.903   4.371   1.468 -0.7061  1.1583 -0.7181
  262MOL    H3631878   7.977   4.520   1.526  1.5633 -0.6169 -0.5464
  262MOL    H3731879   0.072   4.387   1.717  2.5105 -1.7435 -0.1871
  262MOL    C3831880   0.172   4.324   1.534  0.2533 -0.0243 -0.1542
  262MOL    C3931881   0.247   4.450   1.498  0.0783 -0.7748 -0.2995
  262MOL    F4031882   0.271   4.527   1.602 -0.1870  0.0872 -0.0098
  262MOL    H4131883   0.238   4.267   1.599 -1.1737 -1.4567  0.0506
  262MOL    H4231884   0.158   4.254   1.451 -0.2259  0.1288 -0.2005
  262MOL    H4331885   0.181   4.508   1.434  1.3210 -0.9362 -1.7602
  262MOL    C4431886   0.381   4.426   1.434 -0.7713  0.8623 -0.1689
  262MOL    C4531887   0.367   4.355   1.298  0.9803 -0.3026  0.5370
  262MOL    F4631888   0.271   4.417   1.231 -0.2180  0.2827  0.6365
  262MOL    H4731889   0.434   4.518   1.408 -0.7311  1.3134  1.4672
  262MOL    H4831890   0.445   4.373   1.505 -0.0912 -0.6375 -1.8551
  262MOL    H4931891   0.325   4.255   1.312 -0.6628  0.2577 -0.1979
  262MOL    C5031892   0.498   4.337   1.224 -0.1930 -0.1770 -0.8005
  262MOL    C5131893   0.605   4.261   1.297 -0.0288 -0.0069  0.3100
  262MOL    F5231894   0.555   4.148   1.353 -0.5072 -0.4124  0.3120
  262MOL    H5331895   0.488   4.287   1.128  1.2960 -1.1270 -0.4764
  262MOL    H5431896   0.526   4.441   1.206  0.9913 -0.2856  0.3162
  262MOL    H5531897   0.635   4.310   1.390 -1.1174 -0.7710  1.0765
  262MOL    C5631898   0.734   4.239   1.209  1.0190  0.1081  0.0429
  262MOL    C5731899   0.846   4.168   1.287  1.0347 -0.0343  0.2792
  262MOL    F5831900   0.829   4.035   1.316  0.1095  0.9778 -0.0041
  262MOL    H5931901   0.720   4.173   1.123 -1.4226 -0.1113  0.5737
  262MOL    H6031902   0.770   4.335   1.174  0.1508  0.3186 -0.2843
  262MOL    H6131903   0.852   4.220   1.383 -1.7740 -2.1431  1.6841
  262MOL    C6231904   0.986   4.178   1.213  0.8460  0.4367  0.3641
  262MOL    C6331905   1.108   4.161   1.298  0.1151 -0.1674 -0.1863
  262MOL    F6431906   1.121   4.037   1.326 -0.1649  0.0729 -0.4135
  262MOL    H6531907   0.976   4.114   1.125 -2.0133  1.4627 -0.0970
  262MOL    H6631908   1.004   4.273   1.163 -0.6481 -0.3473 -1.7276
  262MOL    H6731909   1.087   4.208   1.394  2.4778  0.6099 -0.0201
  262MOL    C6831910   1.241   4.203   1.232 -0.4950 -0.8162  0.3399
  262MOL    C6931911   1.248   4.354   1.192 -0.4251  0.1882 -0.2856
  262MOL    F7031912   1.228   4.420   1.307 -0.3679  0.0867  0.0323
  262MOL    H7131913   1.326   4.174   1.293 -0.6007 -2.9477 -0.4868
  262MOL    H7231914   1.272   4.150   1.142  2.6998  2.5418 -0.6440
  262MOL    H7331915   1.175   4.391   1.120 -1.9129 -0.1905  1.0117
  262MOL    C7431916   1.385   4.394   1.141 -0.4424  0.8579  0.0071
  262MOL    C7531917   1.414   4.543   1.115 -0.2936 -0.7413  0.0036
  262MOL    F7631918   1.347   4.616   1.197  0.3907 -0.4675  0.0373
  262MOL    H7731919   1.454   4.366   1.221  2.0776  1.0686 -2.0439
  262MOL    H7831920   1.404   4.334   1.052 -0.1990 -0.3604  0.8675
  262MOL    H7931921   1.385   4.566   1.013 -0.0707  4.4050  0.9564
  262MOL    C8031922   1.566   4.573   1.124  0.0071 -0.1250 -0.2272
  262MOL    C8131923   1.597   4.717   1.067 -0.0157  0.7483  0.2886
  262MOL    F8231924   1.505   4.808   1.101 -0.0165  0.3407 -1.0243
  262MOL    H8331925   1.604   4.564   1.226 -0.8816 -2.0453 -0.0409
  262MOL    H8431926   1.626   4.499   1.072  0.5612 -0.3656  0.7450
  262MOL    H8531927   1.596   4.713   0.958  1.9123 -2.2449  0.3385
  262MOL    C8631928   1.735   4.757   1.113 -0.0162  0.7345  0.0609
  262MOL    C8731929   1.790   4.884   1.053  0.0194 -0.0038  0.4308
  262MOL    F8831930   1.726   4.987   1.101  0.2654 -0.2173 -0.5735
  262MOL    H8931931   1.751   4.785   1.217 -2.5158 -0.0472  0.6771
  262MOL    H9031932   1.801   4.673   1.091 -0.9022 -0.0449  0.3535
  262MOL    H9131933   1.765   4.885   0.947  1.7849  0.8204  0.0133
  262MOL    C9231934   1.939   4.902   1.077  0.7297  0.5303 -0.8502
  262MOL    C9331935   2.005   5.027   1.004  0.2323  0.1087  0.0981
  262MOL    F9431936   2.124   5.035   1.052  0.1393 -0.1361 -0.0704
  262MOL    H9531937   1.955   4.910   1.184  2.9521  1.5372 -1.2358
  262MOL    H9631938   1.987   4.810   1.043  0.9706 -0.6514  2.5151
  262MOL    H9731939   1.947   5.117   1.026 -0.4594 -0.7264  1.7702
  262MOL    C9831940   2.019   5.011   0.851  0.6283 -0.0580  0.5321
  262MOL    C9931941   2.080   5.124   0.769  0.0946 -0.0389 -0.2151
  262MOL   F10031942   2.012   5.225   0.795  0.4105 -0.3466  0.0318
  262MOL   H10131943   2.073   4.920   0.824  0.2794 -0.2254  0.4035
  262MOL   H10231944   1.929   4.991   0.793  1.8809 -0.9279 -1.1687
  262MOL   H10331945   2.068   5.128   0.661  0.1205  0.3416 -0.2035
  262MOL   C10431946   2.229   5.150   0.809  0.5349  1.2830 -0.5550
  262MOL   C10531947   2.287   5.245   0.711  0.8277  0.4798 -0.2706
  262MOL   F10631948   2.227   5.364   0.722 -0.0607  0.4258  0.0961
  262MOL   H10731949   2.242   5.178   0.914 -0.2657  0.0605 -0.1173
  262MOL   H10831950   2.281   5.054   0.809  0.6150  1.3186 -2.0258
  262MOL   H10931951   2.275   5.203   0.611 -1.9149  4.3678 -1.7364
  262MOL   C11031952   2.429   5.274   0.744 -0.2452  0.1460  0.1458
  262MOL   C11131953   2.504   5.362   0.639  0.8183 -0.0191  0.3133
  262MOL   F11231954   2.615   5.383   0.692 -0.0469 -0.1646 -0.3348
  262MOL   H11331955   2.440   5.337   0.832  1.9676 -0.1611  0.1220
  262MOL   H11431956   2.482   5.181   0.765  1.2478  1.1543  0.8956
  262MOL   H11531957   2.455   5.458   0.630  1.7528  0.5738  1.3250
  262MOL   C11631958   2.521   5.297   0.505  0.2127  0.1249  0.0032
  262MOL   C11731959   2.612   5.169   0.498  0.3576 -0.3965  0.6212
  262MOL   F11831960   2.631   5.134   0.381  0.1569 -0.0487  0.1728
  262MOL   H11931961   2.424   5.281   0.458  1.4085  2.1820 -3.3711
  262MOL   H12031962   2.578   5.366   0.442  0.3632  1.0493  1.1431
  262MOL   H12131963   2.568   5.087   0.556  2.2371 -1.6883  0.2724
  262MOL   H12231964   2.711   5.182   0.543  0.1003 -0.0069  1.0847
  263MOL     C131965   5.262   6.394   7.114  0.2118  0.3076 -0.0707
  263MOL     C231966   5.322   6.427   6.979 -0.1024  0.2750 -0.0589
  263MOL     F331967   5.282   6.342   6.889 -0.1213  0.2709 -0.0558
  263MOL     H431968   5.157   6.422   7.127 -0.0963 -0.5368 -0.7138
  263MOL     H531969   5.312   6.443   7.198 -1.2206 -0.0303  1.0021
  263MOL     H631970   5.430   6.414   6.991 -0.1449  0.9614  1.2604
  263MOL     H731971   5.262   6.289   7.143  1.1105  1.0710  2.9557
  263MOL     C831972   5.294   6.566   6.918  0.8803 -0.7458  0.1738
  263MOL     C931973   5.333   6.679   7.007  1.2958 -0.4800  0.1805
  263MOL    F1031974   5.246   6.683   7.108  0.6535 -0.5393  0.0193
  263MOL    H1131975   5.334   6.573   6.817 -0.8875  2.9925 -0.3523
  263MOL    H1231976   5.187   6.569   6.899  0.9319  3.3350  0.1859
  263MOL    H1331977   5.318   6.766   6.943  1.6464 -0.5604 -0.0099
  263MOL    C1431978   5.476   6.680   7.055  0.2343 -0.5297 -0.2761
  263MOL    C1531979   5.586   6.699   6.944  0.4599 -0.6918 -0.1357
  263MOL    F1631980   5.576   6.820   6.897  0.5394 -0.5358  1.0041
  263MOL    H1731981   5.489   6.772   7.113  3.5306 -1.1678  0.0542
  263MOL    H1831982   5.482   6.589   7.114  0.4041  0.7740  1.7845
  263MOL    H1931983   5.571   6.636   6.856 -0.4009  1.1475 -1.3276
  263MOL    C2031984   5.731   6.691   6.999 -0.0640 -0.6147 -0.2590
  263MOL    C2131985   5.774   6.554   7.043 -0.2004  0.2170 -0.2567
  263MOL    F2231986   5.749   6.476   6.937  0.8800  0.3476 -0.0193
  263MOL    H2331987   5.791   6.722   6.913 -0.6084  1.0142 -0.0768
  263MOL    H2431988   5.755   6.771   7.070 -1.7835 -0.7720  0.5338
  263MOL    H2531989   5.716   6.510   7.124 -0.0276 -2.0940 -1.3547
  263MOL    C2631990   5.930   6.549   7.064  0.0270  1.1066  0.0724
  263MOL    C2731991   5.956   6.418   7.143  0.2380 -0.0197 -0.6511
  263MOL    F2831992   5.899   6.318   7.081 -0.1963 -0.3273  0.1441
  263MOL    H2931993   5.984   6.552   6.969 -0.1217 -1.2423 -0.1196
  263MOL    H3031994   5.962   6.639   7.117 -0.7203  1.5210 -0.1746
  263MOL    H3131995   5.914   6.430   7.243  0.8751 -0.0530 -0.3765
  263MOL    C3231996   6.107   6.394   7.166 -0.8054  0.5026 -0.6324
  263MOL    C3331997   6.128   6.267   7.257  0.2301 -1.2010 -0.1214
  263MOL    F3431998   6.254   6.235   7.244 -0.3913  0.4402  0.0973
  263MOL    H3531999   6.150   6.375   7.068 -0.9302  1.3381 -0.8561
  263MOL    H3632000   6.143   6.491   7.200 -0.8552  0.6768 -1.0789
  263MOL    H3732001   6.062   6.185   7.230  1.7483 -2.5659  0.2136
  263MOL    C3832002   6.100   6.302   7.409  0.0141  0.3067  0.1368
  263MOL    C3932003   6.076   6.190   7.508 -0.0540 -0.0130 -0.8304
  263MOL    F4032004   5.990   6.098   7.458  0.0147 -0.2501 -0.1433
  263MOL    H4132005   6.180   6.364   7.451 -1.0535  1.2020  0.8773
  263MOL    H4232006   6.011   6.366   7.414 -1.4632 -1.8079  1.6402
  263MOL    H4332007   6.040   6.223   7.606  0.4165 -3.7069  0.6579
  263MOL    C4432008   6.201   6.105   7.546  0.0122  0.1855 -0.4110
  263MOL    C4532009   6.313   6.187   7.619 -0.2389 -0.0099  0.0645
  263MOL    F4632010   6.247   6.257   7.713 -0.3323  0.7744  0.0032
  263MOL    H4732011   6.151   6.028   7.605 -0.0111 -3.0498 -4.4045
  263MOL    H4832012   6.248   6.051   7.464 -0.3892 -1.8860  0.6777
  263MOL    H4932013   6.366   6.254   7.551  1.0785  1.0351  2.0515
  263MOL    C5032014   6.410   6.091   7.689  0.1602  0.1846 -0.1999
  263MOL    C5132015   6.527   6.166   7.754  0.5145  0.1264  0.7638
  263MOL    F5232016   6.482   6.238   7.855  0.1504 -0.2347  0.1881
  263MOL    H5332017   6.363   6.022   7.759  0.5559 -1.4034 -1.4618
  263MOL    H5432018   6.451   6.028   7.610 -4.2148 -1.6708 -1.1060
  263MOL    H5532019   6.564   6.233   7.677  1.1825  1.1978  2.0032
  263MOL    C5632020   6.638   6.061   7.799  0.4666  0.8063 -0.3543
  263MOL    C5732021   6.764   6.126   7.847  0.3527 -0.2162  0.9161
  263MOL    F5832022   6.739   6.221   7.941 -0.3741  0.0614 -0.3067
  263MOL    H5932023   6.586   5.987   7.859  2.1237 -1.6677 -1.8642
  263MOL    H6032024   6.682   6.006   7.716 -0.4265 -2.9900  1.5846
  263MOL    H6132025   6.795   6.176   7.755 -0.0955  0.0388  0.9041
  263MOL    C6232026   6.877   6.031   7.891 -0.1528 -0.1535  0.0778
  263MOL    C6332027   6.941   5.956   7.776  0.2091 -0.3041 -0.1023
  263MOL    F6432028   6.977   6.039   7.681 -0.1321 -0.0905 -0.2205
  263MOL    H6532029   6.949   6.085   7.952 -0.0241  0.6119 -0.7412
  263MOL    H6632030   6.820   5.959   7.950  0.0314 -0.7401 -0.4573
  263MOL    H6732031   6.872   5.883   7.734 -2.0893  2.2192 -0.9173
  263MOL    C6832032   7.064   5.870   7.823  0.2141 -0.9124 -0.2945
  263MOL    C6932033   7.130   5.793   7.712 -0.7398 -0.0300  0.2246
  263MOL    F7032034   7.238   5.746   7.770  0.2106  0.1484  0.0380
  263MOL    H7132035   7.130   5.943   7.870 -1.6213 -0.0578  1.0430
  263MOL    H7232036   7.025   5.817   7.910 -0.6819 -3.2411 -2.0716
  263MOL    H7332037   7.165   5.856   7.631 -1.8729 -0.1766 -0.3745
  263MOL    C7432038   7.043   5.672   7.656  0.2510  0.9858 -0.4709
  263MOL    C7532039   7.118   5.587   7.554 -0.2176  0.4943  0.5179
  263MOL    F7632040   7.142   5.668   7.446  0.4391  0.2862  1.1285
  263MOL    H7732041   6.995   5.601   7.725 -0.4471  0.8351 -1.1068
  263MOL    H7832042   6.953   5.716   7.613 -1.6352 -0.7701  1.5142
  263MOL    H7932043   7.050   5.510   7.517 -0.5300  0.6429  0.7774
  263MOL    C8032044   7.255   5.524   7.588 -0.5901 -0.1546  0.0007
  263MOL    C8132045   7.248   5.433   7.715  0.1185 -0.1341  0.7098
  263MOL    F8232046   7.155   5.345   7.684  0.0636  0.2368  0.1978
  263MOL    H8332047   7.289   5.467   7.502 -0.8655  0.0590 -0.2491
  263MOL    H8432048   7.327   5.606   7.594 -0.4829 -0.1736 -0.9470
  263MOL    H8532049   7.220   5.493   7.802 -1.7493 -0.8796  0.6612
  263MOL    C8632050   7.381   5.364   7.753 -0.5112 -0.8174  0.3286
  263MOL    C8732051   7.490   5.465   7.802  0.0226  0.1486  0.1076
  263MOL    F8832052   7.467   5.519   7.924 -0.1011  0.0214  0.9556
  263MOL    H8932053   7.358   5.289   7.829 -0.8374  0.1823  1.2228
  263MOL    H9032054   7.426   5.308   7.672  1.1000 -0.1645  0.7602
  263MOL    H9132055   7.477   5.554   7.740  2.2809 -0.7648 -1.7394
  263MOL    C9232056   7.632   5.422   7.794 -1.0330  0.3903  0.2887
  263MOL    C9332057   7.671   5.302   7.883 -0.6534  0.5252  0.1338
  263MOL    F9432058   7.619   5.194   7.824 -0.0039  0.5225 -0.2966
  263MOL    H9532059   7.656   5.391   7.692  1.2183  2.3223  0.1656
  263MOL    H9632060   7.691   5.509   7.823 -0.2589 -0.3077  0.8348
  263MOL    H9732061   7.625   5.318   7.981 -1.4631 -0.6402 -0.0412
  263MOL    C9832062   7.821   5.284   7.901  0.2970  0.3886  0.3977
  263MOL    C9932063   7.871   5.197   0.013 -0.1093  0.0905 -0.3698
  263MOL   F10032064   7.822   5.238   0.130 -0.3153  0.1198  0.2330
  263MOL   H10132065   7.860   5.245   7.807 -2.6943  1.3294 -1.3054
  263MOL   H10232066   7.860   5.386   7.908 -0.2850  0.5588  1.2145
  263MOL   H10332067   7.977   5.220   0.019  0.2880 -1.6202 -0.5282
  263MOL   C10432068   7.843   5.046   0.001  0.7832 -0.0188  0.6620
  263MOL   C10532069   7.923   4.955   0.098  0.7977 -0.3757 -0.1018
  263MOL   F10632070   0.045   5.012   0.114 -0.2175  0.0867 -0.2016
  263MOL   H10732071   7.741   5.007   0.005  0.6886  0.1607  0.0367
  263MOL   H10832072   7.875   5.025   7.902  1.5739 -2.3888  1.3666
  263MOL   H10932073   7.948   4.859   0.053 -1.1763 -1.3348  0.7753
  263MOL   C11032074   7.864   4.931   0.239 -0.0004 -0.9325 -0.5619
  263MOL   C11132075   7.726   4.865   0.231 -0.4060  0.2137 -0.0124
  263MOL   F11232076   7.736   4.763   0.143  0.2725  0.2024  0.0250
  263MOL   H11332077   7.929   4.863   0.293  0.9044  0.4073  0.0758
  263MOL   H11432078   7.857   5.022   0.299 -0.5508 -0.7134 -0.9516
  263MOL   H11532079   7.653   4.936   0.193 -0.0791 -0.4596 -1.9373
  263MOL   C11632080   7.676   4.808   0.369 -0.1496  0.0863  0.6835
  263MOL   C11732081   7.541   4.736   0.350  0.4551  0.3573  0.1750
  263MOL   F11832082   7.505   4.706   0.474  0.3124  0.1696 -0.1623
  263MOL   H11932083   7.756   4.740   0.398  0.2491 -0.5246 -1.7822
  263MOL   H12032084   7.669   4.877   0.453  1.8041 -0.6541  1.4890
  263MOL   H12132085   7.549   4.646   0.290  0.7693 -1.5481  2.9832
  263MOL   H12232086   7.462   4.802   0.314 -0.6859 -1.8222 -1.3716
  264MOL     C132087   0.820   0.277   5.428  0.2313 -0.8811 -0.0261
  264MOL     C232088   0.920   0.323   5.543  0.3667  0.2293  0.6146
  264MOL     F332089   1.020   0.400   5.495 -0.2474  0.0330  0.4272
  264MOL     H432090   0.757   0.359   5.392 -0.5885 -1.5712 -0.1890
  264MOL     H532091   0.743   0.214   5.473 -2.0349  1.7503 -0.0941
  264MOL     H632092   0.961   0.233   5.589  1.5861  2.0182  3.1090
  264MOL     H732093   0.879   0.225   5.353  0.2336  0.1361 -0.7326
  264MOL     C832094   0.846   0.376   5.663 -0.1280  0.2430 -0.2386
  264MOL     C932095   0.935   0.417   5.787  0.2879  0.1440 -0.2475
  264MOL    F1032096   1.019   0.514   5.768  1.0944 -0.1945 -0.3440
  264MOL    H1132097   0.798   0.463   5.620  0.0579  0.6908  0.4451
  264MOL    H1232098   0.764   0.316   5.702  0.3497  0.0949  0.5700
  264MOL    H1332099   0.997   0.338   5.829 -1.0631 -1.7808 -1.8036
  264MOL    C1432100   0.850   0.482   5.901  0.0209  0.2671  0.3114
  264MOL    C1532101   0.786   0.625   5.875 -0.0455  0.4273 -0.1308
  264MOL    F1632102   0.696   0.613   5.780  0.3818  0.3556  0.0105
  264MOL    H1732103   0.772   0.413   5.932  0.2150 -0.7465 -1.4347
  264MOL    H1832104   0.924   0.494   5.980 -0.1053  3.0944  0.0709
  264MOL    H1932105   0.857   0.699   5.839  0.4659 -0.3362 -0.7046
  264MOL    C2032106   0.707   0.679   6.003  0.6605  0.2450  0.1602
  264MOL    C2132107   0.784   0.747   6.101  0.1134 -0.1604  0.3441
  264MOL    F2232108   0.853   0.854   6.047  0.6218  0.2108  0.2062
  264MOL    H2332109   0.628   0.745   5.966  1.3855  0.4839 -0.9825
  264MOL    H2432110   0.634   0.605   6.038  0.2949 -0.5762 -2.2251
  264MOL    H2532111   0.859   0.674   6.132  1.6825  1.0992 -0.4182
  264MOL    C2632112   0.705   0.783   6.234  0.6166  0.6946  0.4832
  264MOL    C2732113   0.787   0.841   6.351 -0.0272 -0.5457 -0.4077
  264MOL    F2832114   0.855   0.750   6.412  0.1898  0.5492  0.6501
  264MOL    H2932115   0.637   0.860   6.198  0.6590  1.0598  1.1823
  264MOL    H3032116   0.641   0.704   6.272 -0.2181  1.3200  0.3921
  264MOL    H3132117   0.716   0.881   6.424  1.9613 -1.0573  1.8545
  264MOL    C3232118   0.888   0.953   6.313  0.3410  0.5419  1.4230
  264MOL    C3332119   0.825   1.087   6.284  0.6928 -0.1838 -0.5999
  264MOL    F3432120   0.768   1.126   6.398 -0.7113  0.4642  0.0897
  264MOL    H3532121   0.946   0.971   6.403  0.5179  0.5768  1.3035
  264MOL    H3632122   0.954   0.920   6.232 -0.0518 -0.0523  1.3422
  264MOL    H3732123   0.742   1.086   6.213 -1.6122 -0.7177  2.0058
  264MOL    C3832124   0.917   1.202   6.235 -0.4168 -0.4014  0.0327
  264MOL    C3932125   0.975   1.185   6.094  0.8693 -0.0355  0.4427
  264MOL    F4032126   0.877   1.218   6.008 -0.6452 -0.3055 -0.3032
  264MOL    H4132127   0.868   1.299   6.246  0.2816 -0.1539  0.9633
  264MOL    H4232128   1.006   1.206   6.298  1.3488  1.8283 -2.4845
  264MOL    H4332129   1.000   1.082   6.068 -0.8497 -0.2143 -0.5626
  264MOL    C4432130   1.091   1.281   6.062 -0.2162 -0.3130 -0.1384
  264MOL    C4532131   1.220   1.242   6.136  0.0471 -0.1293 -0.1200
  264MOL    F4632132   1.251   1.115   6.097 -0.4378  0.3123 -0.3381
  264MOL    H4732133   1.118   1.289   5.957  0.4040  0.1132  0.0504
  264MOL    H4832134   1.052   1.380   6.085 -1.9159 -0.8954 -0.4488
  264MOL    H4932135   1.201   1.234   6.243 -0.6369  0.3200 -0.2056
  264MOL    C5032136   1.337   1.341   6.107 -0.3863  0.0518 -0.1484
  264MOL    C5132137   1.405   1.331   5.967  0.1296  0.1766 -0.8983
  264MOL    F5232138   1.316   1.346   5.864  0.0854 -0.0646 -0.5237
  264MOL    H5332139   1.309   1.445   6.119  0.7278  0.4176 -0.6716
  264MOL    H5432140   1.410   1.319   6.186  1.8097  1.7649 -1.6693
  264MOL    H5532141   1.448   1.231   5.959 -0.2706 -0.0688 -0.0116
  264MOL    C5632142   1.522   1.426   5.935 -0.5063 -0.5937 -0.8641
  264MOL    C5732143   1.651   1.396   6.011 -0.6009  0.1867  0.4513
  264MOL    F5832144   1.707   1.279   5.961  0.0124 -0.0196  0.0182
  264MOL    H5932145   1.547   1.416   5.830 -1.2704 -1.9056 -0.9335
  264MOL    H6032146   1.482   1.523   5.966  0.7026 -0.4424  0.2939
  264MOL    H6132147   1.639   1.382   6.119  0.3228  0.5876  0.6205
  264MOL    C6232148   1.756   1.508   5.995  0.8269 -0.4229 -0.0551
  264MOL    C6332149   1.718   1.655   6.042 -0.2654  0.0783 -0.2173
  264MOL    F6432150   1.618   1.713   5.963 -0.0323 -0.6120  0.0262
  264MOL    H6532151   1.836   1.494   6.069 -0.0003  2.3889  1.4328
  264MOL    H6632152   1.788   1.514   5.891 -0.3697 -0.1224 -0.4115
  264MOL    H6732153   1.795   1.730   6.021 -2.8492  2.4194 -1.7608
  264MOL    C6832154   1.656   1.646   6.183 -0.1796 -0.3809 -0.7618
  264MOL    C6932155   1.594   1.776   6.250  0.4936  0.1528 -0.3463
  264MOL    F7032156   1.508   1.735   6.343 -0.0335 -0.3381 -0.0782
  264MOL    H7132157   1.570   1.582   6.165 -0.2825 -0.1725 -1.0132
  264MOL    H7232158   1.718   1.592   6.255  0.8304  2.4407  0.5878
  264MOL    H7332159   1.539   1.818   6.166  0.9287  0.5570 -0.4371
  264MOL    C7432160   1.708   1.853   6.311 -0.0964  0.2043 -0.4655
  264MOL    C7532161   1.663   1.996   6.357  1.1905 -0.1094  0.3151
  264MOL    F7632162   1.770   2.046   6.415 -0.2153  0.3176  0.0725
  264MOL    H7732163   1.746   1.801   6.399  0.4404 -1.2823 -1.5542
  264MOL    H7832164   1.786   1.865   6.236 -1.6851 -0.6241 -2.2898
  264MOL    H7932165   1.590   1.987   6.437  0.1565 -2.7479 -0.8499
  264MOL    C8032166   1.622   2.094   6.240  0.3634 -0.0290  0.4875
  264MOL    C8132167   1.640   2.245   6.270 -0.0029  0.0129  0.6344
  264MOL    F8232168   1.764   2.279   6.279  0.3212 -0.2271 -0.0737
  264MOL    H8332169   1.675   2.067   6.149 -2.1488 -0.2933 -0.9556
  264MOL    H8432170   1.519   2.069   6.212  1.6427 -3.0989 -1.7375
  264MOL    H8532171   1.595   2.255   6.369 -1.9649 -0.5191 -0.1734
  264MOL    C8632172   1.567   2.330   6.167  0.2086 -0.5273 -0.3798
  264MOL    C8732173   1.641   2.339   6.025 -0.0370 -0.2953 -0.2620
  264MOL    F8832174   1.626   2.233   5.954 -0.2757  0.1291  0.2146
  264MOL    H8932175   1.470   2.282   6.167  1.2120 -2.6668 -2.9438
  264MOL    H9032176   1.545   2.430   6.206 -0.9422 -0.4767 -1.1489
  264MOL    H9132177   1.748   2.352   6.045 -0.2208  2.2552 -0.6882
  264MOL    C9232178   1.591   2.454   5.940 -0.3055  0.0216  0.1170
  264MOL    C9332179   1.628   2.594   5.982  0.3399 -0.1539 -0.5241
  264MOL    F9432180   1.763   2.597   5.976 -0.3950  0.6972  0.4817
  264MOL    H9532181   1.638   2.439   5.843  1.2514  0.1171  0.8288
  264MOL    H9632182   1.485   2.437   5.925 -0.4117  1.4708 -0.8462
  264MOL    H9732183   1.592   2.619   6.082  0.2726  1.1078 -0.8526
  264MOL    C9832184   1.566   2.696   5.889 -0.4194 -0.1491  0.0838
  264MOL    C9932185   1.577   2.834   5.959 -0.4588 -0.3505 -0.6059
  264MOL   F10032186   1.700   2.862   5.990  0.2012 -0.8421 -0.3744
  264MOL   H10132187   1.622   2.701   5.796 -1.3375 -1.1951 -0.5336
  264MOL   H10232188   1.462   2.676   5.865 -1.1084  2.4220  0.7414
  264MOL   H10332189   1.530   2.839   6.057 -0.4512  2.9327 -0.7273
  264MOL   C10432190   1.530   2.953   5.868 -0.2515 -0.2970  0.4386
  264MOL   C10532191   1.525   3.089   5.932  0.2612 -0.1248 -0.1124
  264MOL   F10632192   1.644   3.119   5.979  0.0784 -0.1595  0.0779
  264MOL   H10732193   1.594   2.934   5.782  1.3085  0.1446  1.4863
  264MOL   H10832194   1.437   2.911   5.829  1.9949 -3.8994 -1.2794
  264MOL   H10932195   1.459   3.090   6.019 -2.9678 -0.9198 -2.4470
  264MOL   C11032196   1.466   3.181   5.824 -0.5386  0.0163  0.2445
  264MOL   C11132197   1.456   3.331   5.872  0.0028 -0.1023  0.3298
  264MOL   F11232198   1.439   3.402   5.765 -0.2553  0.0108 -0.0049
  264MOL   H11332199   1.532   3.175   5.738  0.3104 -0.7221  0.9345
  264MOL   H11432200   1.367   3.149   5.791  0.4677 -0.3145 -2.5711
  264MOL   H11532201   1.547   3.377   5.912 -0.7306  2.6266 -1.0746
  264MOL   C11632202   1.350   3.367   5.986 -0.1906  0.2395  0.0402
  264MOL   C11732203   1.361   3.504   6.058 -0.3889  0.3223  0.1830
  264MOL   F11832204   1.256   3.534   6.133  0.4209  0.0057  0.7005
  264MOL   H11932205   1.252   3.351   5.941 -0.6940 -0.6624  1.4480
  264MOL   H12032206   1.345   3.292   6.065 -1.3365  0.1679 -0.0862
  264MOL   H12132207   1.365   3.587   5.987 -0.2067 -1.5955 -2.0899
  264MOL   H12232208   1.445   3.509   6.126 -1.5917  0.1671  1.7132
  265MOL     C132209   7.243   0.497   0.239 -0.0911 -0.2835  0.1134
  265MOL     C232210   7.302   0.390   0.149 -0.2644  0.0431 -0.5720
  265MOL     F332211   7.409   0.338   0.213 -0.3592  0.0815  0.3891
  265MOL     H432212   7.216   0.469   0.340  1.3202  1.0765  0.8861
  265MOL     H532213   7.152   0.537   0.195  0.9316  0.6020 -1.2619
  265MOL     H632214   7.346   0.427   0.057 -0.0933  0.3405 -0.3716
  265MOL     H732215   7.314   0.577   0.262  1.2656 -1.3500 -0.3331
  265MOL     C832216   7.208   0.278   0.111  0.0256  0.2708  0.1477
  265MOL     C932217   7.271   0.160   0.027 -0.3221 -0.2399 -0.5448
  265MOL    F1032218   7.384   0.121   0.094 -0.1730 -0.2324 -0.3077
  265MOL    H1132219   7.164   0.240   0.202 -2.9045 -0.2523 -1.4315
  265MOL    H1232220   7.118   0.306   0.056  0.6241 -1.4259 -1.7606
  265MOL    H1332221   7.315   0.197   7.937 -0.9217  3.9530  0.7483
  265MOL    C1432222   7.187   0.028   0.012  0.1239 -0.6269 -0.8058
  265MOL    C1532223   7.059   0.048   7.942 -0.0912  0.1319 -0.6932
  265MOL    F1632224   7.095   0.083   7.824  0.4320  0.4571 -0.0034
  265MOL    H1732225   7.255   7.952   7.983  0.4848 -0.7593  0.2323
  265MOL    H1832226   7.157   7.995   0.111 -0.9257 -1.2114 -1.3349
  265MOL    H1932227   6.995   0.126   7.983 -0.5200 -1.6417  2.1078
  265MOL    C2032228   6.980   7.918   7.931  0.0384 -0.0591 -0.6017
  265MOL    C2132229   6.843   7.934   7.867  0.4123  0.0294 -0.0514
  265MOL    F2232230   6.848   7.956   7.736 -0.3390 -0.3733 -0.2754
  265MOL    H2332231   7.041   7.849   7.873  1.6548  0.2900  0.6478
  265MOL    H2432232   6.973   7.882   0.030  1.5909  0.0694 -0.4423
  265MOL    H2532233   6.791   0.011   7.920 -1.0457 -1.3436  0.6578
  265MOL    C2632234   6.748   7.812   7.882  0.9001  0.2175  0.0709
  265MOL    C2732235   6.593   7.832   7.867 -0.0886  0.0328  0.6661
  265MOL    F2832236   6.532   7.711   7.865  0.4245 -0.1492  0.2866
  265MOL    H2932237   6.769   7.739   7.803  1.0886  0.2289  0.1111
  265MOL    H3032238   6.765   7.770   7.980 -1.6582 -0.3333  0.3056
  265MOL    H3132239   6.583   7.876   7.768  4.7210 -0.6918 -0.2721
  265MOL    C3232240   6.529   7.906   7.980  0.4881 -0.4185  0.4025
  265MOL    C3332241   6.381   7.934   7.970  0.3695 -0.1767  0.0724
  265MOL    F3432242   6.337   7.976   0.086 -0.3916 -0.2533  0.5866
  265MOL    H3532243   6.534   7.848   0.069  1.7129 -0.3606  0.3830
  265MOL    H3632244   6.579   8.002   7.995 -2.0861  1.7072 -3.6128
  265MOL    H3732245   6.330   7.839   7.950 -1.7548  1.0102 -0.3443
  265MOL    C3832246   6.337   0.048   7.872 -0.3386 -0.7039 -0.3506
  265MOL    C3932247   6.192   0.070   7.831 -0.1847  0.4107 -0.2855
  265MOL    F4032248   6.107   0.078   7.935 -0.6151  0.8013 -0.7872
  265MOL    H4132249   6.370   0.144   7.911 -0.6727 -0.2261 -1.2261
  265MOL    H4232250   6.387   0.022   7.779 -0.1407  1.1935 -0.7958
  265MOL    H4332251   6.150   7.991   7.771  1.9958 -0.5083 -0.5984
  265MOL    C4432252   6.180   0.199   7.750 -0.1954  0.7500  0.2236
  265MOL    C4532253   6.051   0.213   7.654 -0.6104 -0.0332 -0.4605
  265MOL    F4632254   5.961   0.254   7.743  0.2983  0.3920  0.3396
  265MOL    H4732255   6.185   0.290   7.809  1.9197  0.8719 -0.0890
  265MOL    H4832256   6.266   0.207   7.683 -1.5955 -2.3245 -2.0637
  265MOL    H4932257   6.009   0.115   7.630 -1.1723 -0.6456  2.7729
  265MOL    C5032258   6.035   0.310   7.538 -0.3230  0.2841  0.3810
  265MOL    C5132259   6.144   0.270   7.439  0.5527 -0.3270 -0.6274
  265MOL    F5232260   6.120   0.142   7.402 -0.1942  0.1289 -0.2653
  265MOL    H5332261   5.932   0.303   7.505  0.0701 -0.6352 -0.6821
  265MOL    H5432262   6.054   0.411   7.573  0.8407  1.0540 -2.3595
  265MOL    H5532263   6.244   0.275   7.483 -0.0857  0.2004  0.7842
  265MOL    C5632264   6.150   0.354   7.310 -0.3954  0.4172  0.1084
  265MOL    C5732265   6.170   0.510   7.327  0.1771  0.4726  0.0292
  265MOL    F5832266   6.290   0.533   7.391  0.1808 -0.0958 -0.1648
  265MOL    H5932267   6.234   0.314   7.255  0.2911  1.4189  0.4218
  265MOL    H6032268   6.067   0.330   7.243  0.6345 -3.0642  0.0047
  265MOL    H6132269   6.097   0.554   7.396 -1.5754 -0.3740 -1.2302
  265MOL    C6232270   6.169   0.599   7.200 -0.2873 -0.4598  0.2263
  265MOL    C6332271   6.016   0.613   7.158  0.2935 -0.7886 -0.0630
  265MOL    F6432272   5.931   0.637   7.260 -0.0037 -0.3289 -0.2184
  265MOL    H6532273   6.226   0.690   7.217  0.4501 -0.9173  0.2091
  265MOL    H6632274   6.226   0.543   7.126  0.3357  2.2276 -1.3749
  265MOL    H6732275   5.987   0.519   7.112 -0.7768 -0.7234  0.4737
  265MOL    C6832276   5.990   0.724   7.061  0.0854 -0.0584  0.6071
  265MOL    C6932277   5.845   0.736   7.002  0.5382 -0.2282 -0.0243
  265MOL    F7032278   5.822   0.627   6.928 -0.1064  0.5999  0.0394
  265MOL    H7132279   6.015   0.820   7.105  2.3102  0.2820 -1.3325
  265MOL    H7232280   6.050   0.718   6.971  2.5355 -1.2365  2.2562
  265MOL    H7332281   5.843   0.810   6.921  2.3023 -0.0878  0.0379
  265MOL    C7432282   5.722   0.750   7.097 -1.2414  0.5667  1.3302
  265MOL    C7532283   5.730   0.875   7.182 -0.3215  0.3172  0.1892
  265MOL    F7632284   5.711   0.981   7.101 -0.4903 -0.6234 -0.1901
  265MOL    H7732285   5.631   0.755   7.037  0.5713  1.3911 -1.4868
  265MOL    H7832286   5.711   0.658   7.155  2.6756 -0.0021  1.3236
  265MOL    H7932287   5.831   0.877   7.221 -0.8649  2.2625  1.5511
  265MOL    C8032288   5.626   0.871   7.296  0.1099 -0.5695  0.7627
  265MOL    C8132289   5.610   1.013   7.364  0.3494  0.5874 -0.4900
  265MOL    F8232290   5.540   1.006   7.482  0.8761  0.1201  0.2138
  265MOL    H8332291   5.527   0.844   7.258 -0.2771  2.2414 -0.3384
  265MOL    H8432292   5.661   0.797   7.368  1.2163 -1.6845 -0.8775
  265MOL    H8532293   5.546   1.074   7.300  1.0418 -1.4357 -3.2282
  265MOL    C8632294   5.743   1.090   7.387  0.2734  0.5306 -0.6569
  265MOL    C8732295   5.733   1.211   7.484  0.2402 -0.3114 -0.2306
  265MOL    F8832296   5.851   1.262   7.501  0.4620 -0.0827 -0.1666
  265MOL    H8932297   5.809   1.014   7.428 -1.9268 -0.7147  0.7056
  265MOL    H9032298   5.789   1.135   7.299 -0.2100  1.6197 -0.3616
  265MOL    H9132299   5.702   1.177   7.583 -1.2917  0.7379 -0.3121
  265MOL    C9232300   5.628   1.320   7.444 -0.3213 -0.1049  0.2538
  265MOL    C9332301   5.599   1.426   7.551  0.1731  0.2922 -0.1296
  265MOL    F9432302   5.692   1.523   7.541  0.1402 -0.0282 -0.3757
  265MOL    H9532303   5.669   1.370   7.356 -0.1428  1.4480  1.1871
  265MOL    H9632304   5.533   1.271   7.422  0.7417 -1.6443 -1.0198
  265MOL    H9732305   5.621   1.381   7.648 -3.7758 -0.1188  0.6523
  265MOL    C9832306   5.455   1.488   7.535  0.3011 -0.1990 -0.3111
  265MOL    C9932307   5.414   1.577   7.651 -0.3018  0.0132 -0.2853
  265MOL   F10032308   5.294   1.637   7.640 -0.2985 -0.0012 -0.3052
  265MOL   H10132309   5.449   1.555   7.450  0.0415  1.4572  0.9880
  265MOL   H10232310   5.376   1.414   7.526  0.6060 -0.3119 -2.0912
  265MOL   H10332311   5.488   1.658   7.651 -0.1602 -0.1125 -0.5694
  265MOL   C10432312   5.403   1.505   7.785  0.1062 -0.1628 -0.2316
  265MOL   C10532313   5.329   1.374   7.784  0.0732  0.5324  0.2026
  265MOL   F10632314   5.408   1.283   7.734 -0.3386 -0.4532  0.0885
  265MOL   H10732315   5.499   1.472   7.825  1.7353  0.7597 -3.1839
  265MOL   H10832316   5.366   1.579   7.855  1.2603  1.0940 -0.9343
  265MOL   H10932317   5.250   1.365   7.710 -0.1234  1.4618  0.2980
  265MOL   C11032318   5.273   1.348   7.924  0.5480  0.2659  0.6835
  265MOL   C11132319   5.219   1.211   7.951  1.0823  0.4547  0.1229
  265MOL   F11232320   5.306   1.110   7.970  0.5925 -0.3280  0.8160
  265MOL   H11332321   5.350   1.376   7.996  0.2537  2.0674  0.3089
  265MOL   H11432322   5.194   1.418   7.952  2.3429  2.0784  1.2496
  265MOL   H11532323   5.152   1.168   7.876  1.5497  0.8295 -0.5127
  265MOL   C11632324   5.134   1.207   0.079  0.4972  0.1968 -0.1524
  265MOL   C11732325   5.217   1.231   0.202 -0.3990  0.1126  0.2182
  265MOL   F11832326   5.141   1.240   0.308  0.0328 -0.4431  0.3983
  265MOL   H11932327   5.053   1.278   0.066  0.1063 -0.3880 -0.8708
  265MOL   H12032328   5.092   1.107   0.088  0.7475  0.1459  0.5551
  265MOL   H12132329   5.271   1.325   0.194 -0.1659 -0.0243  0.1697
  265MOL   H12232330   5.290   1.149   0.205  1.3007  1.5923  0.3989
  266MOL     C132331   2.210   4.102   1.831 -0.0760 -0.2673  0.3037
  266MOL     C232332   2.084   4.013   1.794  0.4343 -0.7957  0.5880
  266MOL     F332333   2.118   3.921   1.709 -0.2878  0.8421  0.9224
  266MOL     H432334   2.264   4.138   1.744 -1.0617  0.5963  0.0390
  266MOL     H532335   2.282   4.041   1.885  1.0344 -0.2678 -1.1519
  266MOL     H632336   2.007   4.077   1.750 -0.4809 -3.2909 -1.5775
  266MOL     H732337   2.193   4.183   1.901  0.1935 -0.6617  0.8251
  266MOL     C832338   2.029   3.954   1.932 -0.2526 -0.0216 -0.1257
  266MOL     C932339   1.893   3.889   1.933 -0.6759  0.0779 -0.4115
  266MOL    F1032340   1.872   3.832   2.053  0.1518 -0.4730 -0.1381
  266MOL    H1132341   2.094   3.871   1.959  2.5623  1.9857 -0.5734
  266MOL    H1232342   2.035   4.037   2.001  3.2126 -1.3977  1.3209
  266MOL    H1332343   1.909   3.796   1.877 -0.7973  0.1032 -0.4864
  266MOL    C1432344   1.772   3.973   1.875  0.0682 -0.1641  0.4765
  266MOL    C1532345   1.739   4.100   1.955 -0.6311  0.0629  0.3997
  266MOL    F1632346   1.837   4.186   1.932  0.0093 -0.1310 -0.2991
  266MOL    H1732347   1.781   3.992   1.768  1.1032 -1.9299  0.2365
  266MOL    H1832348   1.694   3.896   1.881  1.3070 -1.4431  0.5085
  266MOL    H1932349   1.757   4.059   2.054  1.0597 -0.7599 -0.2321
  266MOL    C2032350   1.593   4.168   1.948 -0.5250 -0.1969 -0.2942
  266MOL    C2132351   1.553   4.221   1.808  0.3055 -0.0301  0.2324
  266MOL    F2232352   1.427   4.260   1.817 -0.3064 -0.1851  0.2701
  266MOL    H2332353   1.517   4.093   1.968 -0.1098 -1.2976 -2.7427
  266MOL    H2432354   1.596   4.241   2.029  2.2149 -1.9523  1.2812
  266MOL    H2532355   1.551   4.135   1.740  1.0884 -0.5595  0.8539
  266MOL    C2632356   1.644   4.325   1.738 -0.2249 -0.2045  0.3735
  266MOL    C2732357   1.606   4.348   1.587 -0.1879 -0.0072  0.0754
  266MOL    F2832358   1.607   4.228   1.526  0.1619  0.4127 -0.4111
  266MOL    H2932359   1.635   4.420   1.791  1.5724 -0.0640  0.4782
  266MOL    H3032360   1.747   4.292   1.752  0.3486  0.6257 -1.6967
  266MOL    H3132361   1.685   4.403   1.535 -1.0539  2.2993  1.0905
  266MOL    C3232362   1.457   4.398   1.566 -0.2825  0.4389  0.0006
  266MOL    C3332363   1.420   4.528   1.642 -0.3497  0.0379  0.3358
  266MOL    F3432364   1.512   4.627   1.623 -0.2203 -0.5021 -0.9028
  266MOL    H3532365   1.459   4.415   1.458 -0.7864 -0.8342 -0.2094
  266MOL    H3632366   1.379   4.325   1.585 -0.6200  0.5016 -1.1087
  266MOL    H3732367   1.407   4.514   1.749 -1.2405  0.0999  0.2320
  266MOL    C3832368   1.287   4.589   1.594  0.0305 -0.0778 -0.2501
  266MOL    C3932369   1.154   4.521   1.634 -0.3781  0.0176  0.0141
  266MOL    F4032370   1.139   4.518   1.769 -0.4526 -0.3386 -0.1018
  266MOL    H4132371   1.280   4.694   1.622  0.8861  0.1353 -0.8187
  266MOL    H4232372   1.302   4.602   1.486 -0.7164  0.9854 -0.2360
  266MOL    H4332373   1.148   4.418   1.600  2.2412 -1.0213  2.4940
  266MOL    C4432374   1.024   4.584   1.586 -0.4501 -0.9416 -0.8058
  266MOL    C4532375   0.997   4.573   1.436 -0.4590  0.7939 -0.0880
  266MOL    F4632376   0.961   4.443   1.418  0.3080  0.2429  0.0174
  266MOL    H4732377   0.942   4.538   1.640  2.0342  0.5400  4.5793
  266MOL    H4832378   1.030   4.692   1.600 -0.9203 -1.0614  0.2903
  266MOL    H4932379   1.091   4.584   1.383 -1.2289  0.0532 -1.6272
  266MOL    C5032380   0.882   4.656   1.387 -0.2439 -0.3091 -0.2488
  266MOL    C5132381   0.875   4.680   1.239 -0.8612 -0.2694 -0.7222
  266MOL    F5232382   0.855   4.567   1.177  0.3013  0.0550 -0.5687
  266MOL    H5332383   0.785   4.616   1.416 -0.5008 -0.0023 -0.6768
  266MOL    H5432384   0.895   4.755   1.433  0.6164 -1.2069  1.4833
  266MOL    H5532385   0.966   4.723   1.196  0.5947 -2.3474  0.2301
  266MOL    C5632386   0.760   4.780   1.215 -0.4937  0.0519 -0.2241
  266MOL    C5732387   0.743   4.815   1.060 -0.5561 -0.2372 -0.0257
  266MOL    F5832388   0.696   4.706   0.997  0.0913  0.0350 -0.2415
  266MOL    H5932389   0.663   4.741   1.248 -0.4870 -0.4447 -0.7663
  266MOL    H6032390   0.782   4.864   1.280 -0.2074  1.1573 -1.7420
  266MOL    H6132391   0.836   4.839   1.009 -0.6476  1.1790  0.4557
  266MOL    C6232392   0.651   4.922   1.020  0.4864  0.2457 -0.3157
  266MOL    C6332393   0.639   4.939   0.865 -0.7956 -0.2706 -0.6759
  266MOL    F6432394   0.555   4.848   0.811  0.5103  0.3367  0.2350
  266MOL    H6532395   0.554   4.909   1.068  0.5366  0.7901 -0.0617
  266MOL    H6632396   0.694   5.014   1.059 -1.2996  0.1785  1.9083
  266MOL    H6732397   0.742   4.939   0.828 -0.4879  0.0496  0.1636
  266MOL    C6832398   0.577   5.077   0.823 -0.8344 -0.1756  0.4080
  266MOL    C6932399   0.440   5.107   0.895  0.9751 -0.0408  0.6999
  266MOL    F7032400   0.450   5.135   1.023  0.0147 -0.3892 -0.2311
  266MOL    H7132401   0.645   5.161   0.835 -0.2057 -0.5945 -0.2156
  266MOL    H7232402   0.546   5.069   0.719  2.1255  0.8304 -0.6036
  266MOL    H7332403   0.383   5.014   0.890 -0.1558  0.6484  0.8025
  266MOL    C7432404   0.368   5.228   0.838  0.6290 -0.1569  0.0158
  266MOL    C7532405   0.231   5.251   0.910 -0.1314 -0.0144  0.1052
  266MOL    F7632406   0.181   5.364   0.865 -0.1252  0.1372  0.2278
  266MOL    H7732407   0.425   5.321   0.842 -0.3416  0.5615 -1.9800
  266MOL    H7832408   0.351   5.224   0.731  0.5667  1.6459 -0.0647
  266MOL    H7932409   0.247   5.261   1.018  2.0122 -1.8715 -0.0010
  266MOL    C8032410   0.117   5.150   0.887  0.3883 -0.2177 -0.0856
  266MOL    C8132411   0.079   5.084   0.751  0.2010 -0.0256  0.7074
  266MOL    F8232412   0.183   5.016   0.704 -0.2605 -0.3822 -0.4747
  266MOL    H8332413   0.143   5.067   0.953  0.5628 -1.1848 -1.3646
  266MOL    H8432414   0.025   5.198   0.921 -1.8304 -3.9765 -0.5888
  266MOL    H8532415   0.070   5.158   0.671 -1.1794 -2.2255 -1.2317
  266MOL    C8632416   7.965   4.988   0.742  0.3680 -0.1661 -0.5035
  266MOL    C8732417   7.828   5.031   0.798 -0.0827 -0.6694  0.2199
  266MOL    F8832418   7.773   5.129   0.724 -0.3292 -0.3770  0.1677
  266MOL    H8932419   7.947   4.965   0.637 -1.2240 -1.9807  0.1568
  266MOL    H9032420   7.987   4.892   0.787 -1.3914 -1.8533 -3.1043
  266MOL    H9132421   7.844   5.068   0.899 -2.3818  1.0406 -0.0129
  266MOL    C9232422   7.720   4.911   0.794 -0.1194 -0.1810  0.4548
  266MOL    C9332423   7.753   4.801   0.893  0.0617  0.0829  0.1083
  266MOL    F9432424   7.780   4.848   1.013  0.1174 -0.1865 -0.3440
  266MOL    H9532425   7.625   4.960   0.817 -0.6422 -0.4566 -1.0497
  266MOL    H9632426   7.695   4.866   0.698  1.4229  3.0459 -1.5719
  266MOL    H9732427   7.843   4.753   0.854  1.8532  2.8923  0.6552
  266MOL    C9832428   7.638   4.702   0.917 -0.1672  0.9604  0.5139
  266MOL    C9932429   7.589   4.593   0.817  0.5864  0.2465  0.8553
  266MOL   F10032430   7.694   4.516   0.771  0.6950  0.1585  0.5965
  266MOL   H10132431   7.671   4.646   1.004 -0.5426 -0.4731 -0.2564
  266MOL   H10232432   7.556   4.766   0.951 -1.7140  0.2742 -1.7981
  266MOL   H10332433   7.558   4.645   0.726  0.2461  0.1635  0.9247
  266MOL   C10432434   7.477   4.497   0.873 -0.7822 -0.4724 -0.2045
  266MOL   C10532435   7.329   4.553   0.856  0.0080  0.2654 -0.1157
  266MOL   F10632436   7.304   4.582   0.726 -0.0828  0.5673 -0.0586
  266MOL   H10732437   7.481   4.395   0.833  1.6371 -0.1782 -0.8082
  266MOL   H10832438   7.505   4.480   0.976  2.0776  0.7286 -0.7343
  266MOL   H10932439   7.324   4.647   0.912 -1.2526 -0.7325  1.4820
  266MOL   C11032440   7.222   4.459   0.905 -0.0750  0.7521 -0.3151
  266MOL   C11132441   7.084   4.527   0.900 -0.3790  0.6849  0.1151
  266MOL   F11232442   6.988   4.431   0.901 -0.2513 -0.3389  0.5536
  266MOL   H11332443   7.219   4.374   0.837  0.6111  1.8891 -1.7887
  266MOL   H11432444   7.237   4.412   1.003  0.0205  0.2873 -0.5514
  266MOL   H11532445   7.072   4.577   0.804  2.9258  0.8297 -0.2806
  266MOL   C11632446   7.053   4.623   1.013 -0.0689 -0.3709 -0.3695
  266MOL   C11732447   6.913   4.674   1.017  0.8379 -0.2781  0.5446
  266MOL   F11832448   6.896   4.764   0.927 -0.6168 -0.1028  1.2655
  266MOL   H11932449   7.077   4.571   1.105 -2.1930 -2.2809 -0.8398
  266MOL   H12032450   7.119   4.709   1.014  1.3959 -1.4733  1.0590
  266MOL   H12132451   6.890   4.726   1.110 -0.5505  0.4691 -0.1993
  266MOL   H12232452   6.834   4.601   0.999 -0.0042  0.8446 -0.3588
  267MOL     C132453   3.532   1.625   0.661 -0.0979 -0.2209 -0.1099
  267MOL     C232454   3.674   1.589   0.622 -0.7442 -0.5858 -0.8085
  267MOL     F332455   3.749   1.700   0.595 -0.4372  0.2067  0.1758
  267MOL     H432456   3.485   1.706   0.604  2.6802  0.9956 -0.7726
  267MOL     H532457   3.523   1.660   0.764  1.5954  1.2422 -0.4373
  267MOL     H632458   3.680   1.547   0.522  1.8758  2.4695 -2.0014
  267MOL     H732459   3.466   1.540   0.646 -1.5266  0.8980 -0.3264
  267MOL     C832460   3.737   1.502   0.728 -0.3637 -0.4215  0.0071
  267MOL     C932461   3.846   1.412   0.678  0.2642  0.2211  0.2256
  267MOL    F1032462   3.933   1.481   0.617  0.0398 -0.3151  0.0582
  267MOL    H1132463   3.783   1.575   0.795  1.8841  0.1142 -2.0520
  267MOL    H1232464   3.656   1.451   0.780 -0.6790  0.5603  0.4963
  267MOL    H1332465   3.810   1.342   0.603 -0.7452  2.1545 -1.1134
  267MOL    C1432466   3.920   1.331   0.787  0.5682 -0.0961 -0.6569
  267MOL    C1532467   3.989   1.198   0.734 -0.1219  0.6843  0.2050
  267MOL    F1632468   3.901   1.119   0.668  0.0755 -0.1800  0.3379
  267MOL    H1732469   3.998   1.398   0.823 -1.4117  0.9709  1.7697
  267MOL    H1832470   3.860   1.303   0.873 -1.3508  0.8875 -1.6486
  267MOL    H1932471   4.026   1.144   0.822  0.8676  3.4508  1.5287
  267MOL    C2032472   4.119   1.227   0.652 -0.2359 -0.2352  0.1600
  267MOL    C2132473   4.208   1.101   0.629  0.2619 -0.2419  0.4154
  267MOL    F2232474   4.306   1.131   0.545  0.3463  0.4123 -0.1829
  267MOL    H2332475   4.095   1.268   0.554  0.9724 -0.0217 -0.0616
  267MOL    H2432476   4.191   1.293   0.700 -0.1348  0.8009 -1.3968
  267MOL    H2532477   4.145   1.032   0.574  1.4165 -3.2598  2.7618
  267MOL    C2632478   4.262   1.014   0.748  0.2466 -0.2599 -0.0137
  267MOL    C2732479   4.349   1.095   0.846  0.2093  0.4294 -0.5000
  267MOL    F2832480   4.277   1.193   0.898  0.2313 -0.1140  0.4599
  267MOL    H2932481   4.175   0.977   0.802 -1.4410  0.7155 -1.9781
  267MOL    H3032482   4.312   0.924   0.713 -0.6889 -0.7147 -0.2005
  267MOL    H3132483   4.430   1.143   0.792  0.2796  0.6215 -0.2270
  267MOL    C3232484   4.408   1.017   0.962 -0.4049  0.4938 -0.3027
  267MOL    C3332485   4.501   1.098   1.056 -0.4124 -0.6622 -0.8094
  267MOL    F3432486   4.421   1.178   1.133  0.1699  0.1415 -0.1182
  267MOL    H3532487   4.320   0.989   1.020  0.2028  0.0585  0.4098
  267MOL    H3632488   4.458   0.930   0.920  0.3145  0.7255  0.0632
  267MOL    H3732489   4.564   1.160   0.992  1.6887 -3.0033 -1.0521
  267MOL    C3832490   4.595   1.013   1.140  0.8219  0.7095 -0.5742
  267MOL    C3932491   4.519   0.920   1.242  0.6024 -0.1168 -0.3159
  267MOL    F4032492   4.613   0.844   1.293  0.3116  0.5673  0.1062
  267MOL    H4132493   4.663   0.952   1.082  0.8478  1.2210 -1.0815
  267MOL    H4232494   4.668   1.068   1.199 -1.0630  1.0781  1.5203
  267MOL    H4332495   4.436   0.873   1.189  0.0639  0.9951 -0.4995
  267MOL    C4432496   4.452   1.006   1.359 -0.6084  0.5299  0.7952
  267MOL    C4532497   4.401   0.932   1.483 -0.0509  0.0824  0.2045
  267MOL    F4632498   4.358   1.025   1.569  0.4098 -0.0984  0.1391
  267MOL    H4732499   4.523   1.082   1.391 -1.5941  2.0754 -0.6526
  267MOL    H4832500   4.364   1.054   1.318 -0.3866 -1.1812 -1.7761
  267MOL    H4932501   4.482   0.879   1.533 -0.6507  1.4507  2.6938
  267MOL    C5032502   4.287   0.829   1.440  0.1755 -0.1971  0.4495
  267MOL    C5132503   4.232   0.733   1.546 -0.8966 -0.4116  0.5219
  267MOL    F5232504   4.321   0.635   1.563 -0.0590  0.4688 -0.1470
  267MOL    H5332505   4.209   0.894   1.401  0.3394 -2.5115 -3.9991
  267MOL    H5432506   4.315   0.765   1.356 -0.3716 -0.7390  0.6782
  267MOL    H5532507   4.140   0.682   1.516 -1.0148  1.4060 -2.3292
  267MOL    C5632508   4.196   0.790   1.684  0.5155 -0.2843  0.1965
  267MOL    C5732509   4.087   0.903   1.676  0.3259  0.1678 -0.1556
  267MOL    F5832510   3.975   0.864   1.617 -0.1919 -0.5437  0.1303
  267MOL    H5932511   4.163   0.710   1.750 -0.5610  0.2791  0.3375
  267MOL    H6032512   4.280   0.838   1.734  0.4986 -1.2035  1.1279
  267MOL    H6132513   4.120   0.986   1.614 -2.2320  0.4324 -1.2584
  267MOL    C6232514   4.038   0.956   1.814  0.3075  0.4671  0.2894
  267MOL    C6332515   4.147   1.014   1.904  0.4203 -0.1468  0.2298
  267MOL    F6432516   4.190   1.132   1.852  0.8144 -0.1451 -0.5216
  267MOL    H6532517   3.947   1.015   1.803 -1.0479 -1.8236 -1.4783
  267MOL    H6632518   4.004   0.868   1.869 -0.6655 -0.9883 -2.5151
  267MOL    H6732519   4.230   0.943   1.900  0.1581 -0.4485  0.1184
  267MOL    C6832520   4.103   1.024   2.049 -0.2635 -0.1125  0.0789
  267MOL    C6932521   4.209   1.083   2.151 -0.8009 -0.8792 -0.1949
  267MOL    F7032522   4.251   1.205   2.124 -0.7025 -0.2611 -0.6239
  267MOL    H7132523   4.021   1.095   2.058  0.5364  0.8192  0.0781
  267MOL    H7232524   4.065   0.925   2.076 -0.3997 -0.3046 -0.8060
  267MOL    H7332525   4.299   1.023   2.145 -0.7620 -0.8850  0.3999
  267MOL    C7432526   4.159   1.088   2.296  0.5093  0.7718  0.5231
  267MOL    C7532527   4.271   1.069   2.403 -0.4755 -0.2187 -0.7123
  267MOL    F7632528   4.375   1.148   2.387  0.4968 -0.2867  0.2837
  267MOL    H7732529   4.112   1.185   2.313 -1.5619  0.0478 -0.8878
  267MOL    H7832530   4.071   1.029   2.320  0.0894  1.8132  1.6043
  267MOL    H7932531   4.294   0.964   2.386  1.6195  0.2889 -1.0624
  267MOL    C8032532   4.228   1.084   2.546 -0.6569  0.4143 -0.5648
  267MOL    C8132533   4.327   1.020   2.641  0.3020 -1.1062 -0.4161
  267MOL    F8232534   4.434   1.095   2.645  0.6951  0.3106  0.5234
  267MOL    H8332535   4.216   1.190   2.568  1.2817  0.8969 -1.6787
  267MOL    H8432536   4.129   1.038   2.551 -1.6393  2.4348 -0.7780
  267MOL    H8532537   4.361   0.926   2.598  0.0158 -1.1914 -0.4581
  267MOL    C8632538   4.280   1.002   2.789  0.5130  0.4747 -0.0692
  267MOL    C8732539   4.377   0.923   2.876 -0.3256 -0.2849 -0.4700
  267MOL    F8832540   4.495   0.987   2.893 -0.4611  0.4018  0.0194
  267MOL    H8932541   4.254   1.101   2.827 -0.4270  0.1135  0.2571
  267MOL    H9032542   4.188   0.943   2.784  1.2597 -0.5776 -2.1136
  267MOL    H9132543   4.408   0.831   2.826 -0.7145 -0.9720  0.5364
  267MOL    C9232544   4.324   0.880   3.015  0.3763 -0.0197  0.2319
  267MOL    C9332545   4.427   0.818   3.107  0.1664 -0.7444  0.2191
  267MOL    F9432546   4.526   0.904   3.147  0.3566  0.5296 -0.1878
  267MOL    H9532547   4.276   0.966   3.063 -1.5296 -0.0661 -1.5412
  267MOL    H9632548   4.238   0.816   2.996  1.4290 -1.6553  0.8671
  267MOL    H9732549   4.473   0.734   3.054 -0.4570 -1.3216  0.5891
  267MOL    C9832550   4.347   0.747   3.221 -0.3616 -0.6503  0.7422
  267MOL    C9932551   4.254   0.829   3.323  0.3690 -0.9728  0.4884
  267MOL   F10032552   4.223   0.751   3.423  0.0329 -0.3439 -0.6673
  267MOL   H10132553   4.292   0.657   3.192  1.3889 -0.5119 -3.2205
  267MOL   H10232554   4.427   0.709   3.285 -0.3728  2.1100  2.5051
  267MOL   H10332555   4.158   0.863   3.282  1.7319 -0.9216 -2.7935
  267MOL   C10432556   4.323   0.957   3.372 -0.1087 -0.1081 -0.0802
  267MOL   C10532557   4.231   1.054   3.455  0.3834  0.1866 -0.9021
  267MOL   F10632558   4.222   1.019   3.580 -0.4150  0.6160 -0.3654
  267MOL   H10732559   4.415   0.939   3.428 -0.7609  0.3397  1.1437
  267MOL   H10832560   4.351   1.015   3.284 -2.8426  1.9947  0.3720
  267MOL   H10932561   4.134   1.061   3.406  0.2841 -0.3577 -0.7785
  267MOL   C11032562   4.284   1.203   3.458  0.7896 -0.0453 -0.4177
  267MOL   C11132563   4.424   1.226   3.511  0.0803 -0.3642 -0.4151
  267MOL   F11232564   4.511   1.167   3.429  0.2513  0.3773  0.1248
  267MOL   H11332565   4.280   1.242   3.356  1.1405 -0.3618 -0.5528
  267MOL   H11432566   4.210   1.265   3.509  0.8388  0.5598 -1.0695
  267MOL   H11532567   4.443   1.177   3.606  0.0217 -0.0142 -0.2203
  267MOL   C11632568   4.448   1.384   3.540 -0.9866  0.0742 -0.0988
  267MOL   C11732569   4.377   1.436   3.663  0.0633 -0.4694 -0.4032
  267MOL   F11832570   4.416   1.558   3.707  0.5803  0.1084  0.4327
  267MOL   H11932571   4.556   1.400   3.543 -0.7478 -0.8273 -2.2452
  267MOL   H12032572   4.424   1.441   3.450 -0.7362  1.8145  0.9136
  267MOL   H12132573   4.397   1.374   3.750  1.4832 -0.1809 -0.5142
  267MOL   H12232574   4.268   1.436   3.652 -0.1781 -1.5103  1.7974
  268MOL     C132575   0.522   0.230   2.254  1.0620  0.3981 -0.3767
  268MOL     C232576   0.489   0.125   2.358 -0.2711 -0.5939 -0.5461
  268MOL     F332577   0.497   0.198   2.471  0.5349  0.4038  0.7043
  268MOL     H432578   0.519   0.178   2.157  2.3817 -0.7133  0.1527
  268MOL     H532579   0.620   0.272   2.274  1.6205 -1.1732  0.2369
  268MOL     H632580   0.570   0.051   2.359 -1.2376 -1.6551  0.0592
  268MOL     H732581   0.450   0.312   2.255 -1.2153 -1.5409  0.4440
  268MOL     C832582   0.352   0.065   2.348 -0.0975 -0.1628 -0.1762
  268MOL     C932583   0.316   7.976   2.469 -0.0618 -0.0107 -0.5549
  268MOL    F1032584   0.283   0.056   2.568 -0.2080 -0.1734  0.1638
  268MOL    H1132585   0.277   0.143   2.344  1.2579  1.1208 -0.9201
  268MOL    H1232586   0.347   0.009   2.255  1.3405 -1.3067  0.4031
  268MOL    H1332587   0.398   7.917   2.509  1.6440  3.0504  0.5854
  268MOL    C1432588   0.192   7.883   2.444 -0.3543  0.3420  0.4931
  268MOL    C1532589   0.131   7.810   2.566  0.1814 -0.1125  0.2901
  268MOL    F1632590   0.046   7.722   2.510  0.5490 -0.7105  0.2477
  268MOL    H1732591   0.116   7.936   2.387  1.0373  0.5511 -1.2148
  268MOL    H1832592   0.225   7.807   2.373 -0.3232  0.7016  0.1203
  268MOL    H1932593   0.065   7.879   2.618  0.6770  1.7997 -1.5660
  268MOL    C2032594   0.223   7.739   2.661 -0.1438 -0.1881  0.0177
  268MOL    C2132595   0.168   7.678   2.785 -0.2848 -0.1302  0.2109
  268MOL    F2232596   0.074   7.597   2.745  0.2327  0.2567  0.2578
  268MOL    H2332597   0.285   7.675   2.599 -1.2516  0.5609 -1.9187
  268MOL    H2432598   0.290   7.816   2.699 -2.2573  1.5309  0.4186
  268MOL    H2532599   0.120   7.760   2.839  0.1000 -0.6121  1.2954
  268MOL    C2632600   0.281   7.608   2.868  0.0971 -0.6165  0.9710
  268MOL    C2732601   0.228   7.548   3.000  0.1228  0.3828 -0.6847
  268MOL    F2832602   0.144   7.448   2.967  0.1645  0.0814  0.4009
  268MOL    H2932603   0.328   7.536   2.802  0.9289  0.7111  0.0946
  268MOL    H3032604   0.353   7.684   2.899  2.2179 -2.3273  0.3018
  268MOL    H3132605   0.173   7.621   3.060  0.9400  0.0021  0.5573
  268MOL    C3232606   0.340   7.478   3.077 -0.7929 -0.4783 -0.0513
  268MOL    C3332607   0.308   7.415   3.214  1.2704 -0.0134  0.2530
  268MOL    F3432608   0.221   7.317   3.200 -0.3051 -0.0760 -0.1561
  268MOL    H3532609   0.357   7.402   3.000 -0.2370  1.5937 -2.0097
  268MOL    H3632610   0.431   7.536   3.088 -2.2006  1.6495  0.5757
  268MOL    H3732611   0.259   7.493   3.273 -1.9529 -3.2062  1.9905
  268MOL    C3832612   0.430   7.368   3.291  0.2965  0.4829 -0.0516
  268MOL    C3932613   0.414   7.336   3.444 -0.5837  0.2594  0.8688
  268MOL    F4032614   0.318   7.242   3.461 -0.0759  0.3064 -0.4408
  268MOL    H4132615   0.483   7.285   3.243 -0.8878 -1.3249  1.6514
  268MOL    H4232616   0.501   7.450   3.278  0.8047 -0.0023 -0.3894
  268MOL    H4332617   0.377   7.425   3.496 -1.9549  0.5404 -0.5433
  268MOL    C4432618   0.541   7.286   3.519  0.4080 -0.0816  0.1106
  268MOL    C4532619   0.528   7.239   3.665 -0.3139  0.2426 -0.1034
  268MOL    F4632620   0.648   7.203   3.720 -0.0778 -0.1259  0.2455
  268MOL    H4732621   0.576   7.206   3.455 -0.4309  0.4013 -0.9583
  268MOL    H4832622   0.610   7.371   3.512  0.1450  0.1012 -0.2585
  268MOL    H4932623   0.459   7.157   3.682  1.8472 -2.1097 -2.2525
  268MOL    C5032624   0.468   7.356   3.747  0.1577 -0.4010  0.1670
  268MOL    C5132625   0.461   7.339   3.903  0.1459  0.3176 -0.5412
  268MOL    F5232626   0.462   7.463   3.958  0.4841 -0.2445  0.4960
  268MOL    H5332627   0.534   7.443   3.741 -2.6338  1.6510 -1.8307
  268MOL    H5432628   0.374   7.395   3.709  0.3722  1.3133  1.3242
  268MOL    H5532629   0.550   7.281   3.927  0.3656 -0.2405 -2.6371
  268MOL    C5632630   0.341   7.274   3.961  0.7458 -0.3127 -0.3753
  268MOL    C5732631   0.354   7.233   4.111  0.2890 -0.5087 -0.4343
  268MOL    F5832632   0.421   7.118   4.113  0.2489 -0.1740 -0.0965
  268MOL    H5932633   0.254   7.339   3.955  3.1577  3.5699  3.6433
  268MOL    H6032634   0.318   7.185   3.903  2.0539 -0.4136 -0.7513
  268MOL    H6132635   0.253   7.206   4.143 -0.0273 -1.0103 -1.8373
  268MOL    C6232636   0.411   7.341   4.209  0.6708 -0.6438 -0.5050
  268MOL    C6332637   0.330   7.466   4.225 -0.0814 -0.1732  0.0782
  268MOL    F6432638   0.222   7.431   4.296  0.0606  0.1929  0.2613
  268MOL    H6532639   0.445   7.298   4.303 -4.3250 -2.0582  0.8057
  268MOL    H6632640   0.507   7.374   4.167  0.1896  2.4949  0.7646
  268MOL    H6732641   0.288   7.492   4.127  0.0395 -1.4200 -0.3101
  268MOL    C6832642   0.391   7.586   4.282 -0.2029  0.5196 -0.1249
  268MOL    C6932643   0.442   7.677   4.167  0.4516  0.1551 -0.4480
  268MOL    F7032644   0.346   7.722   4.086 -0.2835 -0.2950 -0.7114
  268MOL    H7132645   0.322   7.611   4.363  1.6305 -0.3816  1.7605
  268MOL    H7232646   0.478   7.555   4.340  0.4684  1.4321 -0.6400
  268MOL    H7332647   0.513   7.630   4.099 -1.0751 -0.8717 -1.3684
  268MOL    C7432648   0.506   7.799   4.239  0.2690  0.2103 -0.6693
  268MOL    C7532649   0.604   7.885   4.155 -0.2993  0.1304 -0.6201
  268MOL    F7632650   0.543   7.960   4.066 -0.1102  0.4903  0.1281
  268MOL    H7732651   0.432   7.870   4.276  0.8871 -0.0227  1.0831
  268MOL    H7832652   0.563   7.764   4.326 -0.7769 -1.5901 -0.6933
  268MOL    H7932653   0.677   7.826   4.100 -0.6020 -1.3832  0.5575
  268MOL    C8032654   0.692   7.979   4.249  0.6388  0.6329 -0.5989
  268MOL    C8132655   0.828   7.921   4.288 -0.3139  0.3509  0.3010
  268MOL    F8232656   0.891   7.867   4.180  0.3879  0.1022 -0.2669
  268MOL    H8332657   0.712   0.069   4.196  2.0902  0.2090 -0.8221
  268MOL    H8432658   0.636   0.014   4.334  0.1474  2.6963 -1.7912
  268MOL    H8532659   0.808   7.847   4.365  1.6767 -0.8604 -0.3000
  268MOL    C8632660   0.923   0.030   4.344  0.5070 -0.5495  0.5285
  268MOL    C8732661   0.867   0.114   4.459 -0.6349  0.0854  0.6140
  268MOL    F8832662   0.835   0.025   4.553 -0.6198 -0.2693 -0.2749
  268MOL    H8932663   1.011   7.980   4.381  2.4127  1.3561 -1.0737
  268MOL    H9032664   0.957   0.099   4.266 -0.3707 -1.7419 -0.9099
  268MOL    H9132665   0.778   0.163   4.418 -0.0430  1.6060  1.1387
  268MOL    C9232666   0.960   0.214   4.525  0.1268  0.2541  0.0188
  268MOL    C9332667   0.882   0.301   4.629 -0.7818 -0.7537  0.6759
  268MOL    F9432668   0.779   0.355   4.571  0.2428 -0.1764 -0.0396
  268MOL    H9532669   1.041   0.158   4.572  1.0697  2.1666  0.7227
  268MOL    H9632670   1.005   0.282   4.453  1.4637 -0.3967  0.2228
  268MOL    H9732671   0.938   0.391   4.654 -2.4991  0.8416 -1.0194
  268MOL    C9832672   0.836   0.234   4.763 -0.2234  0.1636  0.3632
  268MOL    C9932673   0.946   0.148   4.834 -0.6172  0.2062 -0.1382
  268MOL   F10032674   1.054   0.213   4.862  0.1179 -0.0809 -0.3496
  268MOL   H10132675   0.808   0.315   4.830  1.0326  1.5312 -0.7472
  268MOL   H10232676   0.747   0.174   4.743  0.1531 -0.2590 -0.0582
  268MOL   H10332677   0.959   0.061   4.770 -1.1529  1.0209 -1.3928
  268MOL   C10432678   0.903   0.100   4.971  0.4565  0.2096 -0.4575
  268MOL   C10532679   0.991   7.987   5.020 -0.6935  0.1922 -0.2278
  268MOL   F10632680   1.117   0.018   5.037  0.1919 -0.4779 -0.2866
  268MOL   H10732681   0.909   0.179   5.046  0.4274 -1.3957  1.2839
  268MOL   H10832682   0.798   0.069   4.969  0.4510 -0.2167  2.9904
  268MOL   H10932683   1.001   7.905   4.948  2.2800  1.5540 -1.4336
  268MOL   C11032684   0.943   7.960   5.164  0.1661 -0.3099 -0.4115
  268MOL   C11132685   0.976   7.833   5.240  0.0699 -0.2338  0.4123
  268MOL   F11232686   1.109   7.825   5.238  0.2970  0.0771 -0.2952
  268MOL   H11332687   0.971   0.039   5.230 -0.0341 -0.7698  0.2549
  268MOL   H11432688   0.835   7.966   5.173  0.1915  1.1274 -0.9225
  268MOL   H11532689   0.943   7.755   5.171 -2.4834  0.9753  0.2117
  268MOL   C11632690   0.923   7.818   5.379 -0.2258  0.3847 -0.2558
  268MOL   C11732691   0.945   7.682   5.448 -0.0455  0.4858  0.1983
  268MOL   F11832692   0.924   7.682   5.579 -0.2353  0.0042  0.0926
  268MOL   H11932693   0.982   7.894   5.430 -1.1985  3.6945 -3.8312
  268MOL   H12032694   0.819   7.851   5.376 -0.8576 -1.6832 -1.4654
  268MOL   H12132695   1.041   7.635   5.427  1.1209  2.6687  0.4793
  268MOL   H12232696   0.875   7.613   5.399 -0.2809  0.7455  0.1672
  269MOL     C132697   5.211   6.875   7.674  0.4216  0.2137 -0.4334
  269MOL     C232698   5.140   6.798   7.564 -0.3992  0.0649 -0.6084
  269MOL     F332699   5.189   6.839   7.449  0.1930 -0.0883  0.4740
  269MOL     H432700   5.164   6.876   7.772  1.1670  0.6577 -0.0755
  269MOL     H532701   5.223   6.979   7.646 -0.5219  0.6242  0.6292
  269MOL     H632702   5.038   6.837   7.565 -0.2389  0.4839  0.2136
  269MOL     H732703   5.313   6.839   7.688  0.7958  0.3237 -2.6746
  269MOL     C832704   5.123   6.641   7.582 -0.4780 -0.1592 -0.4103
  269MOL     C932705   5.018   6.579   7.485 -0.5566 -0.1986 -0.5693
  269MOL    F1032706   4.998   6.453   7.519 -0.3785 -0.1495  0.1063
  269MOL    H1132707   5.225   6.606   7.572 -0.2303 -0.2713  2.1278
  269MOL    H1232708   5.096   6.618   7.685  1.3834  0.6931  0.2869
  269MOL    H1332709   5.058   6.584   7.384 -0.9322  0.0683 -0.7056
  269MOL    C1432710   4.876   6.636   7.500  0.0032  0.0667 -0.4260
  269MOL    C1532711   4.809   6.618   7.640  0.0077 -0.0353  0.0213
  269MOL    F1632712   4.860   6.713   7.722 -0.1385  0.1201 -0.1497
  269MOL    H1732713   4.855   6.733   7.456  0.5043 -0.0318 -0.8904
  269MOL    H1832714   4.823   6.564   7.438  1.6061 -1.3237 -0.2414
  269MOL    H1932715   4.827   6.520   7.684  1.0550 -0.2702 -0.9106
  269MOL    C2032716   4.650   6.634   7.637  0.4685 -0.0481 -0.2738
  269MOL    C2132717   4.584   6.614   7.770 -0.5667  0.1503  0.1184
  269MOL    F2232718   4.452   6.634   7.763 -0.2897 -0.4107  0.0739
  269MOL    H2332719   4.642   6.739   7.608 -1.1441  0.3119  1.3971
  269MOL    H2432720   4.605   6.578   7.556 -1.8850 -0.9883  1.6229
  269MOL    H2532721   4.621   6.694   7.835 -2.3995  1.0988  0.0319
  269MOL    C2632722   4.617   6.488   7.855  0.3619  0.5026 -0.4187
  269MOL    C2732723   4.569   6.359   7.780 -0.0791  0.2709 -0.0156
  269MOL    F2832724   4.644   6.339   7.670 -0.3164 -0.5964 -0.0074
  269MOL    H2932725   4.724   6.480   7.875  0.1418  0.9021  0.9744
  269MOL    H3032726   4.561   6.502   7.947 -0.0443  2.1816 -0.8985
  269MOL    H3132727   4.465   6.373   7.750 -0.2660 -0.0860  0.4758
  269MOL    C3232728   4.587   6.225   7.847 -0.1565 -0.0113  0.2344
  269MOL    C3332729   4.481   6.195   7.951 -0.9486 -0.3816  0.7243
  269MOL    F3432730   4.364   6.203   7.882 -0.2468  0.2771 -0.2049
  269MOL    H3532731   4.596   6.144   7.775  2.7101  0.5568 -0.1094
  269MOL    H3632732   4.687   6.227   7.891  0.0145 -1.1616 -0.0855
  269MOL    H3732733   4.471   6.272   0.024  0.8917  1.4430 -0.8082
  269MOL    C3832734   4.504   6.059   0.012  0.2735 -0.2171 -0.0313
  269MOL    C3932735   4.393   6.005   0.111 -0.5853  0.3810 -0.4749
  269MOL    F4032736   4.362   6.091   0.207 -0.5285  0.3252  0.2022
  269MOL    H4132737   4.517   5.980   7.942  0.3840 -0.2533  0.0284
  269MOL    H4232738   4.601   6.049   0.060 -0.4153 -1.0002  1.2277
  269MOL    H4332739   4.432   5.915   0.159  1.1587  0.6409 -1.3639
  269MOL    C4432740   4.260   5.963   0.051 -0.6520 -0.4222 -0.4363
  269MOL    C4532741   4.265   5.847   7.955  0.0689  0.1609  0.0138
  269MOL    F4632742   4.308   5.738   0.024 -0.2362 -0.3276  0.2644
  269MOL    H4732743   4.194   5.937   0.135  0.1666  1.0789  0.7026
  269MOL    H4832744   4.209   6.042   7.999  1.6782  1.5694  0.1919
  269MOL    H4932745   4.340   5.857   7.877  0.8547 -1.3778  0.5557
  269MOL    C5032746   4.125   5.810   7.900  0.2947  0.0545 -0.0384
  269MOL    C5132747   4.076   5.922   7.795 -0.1645  0.6908  0.1581
  269MOL    F5232748   4.178   5.950   7.708  0.5154  0.5507  0.1463
  269MOL    H5332749   4.139   5.719   7.842 -0.3183  0.3473 -0.6603
  269MOL    H5432750   4.051   5.793   7.979 -1.1062  2.2413 -0.8079
  269MOL    H5532751   4.058   6.018   7.844  1.3557  0.8903  0.3625
  269MOL    C5632752   3.948   5.881   7.715  0.4527 -0.1511  0.5483
  269MOL    C5732753   3.880   6.001   7.643  0.3696  0.2416  0.8238
  269MOL    F5832754   3.842   6.085   7.736  0.1697 -0.3981  0.0845
  269MOL    H5932755   3.972   5.810   7.635 -2.4317  0.2010 -0.6805
  269MOL    H6032756   3.884   5.828   7.784 -0.5314  1.9699  1.2969
  269MOL    H6132757   3.788   5.968   7.595  1.3715  0.8927 -1.5702
  269MOL    C6232758   3.969   6.072   7.540  0.2716 -0.1935  0.4212
  269MOL    C6332759   3.883   6.148   7.432  0.0673  0.1875 -0.3403
  269MOL    F6432760   3.812   6.057   7.369  0.3800  0.2471 -0.2083
  269MOL    H6532761   4.043   6.132   7.593 -0.3664  1.1507 -0.1723
  269MOL    H6632762   4.032   6.007   7.479  1.8409  1.1797  0.5319
  269MOL    H6732763   3.956   6.174   7.356 -0.8475 -0.5993 -1.5016
  269MOL    C6832764   3.790   6.265   7.475  0.3258 -0.0026 -0.0587
  269MOL    C6932765   3.880   6.388   7.514  0.5545  1.2874  0.6452
  269MOL    F7032766   3.981   6.408   7.428 -0.4854  0.0983 -0.0532
  269MOL    H7132767   3.728   6.297   7.392 -0.7396  0.5416  0.9307
  269MOL    H7232768   3.713   6.247   7.550  0.1863  0.1828 -0.1588
  269MOL    H7332769   3.927   6.367   7.609 -0.3685 -1.2747  0.5772
  269MOL    C7432770   3.809   6.519   7.533  0.6352 -0.3889  0.6699
  269MOL    C7532771   3.695   6.528   7.647 -0.1279 -0.5124  1.2041
  269MOL    F7632772   3.761   6.512   7.769  0.0947  0.1480  0.1847
  269MOL    H7732773   3.891   6.582   7.567  1.3329  0.5106 -2.4834
  269MOL    H7832774   3.776   6.574   7.444  0.7998 -0.5328  0.5197
  269MOL    H7932775   3.631   6.441   7.632  1.9074 -1.6376 -1.3318
  269MOL    C8032776   3.597   6.645   7.639 -0.3999  0.7028 -1.0330
  269MOL    C8132777   3.500   6.649   7.522 -0.1326 -0.1360  0.4103
  269MOL    F8232778   3.408   6.556   7.551  0.1280  0.6933  0.3880
  269MOL    H8332779   3.540   6.665   7.729 -2.8730  1.3702 -2.6946
  269MOL    H8432780   3.658   6.735   7.635 -2.0712  1.9575  0.8729
  269MOL    H8532781   3.548   6.620   7.428  1.8506  1.5843  0.8532
  269MOL    C8632782   3.424   6.783   7.510  0.3216 -0.1031 -0.4059
  269MOL    C8732783   3.511   6.898   7.453 -0.2753 -0.5834 -0.5626
  269MOL    F8832784   3.566   6.862   7.337 -0.2494  0.5293 -0.2603
  269MOL    H8932785   3.334   6.779   7.448  0.3405 -3.2735 -0.3296
  269MOL    H9032786   3.391   6.805   7.611 -0.4580 -0.8192 -0.4945
  269MOL    H9132787   3.598   6.913   7.517 -0.5939 -0.6464 -0.1160
  269MOL    C9232788   3.431   7.025   7.422  1.0865 -0.1013 -0.4462
  269MOL    C9332789   3.376   7.091   7.550  0.1468 -0.0499 -0.4645
  269MOL    F9432790   3.476   7.131   7.631 -0.3899 -0.2989  0.4827
  269MOL    H9532791   3.504   7.087   7.370  0.3428  1.2731  0.1068
  269MOL    H9632792   3.354   7.000   7.349 -4.0583  2.1473  3.8235
  269MOL    H9732793   3.313   7.031   7.616 -1.2517  1.1710 -0.6591
  269MOL    C9832794   3.294   7.219   7.516 -0.3899 -0.1254  0.5478
  269MOL    C9932795   3.163   7.195   7.438  0.8044  0.6237  1.5222
  269MOL   F10032796   3.071   7.121   7.511 -0.0801  1.0241  0.2833
  269MOL   H10132797   3.259   7.261   7.610  3.0355  2.7165  0.6894
  269MOL   H10232798   3.354   7.297   7.469 -0.3855  0.3573  1.3519
  269MOL   H10332799   3.190   7.147   7.344  0.9021  1.4714  1.1104
  269MOL   C10432800   3.098   7.327   7.409  0.0218 -0.2415  0.2889
  269MOL   C10532801   2.984   7.328   7.304 -0.1481  0.1221  0.3108
  269MOL   F10632802   3.041   7.288   7.192  0.2557  0.2568  0.2398
  269MOL   H10732803   3.060   7.370   7.502 -4.1497  1.0234 -1.9026
  269MOL   H10832804   3.177   7.390   7.368 -0.3137 -0.1455 -0.2069
  269MOL   H10932805   2.963   7.433   7.282  1.5536  0.1810 -1.1235
  269MOL   C11032806   2.853   7.258   7.335  0.5808  0.6408  0.1328
  269MOL   C11132807   2.751   7.260   7.216 -1.1511  0.6038 -0.7033
  269MOL   F11232808   2.645   7.193   7.258  0.4224  0.2678  0.5273
  269MOL   H11332809   2.885   7.156   7.357  2.3937  0.8411 -1.4289
  269MOL   H11432810   2.799   7.302   7.419 -1.1721  0.2129 -0.7335
  269MOL   H11532811   2.788   7.213   7.125  3.4073  1.2382  0.6852
  269MOL   C11632812   2.720   7.407   7.173 -0.0221 -0.0689  0.0080
  269MOL   C11732813   2.600   7.416   7.083 -0.2541  0.3029 -0.8339
  269MOL   F11832814   2.568   7.544   7.074  0.8912 -0.5719 -0.5966
  269MOL   H11932815   2.700   7.463   7.264  0.3923 -1.0219  0.6951
  269MOL   H12032816   2.810   7.456   7.137 -1.8006  3.1357 -0.1933
  269MOL   H12132817   2.510   7.362   7.111  0.1869  0.9037  1.9193
  269MOL   H12232818   2.640   7.387   6.986 -0.7789 -1.8644 -0.4360
  270MOL     C132819   2.185   5.485   4.547 -0.2610 -0.0819 -0.1244
  270MOL     C232820   2.311   5.563   4.607  0.0552  0.8492 -0.2368
  270MOL     F332821   2.293   5.687   4.596 -0.0081 -0.4535  0.0519
  270MOL     H432822   2.201   5.378   4.529 -0.5648 -0.7157  3.0281
  270MOL     H532823   2.147   5.540   4.461  3.3456  2.3866 -0.2883
  270MOL     H632824   2.399   5.537   4.548 -0.4255 -0.8961 -0.2212
  270MOL     H732825   2.105   5.487   4.621 -1.8979  3.5713 -1.9076
  270MOL     C832826   2.363   5.535   4.745  0.1800 -0.2819  1.0980
  270MOL     C932827   2.419   5.395   4.770  0.1293  1.0326  0.0568
  270MOL    F1032828   2.517   5.368   4.685 -0.0140  0.1349  0.3718
  270MOL    H1132829   2.439   5.607   4.777 -1.0984  1.7418 -0.2542
  270MOL    H1232830   2.279   5.549   4.813 -2.5255  0.3457 -2.2520
  270MOL    H1332831   2.341   5.320   4.750  0.4648  0.6581  0.1549
  270MOL    C1432832   2.480   5.394   4.909  0.1106 -0.1352 -0.2668
  270MOL    C1532833   2.509   5.248   4.966 -0.7013 -0.6251 -0.1773
  270MOL    F1632834   2.607   5.201   4.889  0.5822 -0.5741  0.1495
  270MOL    H1732835   2.571   5.452   4.901 -0.6458  1.4785  2.1978
  270MOL    H1832836   2.420   5.448   4.982  1.0190 -0.9976  1.1392
  270MOL    H1932837   2.429   5.175   4.962 -1.3365 -0.0003  0.6736
  270MOL    C2032838   2.575   5.262   5.105  0.4261 -0.2172 -0.3359
  270MOL    C2132839   2.481   5.318   5.214 -0.0204  0.3465  0.1763
  270MOL    F2232840   2.357   5.274   5.200 -0.1740  0.0868 -0.0838
  270MOL    H2332841   2.610   5.163   5.135  1.9340 -0.0741 -1.5675
  270MOL    H2432842   2.674   5.308   5.101 -0.1005  0.8201 -2.2200
  270MOL    H2532843   2.459   5.420   5.183 -0.1357 -0.2112 -1.6147
  270MOL    C2632844   2.523   5.294   5.356  0.0128 -0.8223  0.3622
  270MOL    C2732845   2.671   5.320   5.388  0.6061  0.2997 -0.1458
  270MOL    F2832846   2.718   5.445   5.352  0.3307 -0.0700  0.0872
  270MOL    H2932847   2.467   5.354   5.428 -1.8630 -0.6581 -1.1799
  270MOL    H3032848   2.490   5.193   5.380 -0.7310 -0.4040  1.1629
  270MOL    H3132849   2.734   5.240   5.348 -0.2938  0.2263 -1.4329
  270MOL    C3232850   2.701   5.316   5.541 -0.2520  0.3187  0.2203
  270MOL    C3332851   2.681   5.170   5.609 -0.3946 -0.6712  0.5214
  270MOL    F3432852   2.763   5.088   5.534 -0.3381  0.1563  0.3258
  270MOL    H3532853   2.808   5.338   5.546  0.1239 -0.9490 -1.7091
  270MOL    H3632854   2.638   5.390   5.590 -0.8066  1.6111 -2.3431
  270MOL    H3732855   2.581   5.126   5.603 -0.3577 -0.6088 -0.7116
  270MOL    C3832856   2.717   5.181   5.754 -0.2392 -0.2099  0.2341
  270MOL    C3932857   2.703   5.051   5.829 -0.3456  0.4627  0.2533
  270MOL    F4032858   2.778   5.048   5.942  0.5844 -0.1832  0.2605
  270MOL    H4132859   2.817   5.217   5.777 -0.5303 -0.4932  2.0531
  270MOL    H4232860   2.655   5.258   5.801 -0.9843 -0.6057 -0.0955
  270MOL    H4332861   2.753   4.985   5.759 -0.1373 -2.9834  3.4912
  270MOL    C4432862   2.558   4.998   5.851 -0.7116 -0.0842 -1.4900
  270MOL    C4532863   2.471   5.101   5.916 -0.0330  0.4130  0.0155
  270MOL    F4632864   2.432   5.191   5.829 -0.2113 -0.2993 -0.4056
  270MOL    H4732865   2.524   4.973   5.750  1.0166 -1.0993 -1.8333
  270MOL    H4832866   2.576   4.904   5.901  0.4707 -0.4044 -2.4943
  270MOL    H4932867   2.525   5.146   6.000 -2.3571 -0.5092  2.0547
  270MOL    C5032868   2.347   5.035   5.978 -0.0747 -1.0878  0.0034
  270MOL    C5132869   2.294   5.118   6.097  1.3152 -0.7697  0.3135
  270MOL    F5232870   2.252   5.236   6.050 -0.2818 -0.1306 -0.3609
  270MOL    H5332871   2.267   5.035   5.904 -0.3533 -1.3281  0.3027
  270MOL    H5432872   2.362   4.929   5.998 -1.4005 -1.3183 -0.2007
  270MOL    H5532873   2.363   5.144   6.177  0.9551 -1.0949  0.7336
  270MOL    C5632874   2.177   5.047   6.157 -0.1608  0.3226 -0.4365
  270MOL    C5732875   2.133   5.109   6.292  0.1675  0.3508 -0.2301
  270MOL    F5832876   2.106   5.240   6.271  0.1649 -0.2505 -0.6051
  270MOL    H5932877   2.101   5.049   6.080  1.1347  1.3285 -1.7239
  270MOL    H6032878   2.200   4.943   6.179 -0.1376  0.0812 -1.5670
  270MOL    H6132879   2.204   5.092   6.372 -0.1339  0.6268  0.0984
  270MOL    C6232880   2.001   5.055   6.341  0.5301  0.8781 -0.2515
  270MOL    C6332881   1.955   5.124   6.472  0.3554  0.3822 -0.3705
  270MOL    F6432882   1.826   5.091   6.498 -0.2649 -0.3084 -0.1891
  270MOL    H6532883   1.926   5.085   6.267  0.2887  1.2552  0.1418
  270MOL    H6632884   1.997   4.947   6.336 -1.5305  0.9016  0.1527
  270MOL    H6732885   1.958   5.233   6.463 -0.6999  0.5505  1.1253
  270MOL    C6832886   2.031   5.079   6.599  0.0059  0.2102 -0.4785
  270MOL    C6932887   2.042   4.927   6.619 -0.1095  1.2309  0.0798
  270MOL    F7032888   2.112   4.861   6.524  0.1120  0.3052  0.6334
  270MOL    H7132889   2.125   5.134   6.605 -0.8399  2.2076 -3.8938
  270MOL    H7232890   1.980   5.123   6.684  1.0341 -0.1553  0.3370
  270MOL    H7332891   1.944   4.880   6.622  0.1445  0.6758 -0.2786
  270MOL    C7432892   2.108   4.898   6.757  0.3463 -0.8780  0.6806
  270MOL    C7532893   2.060   4.766   6.830  0.4217  0.5921 -0.1996
  270MOL    F7632894   1.926   4.768   6.849 -0.0616  0.3772  0.0792
  270MOL    H7732895   2.214   4.894   6.734  0.1959  0.1146 -0.2364
  270MOL    H7832896   2.099   4.986   6.820  1.7577  0.5208 -1.0276
  270MOL    H7932897   2.099   4.761   6.932  3.4581 -3.3467 -1.4277
  270MOL    C8032898   2.096   4.645   6.746  0.8435 -0.1721 -0.2391
  270MOL    C8132899   2.043   4.516   6.788  0.3364  0.3055  0.1629
  270MOL    F8232900   2.070   4.416   6.698  0.1135  0.1664  0.7226
  270MOL    H8332901   2.070   4.653   6.640  2.7379 -0.2796 -0.7327
  270MOL    H8432902   2.205   4.635   6.745  0.9150  0.5185  0.2879
  270MOL    H8532903   1.934   4.520   6.784  0.3585  0.1178 -0.5482
  270MOL    C8632904   2.079   4.467   6.935 -1.0724 -0.3559  0.0288
  270MOL    C8732905   2.221   4.423   6.959  0.7624 -0.2529 -0.0513
  270MOL    F8832906   2.216   4.394   7.089 -0.1438 -0.1408  0.3503
  270MOL    H8932907   2.061   4.541   7.013 -1.5300 -0.5646  0.1257
  270MOL    H9032908   2.013   4.383   6.958 -2.1162  0.4456 -0.0321
  270MOL    H9132909   2.294   4.503   6.944 -1.2865  2.1334  2.2096
  270MOL    C9232910   2.260   4.300   6.887 -0.1121 -0.3232  0.2796
  270MOL    C9332911   2.370   4.225   6.955  0.2377  0.2838  0.0093
  270MOL    F9432912   2.349   4.092   6.934 -0.2935  0.3346  0.6492
  270MOL    H9532913   2.166   4.245   6.884 -3.1431  4.3098  3.2337
  270MOL    H9632914   2.293   4.319   6.785 -0.6594 -1.4176 -0.1091
  270MOL    H9732915   2.365   4.222   7.064  1.3969 -1.9280  0.0206
  270MOL    C9832916   2.511   4.269   6.906 -0.2874 -0.5516  0.7996
  270MOL    C9932917   2.617   4.237   7.015  0.4014  0.0241  1.0594
  270MOL   F10032918   2.577   4.305   7.125 -0.0783 -0.3464 -0.0420
  270MOL   H10132919   2.543   4.224   6.813  1.4880  0.4756  0.8848
  270MOL   H10232920   2.511   4.378   6.910 -0.5564 -0.5569  1.0306
  270MOL   H10332921   2.707   4.288   6.981 -0.9262  1.3293 -0.5471
  270MOL   C10432922   2.655   4.091   7.032 -0.6377  0.4343 -0.3325
  270MOL   C10532923   2.711   4.006   6.917 -0.2632  0.8536  0.8480
  270MOL   F10632924   2.808   4.082   6.859  0.2242 -0.2107  0.1779
  270MOL   H10732925   2.732   4.083   7.109  0.1387  1.2298 -1.0022
  270MOL   H10832926   2.568   4.037   7.069 -0.8710  1.4850  0.6996
  270MOL   H10932927   2.636   4.002   6.839  4.4684 -1.6683 -3.8719
  270MOL   C11032928   2.762   3.856   6.955  0.9871 -0.0946 -0.2181
  270MOL   C11132929   2.648   3.760   7.010  0.1403 -0.3961  0.0317
  270MOL   F11232930   2.570   3.729   6.906  0.8081 -0.4021 -0.1892
  270MOL   H11332931   2.810   3.806   6.871 -0.6388 -0.4959 -0.9195
  270MOL   H11432932   2.841   3.852   7.029  1.6326 -0.1284 -0.9000
  270MOL   H11532933   2.591   3.819   7.082  2.0284 -0.0450  1.2626
  270MOL   C11632934   2.699   3.633   7.073 -0.1635 -0.6962  0.1939
  270MOL   C11732935   2.789   3.657   7.200  0.3154  0.3176  0.1108
  270MOL   F11832936   2.723   3.747   7.277 -0.0124  0.1285 -0.1843
  270MOL   H11932937   2.615   3.573   7.110 -1.4549  0.7153 -0.4256
  270MOL   H12032938   2.751   3.579   6.994  0.2183 -1.4126  0.9249
  270MOL   H12132939   2.887   3.701   7.181 -1.0280  1.9703 -3.2557
  270MOL   H12232940   2.807   3.559   7.245 -0.9232 -0.4547 -1.0615
  271MOL     C132941   7.856   1.941   4.964 -0.4614  0.0901  0.0233
  271MOL     C232942   7.795   1.898   4.826  0.0757  0.1074  0.3301
  271MOL     F332943   7.770   1.769   4.833 -0.0766 -0.0059  0.0301
  271MOL     H432944   7.792   1.896   5.040 -0.5880  0.0622 -0.0985
  271MOL     H532945   7.857   2.050   4.971 -3.6011  0.1612 -0.0314
  271MOL     H632946   7.870   1.924   4.751 -2.7245  0.5763 -2.4092
  271MOL     H732947   7.958   1.906   4.977 -0.6076 -0.1289  0.5912
  271MOL     C832948   7.658   1.960   4.790  0.1183 -0.6813 -0.3290
  271MOL     C932949   7.676   2.116   4.770  0.3920  0.3717  0.5749
  271MOL    F1032950   7.763   2.147   4.673 -0.3428 -0.4400  0.0696
  271MOL    H1132951   7.629   1.922   4.692 -0.1067 -1.7310  0.1445
  271MOL    H1232952   7.571   1.956   4.856 -0.8432  4.5631 -1.0204
  271MOL    H1332953   7.717   2.161   4.860  0.3070  0.5216  0.5395
  271MOL    C1432954   7.547   2.192   4.729  0.3626  0.3127  0.8816
  271MOL    C1532955   7.556   2.349   4.732  0.2057 -0.4418  0.1862
  271MOL    F1632956   7.564   2.382   4.856  0.0601  0.1779  0.7647
  271MOL    H1732957   7.523   2.158   4.629 -0.1192  0.4375  0.9525
  271MOL    H1832958   7.470   2.162   4.800 -0.4141  0.4082  0.0831
  271MOL    H1932959   7.458   2.387   4.704  1.3187  1.6060 -1.0231
  271MOL    C2032960   7.655   2.422   4.640 -0.9877  0.2343 -0.7057
  271MOL    C2132961   7.623   2.420   4.495 -0.7650  0.9140 -0.3751
  271MOL    F2232962   7.490   2.434   4.466 -0.3422  0.1705 -0.3321
  271MOL    H2332963   7.651   2.522   4.684 -1.5839  0.0298 -0.2978
  271MOL    H2432964   7.759   2.391   4.655 -1.4771 -0.9355  0.3339
  271MOL    H2532965   7.631   2.316   4.463  0.7174  1.4618 -1.8922
  271MOL    C2632966   7.707   2.525   4.410  0.0252 -0.6945 -0.5513
  271MOL    C2732967   7.858   2.486   4.391  0.0078 -0.0832 -0.4327
  271MOL    F2832968   7.876   2.356   4.360 -0.0862  0.8043 -0.5586
  271MOL    H2932969   7.661   2.531   4.311 -1.3445  1.4712  0.1760
  271MOL    H3032970   7.703   2.629   4.444  1.2284 -0.8288  0.0231
  271MOL    H3132971   7.911   2.487   4.487 -0.4077  4.1230 -0.1621
  271MOL    C3232972   7.941   2.564   4.281  0.4099 -0.6867 -0.0656
  271MOL    C3332973   0.090   2.560   4.291  0.4730 -0.7414  0.9836
  271MOL    F3432974   0.120   2.435   4.293 -0.4070  0.0413 -0.1840
  271MOL    H3532975   7.907   2.527   4.184  0.9713  0.4760 -0.7310
  271MOL    H3632976   7.903   2.666   4.274  0.8740 -0.5089 -0.0323
  271MOL    H3732977   0.125   2.601   4.386  0.1274 -0.6108  1.0556
  271MOL    C3832978   0.163   2.628   4.168  1.1089 -1.0845 -0.3191
  271MOL    C3932979   0.110   2.595   4.023  0.6187  0.5367 -0.2445
  271MOL    F4032980   0.183   2.664   3.936  0.2148 -0.2156  0.6515
  271MOL    H4132981   0.178   2.734   4.187  1.6115 -1.4210  1.2193
  271MOL    H4232982   0.269   2.604   4.179  1.2412 -0.6822 -0.6858
  271MOL    H4332983   0.011   2.638   4.009  0.3586 -0.1006 -0.4025
  271MOL    C4432984   0.132   2.444   3.983 -0.4684 -0.3736 -0.4034
  271MOL    C4532985   0.114   2.402   3.840  0.1731  0.2787  0.1564
  271MOL    F4632986   0.157   2.276   3.825 -0.4148  0.7155 -0.1268
  271MOL    H4732987   0.230   2.418   4.022 -0.7119  1.1335  1.2864
  271MOL    H4832988   0.060   2.389   4.045 -0.6215 -0.5969 -0.7749
  271MOL    H4932989   0.182   2.456   3.775 -2.2485  2.3274 -0.7575
  271MOL    C5032990   7.970   2.414   3.800  0.1629 -0.2448  0.4938
  271MOL    C5132991   7.918   2.313   3.686 -0.0436 -0.1071 -0.5899
  271MOL    F5232992   7.785   2.323   3.663  0.1905  0.1602 -0.1739
  271MOL    H5332993   7.898   2.390   3.878 -1.9628  1.2510 -0.9533
  271MOL    H5432994   7.958   2.516   3.763 -0.9933 -1.3202 -2.2229
  271MOL    H5532995   7.923   2.211   3.726 -1.1465 -0.5308 -1.5054
  271MOL    C5632996   7.991   2.319   3.549  0.1726 -0.4084 -0.0075
  271MOL    C5732997   7.958   2.442   3.460  0.4318 -0.3237 -0.0337
  271MOL    F5832998   0.003   2.549   3.522  0.1965 -0.1970  0.2363
  271MOL    H5932999   0.097   2.315   3.548  0.2419  1.0577  0.6186
  271MOL    H6033000   7.960   2.232   3.491 -0.8625  0.2879 -0.5016
  271MOL    H6133001   7.851   2.452   3.444  0.7604  2.2065 -0.8935
  271MOL    C6233002   0.006   2.425   3.313 -0.7951 -0.2116 -0.8871
  271MOL    C6333003   7.954   2.527   3.210 -0.2343  0.4443 -0.3529
  271MOL    F6433004   7.963   2.646   3.267  0.6047  0.2895  0.2961
  271MOL    H6533005   0.112   2.447   3.318 -0.9095  0.3040 -0.6678
  271MOL    H6633006   7.985   2.323   3.283  2.1453 -1.1459 -0.2021
  271MOL    H6733007   7.847   2.512   3.201 -0.3985  2.2197 -1.9541
  271MOL    C6833008   0.007   2.540   3.071  0.1956  0.3253  0.6275
  271MOL    C6933009   0.014   2.418   2.976 -0.0400  0.2071 -0.2005
  271MOL    F7033010   7.894   2.375   2.954  0.1828  0.2629 -0.2768
  271MOL    H7133011   7.956   2.620   3.021 -0.3830  0.7255  1.8680
  271MOL    H7233012   0.107   2.577   3.094  1.1925 -1.4624 -0.6453
  271MOL    H7333013   0.067   2.333   3.021 -0.0842  0.7861  0.9614
  271MOL    C7433014   0.096   2.457   2.849 -0.3465 -0.7636 -0.6231
  271MOL    C7533015   0.104   2.361   2.733 -0.5189 -0.3913  0.3239
  271MOL    F7633016   7.984   2.351   2.686  0.2474 -0.0939 -0.1241
  271MOL    H7733017   0.054   2.549   2.810  1.1673 -0.1245 -0.7953
  271MOL    H7833018   0.197   2.481   2.883 -0.6491  1.5138 -1.2494
  271MOL    H7933019   0.154   2.265   2.751  0.4039 -0.0554 -0.3726
  271MOL    C8033020   0.179   2.425   2.613  0.8472 -0.1428  0.7457
  271MOL    C8133021   0.335   2.441   2.623  0.4483 -0.2270 -0.3679
  271MOL    F8233022   0.406   2.332   2.616 -0.0214 -0.2491  0.2271
  271MOL    H8333023   0.156   2.377   2.517 -0.0745  0.6506  0.5641
  271MOL    H8433024   0.128   2.519   2.591 -0.5629 -1.0294  0.0982
  271MOL    H8533025   0.366   2.489   2.716 -0.1161 -1.5169  0.5062
  271MOL    C8633026   0.374   2.544   2.508 -0.9033  0.2815 -0.2219
  271MOL    C8733027   0.516   2.604   2.526 -0.1996 -0.9279  0.0603
  271MOL    F8833028   0.548   2.668   2.409 -0.1404  0.1724 -0.0544
  271MOL    H8933029   0.370   2.492   2.412  0.0013 -0.5934  0.1913
  271MOL    H9033030   0.305   2.628   2.504 -0.4129  0.6763 -0.4752
  271MOL    H9133031   0.589   2.524   2.539 -0.1381 -1.1718 -1.6981
  271MOL    C9233032   0.518   2.707   2.651  0.1538 -0.1562 -0.2289
  271MOL    C9333033   0.638   2.797   2.663  0.3688  0.6046 -0.0143
  271MOL    F9433034   0.608   2.892   2.757 -0.3126 -0.3771 -0.0916
  271MOL    H9533035   0.432   2.773   2.643 -0.9992 -1.6099 -0.1691
  271MOL    H9633036   0.509   2.656   2.747 -1.7182 -0.9691 -0.8183
  271MOL    H9733037   0.642   2.855   2.571 -0.4799 -0.1075 -0.5058
  271MOL    C9833038   0.767   2.720   2.706  0.0009 -0.3642 -0.3883
  271MOL    C9933039   0.890   2.811   2.719  0.5451  0.2843  0.4047
  271MOL   F10033040   0.873   2.902   2.820 -0.1755 -0.3833 -0.1377
  271MOL   H10133041   0.755   2.670   2.803  0.8439  0.3150  0.0697
  271MOL   H10233042   0.793   2.650   2.627 -0.0192  0.4709 -1.1376
  271MOL   H10333043   0.901   2.870   2.628  0.0501 -1.1286 -0.5895
  271MOL   C10433044   1.022   2.729   2.743  0.0107 -0.2670  0.6481
  271MOL   C10533045   1.031   2.644   2.877  0.5394  0.1938 -0.0724
  271MOL   F10633046   0.932   2.553   2.889  0.6747  0.0643  0.2926
  271MOL   H10733047   1.044   2.662   2.660  4.2911  0.1845  1.3403
  271MOL   H10833048   1.101   2.803   2.756 -0.8000  0.9230 -1.1117
  271MOL   H10933049   1.020   2.725   2.949 -0.2978  1.8238 -1.9889
  271MOL   C11033050   1.166   2.584   2.902  0.1233 -0.1013 -0.1579
  271MOL   C11133051   1.221   2.460   2.823 -0.6786  0.3933 -0.3553
  271MOL   F11233052   1.228   2.489   2.697 -0.4715  0.7239  0.2142
  271MOL   H11333053   1.227   2.674   2.894 -0.0149  0.3160  2.8541
  271MOL   H11433054   1.166   2.565   3.010 -0.3035 -1.3514 -0.3682
  271MOL   H11533055   1.153   2.374   2.822  0.3668 -0.4713  0.8166
  271MOL   C11633056   1.368   2.424   2.864  0.3229  0.2168  0.5097
  271MOL   C11733057   1.421   2.298   2.780 -0.1546 -0.0992 -0.2577
  271MOL   F11833058   1.551   2.269   2.819 -0.6418 -0.4782  0.1681
  271MOL   H11933059   1.436   2.505   2.888  2.8918 -2.1862  1.5947
  271MOL   H12033060   1.361   2.385   2.965  1.7404 -0.5639  0.3217
  271MOL   H12133061   1.429   2.328   2.676  0.2516  0.4869 -0.0634
  271MOL   H12233062   1.358   2.211   2.792  2.2695 -1.6388  1.9401
  272MOL     C133063   7.382   6.008   6.509  0.0200 -0.0075  0.2929
  272MOL     C233064   7.512   6.066   6.451 -0.4841 -0.0159 -0.4555
  272MOL     F333065   7.494   6.091   6.323 -0.1994 -0.5808 -0.3503
  272MOL     H433066   7.407   5.956   6.602 -0.2810  0.0580  0.4105
  272MOL     H533067   7.354   5.925   6.444  1.8228  0.6288 -1.3462
  272MOL     H633068   7.594   5.995   6.440 -0.1622 -0.1045  2.0980
  272MOL     H733069   7.300   6.077   6.527  1.0034  0.8754  1.5119
  272MOL     C833070   7.564   6.196   6.533 -0.2217 -0.6984  0.2100
  272MOL     C933071   7.610   6.167   6.679  0.1735  0.9876  0.5426
  272MOL    F1033072   7.716   6.093   6.666 -0.4414 -0.1794  0.7035
  272MOL    H1133073   7.647   6.234   6.474 -0.8821  0.3774 -0.0382
  272MOL    H1233074   7.479   6.265   6.531 -1.7051 -2.4117  2.0419
  272MOL    H1333075   7.538   6.104   6.731  1.0324 -0.3015  0.1908
  272MOL    C1433076   7.654   6.295   6.753 -0.1098 -0.2577  0.1702
  272MOL    C1533077   7.686   6.282   6.906 -0.1226  0.3387 -0.4936
  272MOL    F1633078   7.571   6.231   6.957  0.1097 -0.2392 -0.0522
  272MOL    H1733079   7.747   6.325   6.705  0.1027  1.0270  1.3409
  272MOL    H1833080   7.583   6.373   6.726 -0.7801 -1.0308 -0.3153
  272MOL    H1933081   7.681   6.380   6.955  1.3794 -1.0346  2.5391
  272MOL    C2033082   7.802   6.201   6.952  0.4964  0.2882  0.3324
  272MOL    C2133083   7.853   6.217   7.102 -0.2897 -0.3514 -0.2562
  272MOL    F2233084   7.756   6.181   7.190  0.2964  0.2934 -0.4041
  272MOL    H2333085   7.789   6.094   6.935  1.2890  0.3843 -0.9554
  272MOL    H2433086   7.884   6.227   6.885  0.1731 -3.8559 -1.8191
  272MOL    H2533087   7.868   6.324   7.113 -1.4117 -0.0909 -1.1678
  272MOL    C2633088   7.974   6.132   7.143 -0.3349  0.0043 -0.0530
  272MOL    C2733089   8.002   6.119   7.289 -0.0275 -0.3536  0.2256
  272MOL    F2833090   0.103   6.030   7.301 -0.3609  0.0659 -0.8052
  272MOL    H2933091   7.966   6.027   7.114  0.1981 -0.4105  1.2916
  272MOL    H3033092   0.066   6.157   7.096 -0.5565  3.1434  1.0660
  272MOL    H3133093   7.925   6.078   7.354  0.6933 -0.6170  0.9188
  272MOL    C3233094   0.057   6.256   7.335  0.0562 -0.7658 -0.0746
  272MOL    C3333095   0.068   6.293   7.476 -0.4722  0.7411  0.3587
  272MOL    F3433096   0.160   6.385   7.497  0.1567  0.8870 -0.1381
  272MOL    H3533097   0.158   6.261   7.294 -0.6691 -0.1972 -1.8536
  272MOL    H3633098   7.998   6.333   7.289  0.0732 -1.2575 -0.9439
  272MOL    H3733099   0.105   6.210   7.536  0.1307  0.5628 -0.2553
  272MOL    C3833100   7.950   6.344   7.557 -0.3328  0.2375  0.4044
  272MOL    C3933101   7.955   6.347   7.707 -0.4728 -0.1711 -0.4602
  272MOL    F4033102   7.846   6.410   7.756 -0.2759  0.1057  0.0680
  272MOL    H4133103   7.933   6.445   7.519  1.7109  1.1413  1.7768
  272MOL    H4233104   7.856   6.290   7.543  0.9140 -2.0602  0.7380
  272MOL    H4333105   0.042   6.402   7.736  0.3160  0.3616 -3.7346
  272MOL    C4433106   7.966   6.206   7.770  0.4406  0.1578  0.1246
  272MOL    C4533107   7.992   6.203   7.919  0.5646 -0.4864  0.3512
  272MOL    F4633108   0.099   6.273   7.952 -0.8559  0.1992  0.1031
  272MOL    H4733109   7.866   6.169   7.744  0.7595 -1.5450  1.2636
  272MOL    H4833110   0.025   6.136   7.714  1.3736  2.5512 -1.9196
  272MOL    H4933111   0.006   6.098   7.940 -1.4178 -0.5605  1.7762
  272MOL    C5033112   7.880   6.267   7.996 -0.1969  0.2391  0.0436
  272MOL    C5133113   7.899   6.253   0.144  0.1476 -0.5088 -0.2043
  272MOL    F5233114   7.883   6.126   0.175 -0.2005 -0.2816  0.4869
  272MOL    H5333115   7.891   6.374   7.981 -2.3569  0.5584  0.5966
  272MOL    H5433116   7.780   6.248   7.956 -0.1036 -0.1159 -0.0281
  272MOL    H5533117   7.813   6.300   0.189 -0.4831  0.1756 -2.0561
  272MOL    C5633118   0.019   6.326   0.210 -0.0425  0.9014  1.1143
  272MOL    C5733119   7.997   6.336   0.367 -0.1653 -0.4271  0.2010
  272MOL    F5833120   0.111   6.351   0.438  0.0947 -0.1120 -0.2233
  272MOL    H5933121   0.108   6.265   0.197 -0.4052 -0.1481  3.3572
  272MOL    H6033122   0.039   6.427   0.173 -1.8376  1.3875  1.3907
  272MOL    H6133123   7.955   6.244   0.406 -2.5022  1.2593  1.7954
  272MOL    C6233124   7.885   6.437   0.416  0.7507  0.4089 -0.5641
  272MOL    C6333125   7.911   6.586   0.415 -0.2202 -0.7828 -0.2310
  272MOL    F6433126   7.927   6.629   0.289  0.2727 -0.4539  0.5499
  272MOL    H6533127   7.790   6.405   0.373 -1.1039  0.9225  2.9895
  272MOL    H6633128   7.875   6.405   0.519 -0.8331 -2.0173 -1.4161
  272MOL    H6733129   0.001   6.600   0.470  0.0869  0.4308 -1.0239
  272MOL    C6833130   7.806   6.668   0.501 -0.2618  0.2520 -0.1850
  272MOL    C6933131   7.824   6.821   0.498 -0.1701  0.3989  0.2744
  272MOL    F7033132   7.741   6.864   0.586  0.0568 -0.3014  0.0394
  272MOL    H7133133   7.703   6.646   0.472 -0.3336  2.6110 -1.9043
  272MOL    H7233134   7.822   6.641   0.605 -3.5738  1.2223  0.6467
  272MOL    H7333135   7.797   6.863   0.401 -0.9345 -1.7925 -0.4766
  272MOL    C7433136   7.963   6.879   0.537 -0.7092  0.5541  0.4660
  272MOL    C7533137   7.974   7.034   0.547 -0.6031 -0.3679  0.1761
  272MOL    F7633138   7.913   7.072   0.659  0.2689 -0.1306 -0.8757
  272MOL    H7733139   7.977   6.841   0.638 -1.1077 -1.3483 -0.1656
  272MOL    H7833140   0.034   6.835   0.469 -0.0608 -1.3062  2.3070
  272MOL    H7933141   7.931   7.080   0.458  2.0724 -1.3280 -1.6715
  272MOL    C8033142   0.122   7.072   0.566  0.1529 -1.0107  0.2360
  272MOL    C8133143   0.152   7.221   0.512 -0.5146 -0.3069 -0.4828
  272MOL    F8233144   0.117   7.247   0.387  0.1025  0.0904 -0.4083
  272MOL    H8333145   0.164   7.037   0.661 -0.6436 -0.4517  0.7910
  272MOL    H8433146   0.176   7.003   0.500 -0.3985  0.6922 -2.0683
  272MOL    H8533147   0.260   7.237   0.514 -0.2821 -1.5942 -2.0748
  272MOL    C8633148   0.082   7.331   0.600 -0.1309 -0.8047 -0.3709
  272MOL    C8733149   0.090   7.327   0.749 -0.3335  0.4828 -0.1754
  272MOL    F8833150   0.205   7.382   0.782 -0.1775  0.0510  0.1783
  272MOL    H8933151   0.113   7.426   0.558  1.2954 -1.2618 -0.3701
  272MOL    H9033152   7.984   7.321   0.558  0.3734  1.2902 -2.1797
  272MOL    H9133153   0.103   7.223   0.777 -0.3713  1.0405  2.0206
  272MOL    C9233154   7.987   7.414   0.820  0.0791 -0.9047  0.7199
  272MOL    C9333155   0.002   7.421   0.973  0.0321  0.4228 -0.3364
  272MOL    F9433156   0.086   7.518   0.998  0.1128  0.0305 -0.1757
  272MOL    H9533157   7.986   7.514   0.775  2.5937 -0.6988  1.0668
  272MOL    H9633158   7.889   7.366   0.814 -0.3337  0.1388 -1.8132
  272MOL    H9733159   0.041   7.327   1.010 -0.4560  0.3435 -0.0164
  272MOL    C9833160   7.865   7.435   1.047  0.4738  0.3891  0.2523
  272MOL    C9933161   7.793   7.582   1.022  0.0876  0.0109  0.9106
  272MOL   F10033162   7.751   7.591   0.899  0.2015 -0.1195  0.1139
  272MOL   H10133163   7.794   7.364   1.006  0.3837  0.7230 -0.1766
  272MOL   H10233164   7.875   7.407   1.152  0.1923 -4.4067 -0.8929
  272MOL   H10333165   7.870   7.658   1.031 -0.7309  1.1308 -1.1100
  272MOL   C10433166   7.685   7.609   1.128 -0.4845 -0.7691  0.2329
  272MOL   C10533167   7.640   7.755   1.140 -0.6540  0.0517 -0.3311
  272MOL   F10633168   7.749   7.826   1.165  0.3900 -0.1904 -0.7517
  272MOL   H10733169   7.594   7.553   1.106  0.1293 -0.9401 -1.9646
  272MOL   H10833170   7.735   7.585   1.222  0.1328 -1.8072 -0.3560
  272MOL   H10933171   7.574   7.763   1.226 -0.7339  3.4696 -0.6468
  272MOL   C11033172   7.565   7.815   1.019 -0.7381 -0.1495  0.1367
  272MOL   C11133173   7.417   7.779   1.009  0.1976 -0.3232 -0.6536
  272MOL   F11233174   7.352   7.794   1.126 -0.1324 -0.2343  0.0569
  272MOL   H11333175   7.592   7.920   1.014  0.1164 -0.3486  0.5415
  272MOL   H11433176   7.607   7.776   0.926 -0.5050  1.0388 -0.2656
  272MOL   H11533177   7.415   7.676   0.973  0.6651 -0.3452 -0.6298
  272MOL   C11633178   7.352   7.871   0.902  0.6361  0.0992 -0.8519
  272MOL   C11733179   7.203   7.844   0.878 -0.5337 -1.1480 -0.0425
  272MOL   F11833180   7.163   7.913   0.768  0.5352 -0.3948  0.0796
  272MOL   H11933181   7.366   7.975   0.932 -2.2089  0.0204  0.8754
  272MOL   H12033182   7.402   7.854   0.806  0.0115 -0.5866 -1.0602
  272MOL   H12133183   7.136   7.879   0.956 -1.0263 -1.3790 -0.3579
  272MOL   H12233184   7.167   7.743   0.860 -0.0703 -1.1776 -0.8376
  273MOL     C133185   5.672   1.306   4.516 -0.1869  0.2607 -0.3993
  273MOL     C233186   5.682   1.158   4.474 -0.0526  0.1651  0.3280
  273MOL     F333187   5.694   1.090   4.584  0.5579  0.3469  0.0237
  273MOL     H433188   5.615   1.329   4.606  0.5833 -3.0794  1.0310
  273MOL     H533189   5.645   1.371   4.433 -1.6322  0.6431  0.3638
  273MOL     H633190   5.763   1.141   4.404 -0.1899  0.5412  0.0765
  273MOL     H733191   5.769   1.344   4.550 -0.0151  0.0753 -0.6697
  273MOL     C833192   5.557   1.112   4.399  0.2845 -0.3758 -0.3117
  273MOL     C933193   5.577   0.973   4.319 -0.6383 -0.8921  0.8099
  273MOL    F1033194   5.675   0.979   4.238 -0.1852 -0.5405  0.4381
  273MOL    H1133195   5.473   1.108   4.468  0.4506 -0.6205 -0.1238
  273MOL    H1233196   5.521   1.189   4.330 -1.2746 -1.4873 -0.7764
  273MOL    H1333197   5.492   0.963   4.252 -0.0639 -1.7954  0.2024
  273MOL    C1433198   5.598   0.846   4.402 -0.2847  0.2454 -0.3575
  273MOL    C1533199   5.472   0.807   4.478  0.1970 -0.0805 -0.4529
  273MOL    F1633200   5.388   0.777   4.384  0.3501 -0.2487  0.1738
  273MOL    H1733201   5.634   0.759   4.347  1.8036  0.4645  0.6162
  273MOL    H1833202   5.681   0.882   4.463  0.2761  1.5967 -1.8768
  273MOL    H1933203   5.428   0.887   4.538  1.6066  0.0192  0.4956
  273MOL    C2033204   5.488   0.683   4.567  0.2038  0.6351 -0.2013
  273MOL    C2133205   5.580   0.715   4.693 -0.0388  0.2976 -0.0322
  273MOL    F2233206   5.538   0.832   4.756  0.6336  0.4685 -0.7335
  273MOL    H2333207   5.394   0.653   4.612 -0.0564  1.6692 -0.0283
  273MOL    H2433208   5.537   0.596   4.523 -0.4453 -0.9860  2.2411
  273MOL    H2533209   5.683   0.730   4.661  0.7271  0.1137  2.3141
  273MOL    C2633210   5.576   0.603   4.795 -0.5496  0.0192 -0.0158
  273MOL    C2733211   5.698   0.588   4.878 -0.9988 -0.0605  0.0249
  273MOL    F2833212   5.676   0.503   4.985  0.4414  0.3867  0.2216
  273MOL    H2933213   5.495   0.613   4.866  0.6801  2.4066  1.0932
  273MOL    H3033214   5.540   0.508   4.755 -2.5953  1.2574 -1.1395
  273MOL    H3133215   5.736   0.678   4.928 -1.1944  0.1015 -0.1164
  273MOL    C3233216   5.824   0.551   4.795 -0.7189 -0.7029  0.8858
  273MOL    C3333217   5.794   0.435   4.691  0.0010 -0.0102  0.2376
  273MOL    F3433218   5.750   0.492   4.580 -0.0341  0.0597  0.2774
  273MOL    H3533219   5.856   0.639   4.739  0.2378 -1.3763  0.3658
  273MOL    H3633220   5.903   0.521   4.864  0.6620  2.1748  0.6164
  273MOL    H3733221   5.708   0.371   4.711 -0.3696 -0.3056 -2.1449
  273MOL    C3833222   5.911   0.348   4.660  0.0017  0.2373  0.0258
  273MOL    C3933223   5.885   0.224   4.577  0.6818  0.8549  0.0493
  273MOL    F4033224   5.838   0.255   4.450 -0.4199  0.2370 -0.0429
  273MOL    H4133225   5.983   0.414   4.610  0.3066  0.0107  0.1620
  273MOL    H4233226   5.966   0.318   4.749  1.2439 -0.7585 -1.0626
  273MOL    H4333227   5.795   0.175   4.616  3.0921 -1.6362  2.7358
  273MOL    C4433228   6.013   0.131   4.559 -0.0356 -0.7606  0.0199
  273MOL    C4533229   6.049   0.059   4.687 -0.4943 -0.1692  0.6034
  273MOL    F4633230   5.945   0.000   4.732  0.3882  0.3218 -0.1747
  273MOL    H4733231   5.991   0.063   4.476  1.3523 -0.8800 -0.2691
  273MOL    H4833232   6.094   0.196   4.524 -1.0590  0.6464  0.2148
  273MOL    H4933233   6.073   0.141   4.755  1.7483  0.1190 -0.4855
  273MOL    C5033234   6.162   7.954   4.670  0.7541  0.3023 -0.9115
  273MOL    C5133235   6.247   7.933   4.797 -0.6800 -0.0492  0.1556
  273MOL    F5233236   6.292   0.046   4.833 -0.0324  0.4792  0.0597
  273MOL    H5333237   6.107   7.862   4.648 -0.0781  0.4644  0.4335
  273MOL    H5433238   6.224   7.972   4.582  0.2273 -0.4904 -1.4574
  273MOL    H5533239   6.328   7.864   4.775  0.1997  1.7616 -2.6047
  273MOL    C5633240   6.167   7.868   4.914  0.2446  0.7234  0.1789
  273MOL    C5733241   6.251   7.845   5.046  0.2769  0.2972 -0.1739
  273MOL    F5833242   6.163   7.829   5.147  0.5285 -0.4528 -0.4083
  273MOL    H5933243   6.088   7.935   4.946  0.0810  1.6001 -1.9752
  273MOL    H6033244   6.125   7.774   4.879 -1.4445  0.9498  1.5693
  273MOL    H6133245   6.322   7.927   5.054 -0.1058  0.8921 -2.5571
  273MOL    C6233246   6.337   7.716   5.033 -0.2553 -0.4101 -0.3581
  273MOL    C6333247   6.399   7.666   5.168  0.2700  0.0411  0.0671
  273MOL    F6433248   6.439   7.543   5.145  0.5166 -0.5057 -0.2626
  273MOL    H6533249   6.268   7.638   5.003 -1.6684  1.2066 -1.4459
  273MOL    H6633250   6.416   7.726   4.958 -1.1925 -1.4971 -1.5031
  273MOL    H6733251   6.316   7.650   5.236 -1.6225  3.5151 -1.2909
  273MOL    C6833252   6.527   7.748   5.224  0.5840  0.1033  0.1877
  273MOL    C6933253   6.506   7.891   5.278  0.2188  0.0079  0.2564
  273MOL    F7033254   6.449   7.883   5.404 -0.3036  0.3534  0.2272
  273MOL    H7133255   6.578   7.696   5.306 -0.2657  2.2514  2.1275
  273MOL    H7233256   6.599   7.762   5.143  0.9729 -0.4108  0.4384
  273MOL    H7333257   6.424   7.937   5.225 -0.5202  0.5387  1.8186
  273MOL    C7433258   6.639   7.973   5.271  0.2089 -0.4320 -0.2061
  273MOL    C7533259   6.661   0.036   5.137  0.5780 -0.0851 -0.6339
  273MOL    F7633260   6.556   0.103   5.101 -0.5006  0.3534 -0.0249
  273MOL    H7733261   6.635   0.046   5.349 -0.6690 -1.2139  0.5146
  273MOL    H7833262   6.726   7.911   5.297  1.5972  1.8913  0.8576
  273MOL    H7933263   6.684   7.962   5.063  0.7706  0.3874 -1.0708
  273MOL    C8033264   6.782   0.127   5.141  0.0635  0.4617 -0.2016
  273MOL    C8133265   6.845   0.151   4.998  0.3216 -0.2132  0.3946
  273MOL    F8233266   6.882   0.038   4.946  0.7086  0.3742  0.1397
  273MOL    H8333267   6.747   0.214   5.196  0.6589  0.4558  0.1830
  273MOL    H8433268   6.852   0.079   5.209  0.3915  1.9673  0.5360
  273MOL    H8533269   6.937   0.210   5.001  0.2698 -0.0273 -1.0888
  273MOL    C8633270   6.754   0.213   4.893 -0.2795  0.2513  0.1651
  273MOL    C8733271   6.707   0.358   4.916  0.1459  0.0027  0.3959
  273MOL    F8833272   6.814   0.430   4.945  0.7095 -0.1880  0.4028
  273MOL    H8933273   6.804   0.206   4.797  1.2774  2.1113  0.8182
  273MOL    H9033274   6.665   0.150   4.885 -0.0699 -0.5988  3.9573
  273MOL    H9133275   6.648   0.367   5.007 -1.7077 -1.7273 -0.5897
  273MOL    C9233276   6.635   0.419   4.805  0.5413 -0.0068 -0.1008
  273MOL    C9333277   6.493   0.369   4.770  0.5394  0.2227 -0.1607
  273MOL    F9433278   6.404   0.424   4.855  0.5427 -0.1077 -0.2678
  273MOL    H9533279   6.642   0.527   4.819  1.1243  0.1815 -1.7480
  273MOL    H9633280   6.704   0.396   4.724 -0.8852  0.6834 -1.5363
  273MOL    H9733281   6.488   0.261   4.785  1.4611 -0.0563 -1.7178
  273MOL    C9833282   6.450   0.406   4.624  0.1579  0.2261  0.5911
  273MOL    C9933283   6.460   0.545   4.581 -0.0025  0.0019  0.4890
  273MOL   F10033284   6.585   0.559   4.543 -0.2538  0.1297 -0.2959
  273MOL   H10133285   6.495   0.341   4.549 -1.0031  0.3364 -0.2202
  273MOL   H10233286   6.345   0.379   4.607  0.8511 -0.9320 -2.1028
  273MOL   H10333287   6.444   0.611   4.666  0.4261 -0.4346  0.9126
  273MOL   C10433288   6.368   0.598   4.466  0.0451  0.1979 -0.1834
  273MOL   C10533289   6.220   0.572   4.471  0.0082 -0.3317 -0.3692
  273MOL   F10633290   6.159   0.604   4.583 -0.2592  0.3954  0.3307
  273MOL   H10733291   6.390   0.704   4.452  2.1170 -0.2208 -0.3656
  273MOL   H10833292   6.408   0.561   4.371  1.6687  0.0757  0.5401
  273MOL   H10933293   6.193   0.468   4.455  1.6155 -0.8495  0.2469
  273MOL   C11033294   6.158   0.645   4.348 -0.6801  0.7191  0.2467
  273MOL   C11133295   6.011   0.635   4.312 -1.1323 -0.4802 -0.4466
  273MOL   F11233296   5.981   0.742   4.231 -0.3495 -0.0947 -0.1046
  273MOL   H11333297   6.178   0.752   4.354  1.7751  0.3152 -0.1214
  273MOL   H11433298   6.211   0.605   4.261 -0.4512  1.0770  0.2218
  273MOL   H11533299   5.949   0.647   4.400 -0.8588  0.1264 -0.3286
  273MOL   C11633300   5.961   0.503   4.248  0.3816 -0.2452 -0.7275
  273MOL   C11733301   5.804   0.496   4.222  0.6925 -0.1588  0.4123
  273MOL   F11833302   5.763   0.380   4.170 -0.1956  0.1300 -0.3795
  273MOL   H11933303   6.014   0.488   4.154 -0.0908  2.1434 -1.4175
  273MOL   H12033304   5.997   0.420   4.309  2.3023  1.0830 -0.0029
  273MOL   H12133305   5.774   0.577   4.156 -3.6927 -1.7759  0.2607
  273MOL   H12233306   5.739   0.514   4.308  0.1490  2.0872 -0.4165
  274MOL     C133307   6.431   2.605   6.069 -0.0910  0.0468  0.2019
  274MOL     C233308   6.382   2.749   6.071 -0.4934 -0.6879  0.1921
  274MOL     F333309   6.258   2.775   6.017  0.6430 -0.1625 -0.0225
  274MOL     H433310   6.363   2.538   6.122 -1.1665 -0.5218 -1.8214
  274MOL     H533311   6.531   2.606   6.111 -1.1032 -1.7540  2.7819
  274MOL     H633312   6.452   2.807   6.011 -3.1348  1.1906 -1.1759
  274MOL     H733313   6.434   2.570   5.965  2.2255 -1.5238  0.7747
  274MOL     C833314   6.368   2.805   6.213  0.2474  0.0205  0.5311
  274MOL     C933315   6.363   2.956   6.226  0.9313  0.4081 -0.0779
  274MOL    F1033316   6.306   2.986   6.342  0.3814  0.2191  0.4721
  274MOL    H1133317   6.283   2.772   6.273  1.0400  0.0543  1.6971
  274MOL    H1233318   6.446   2.765   6.279 -2.0733 -1.1481  2.6411
  274MOL    H1333319   6.289   2.990   6.153 -0.2928 -1.2446  0.3558
  274MOL    C1433320   6.495   3.032   6.230 -0.1880 -0.4938 -0.1718
  274MOL    C1533321   6.495   3.182   6.258 -0.4005 -0.3370 -0.1622
  274MOL    F1633322   6.619   3.217   6.237 -0.0891 -0.0776  0.2988
  274MOL    H1733323   6.558   2.988   6.307 -0.8326 -2.0055 -0.4839
  274MOL    H1833324   6.546   2.990   6.143  2.1044  1.8795 -0.0367
  274MOL    H1933325   6.479   3.195   6.365 -1.6773 -0.7272 -0.2958
  274MOL    C2033326   6.401   3.255   6.162  1.3572 -0.4713  0.9339
  274MOL    C2133327   6.435   3.269   6.016 -0.1100  0.0345 -0.8858
  274MOL    F2233328   6.401   3.157   5.954  0.2803 -0.5287  0.6026
  274MOL    H2333329   6.295   3.232   6.171  0.8860  0.3563 -1.9478
  274MOL    H2433330   6.395   3.357   6.201  2.1310  0.5362 -1.4303
  274MOL    H2533331   6.542   3.291   6.008  0.2374 -0.5328  1.5591
  274MOL    C2633332   6.370   3.377   5.924 -0.1822  0.8938  0.1574
  274MOL    C2733333   6.412   3.522   5.960 -0.2883 -0.3928  0.2505
  274MOL    F2833334   6.546   3.515   5.949  0.2552 -0.3055 -0.0477
  274MOL    H2933335   6.396   3.354   5.821  2.6347  0.6371  0.8976
  274MOL    H3033336   6.262   3.373   5.938 -0.1510  1.0664  0.4572
  274MOL    H3133337   6.397   3.550   6.064 -0.3588  1.1695 -0.1774
  274MOL    C3233338   6.348   3.622   5.866  1.0555  0.4242  0.2310
  274MOL    C3333339   6.355   3.764   5.920  0.5706  0.0356 -0.5617
  274MOL    F3433340   6.480   3.803   5.959  0.3660  0.1812 -0.1693
  274MOL    H3533341   6.396   3.607   5.769  1.4008  0.6404  0.3676
  274MOL    H3633342   6.242   3.597   5.855  0.6161  2.4259 -0.3327
  274MOL    H3733343   6.289   3.772   6.007  2.1168 -0.2858  0.6673
  274MOL    C3833344   6.294   3.883   5.830 -0.1603  0.5137 -0.2833
  274MOL    C3933345   6.262   4.020   5.905  0.6172  0.2577  0.2830
  274MOL    F4033346   6.155   3.999   5.979  0.4030 -0.2164 -0.3330
  274MOL    H4133347   6.367   3.895   5.750 -0.5922  0.7057 -0.6461
  274MOL    H4233348   6.209   3.846   5.774 -0.4243 -0.1608  0.5486
  274MOL    H4333349   6.223   4.095   5.836  0.6210 -0.5237 -0.5912
  274MOL    C4433350   6.370   4.071   6.007  0.6966  0.3845 -0.3393
  274MOL    C4533351   6.334   4.216   6.055 -0.0187  0.5967  0.3751
  274MOL    F4633352   6.414   4.246   6.155 -0.0091 -0.2505  0.2704
  274MOL    H4733353   6.376   4.003   6.092  0.6608  1.9129  0.9015
  274MOL    H4833354   6.474   4.070   5.974  0.7761 -1.3101 -0.1209
  274MOL    H4933355   6.234   4.226   6.096 -1.3534  1.0708 -2.8557
  274MOL    C5033356   6.354   4.325   5.952 -0.2606  0.2663  0.1362
  274MOL    C5133357   6.289   4.462   5.993  0.2497 -0.1967  0.0415
  274MOL    F5233358   6.167   4.428   6.026 -0.0044 -0.0079 -0.7476
  274MOL    H5333359   6.460   4.333   5.926 -0.0064 -0.8072  0.8167
  274MOL    H5433360   6.307   4.296   5.858 -0.7020  0.2328  0.3679
  274MOL    H5533361   6.283   4.534   5.911 -0.6428 -1.3013 -0.8694
  274MOL    C5633362   6.340   4.537   6.113 -0.4619  0.2127 -0.7063
  274MOL    C5733363   6.485   4.601   6.095  0.2122 -0.5714  0.5198
  274MOL    F5833364   6.488   4.664   5.975 -0.0298  0.3065  0.1924
  274MOL    H5933365   6.282   4.628   6.128  1.5317  1.2447  1.1810
  274MOL    H6033366   6.335   4.488   6.210 -1.2166  0.9209 -0.3783
  274MOL    H6133367   6.547   4.513   6.077  0.5567  0.2498 -2.7233
  274MOL    C6233368   6.530   4.682   6.212  0.2304 -0.0857  0.2360
  274MOL    C6333369   6.576   4.598   6.337 -0.6466 -0.7798 -0.1628
  274MOL    F6433370   6.691   4.537   6.301  0.1731 -0.1468 -0.0544
  274MOL    H6533371   6.606   4.755   6.181  0.8238 -2.3538 -4.0931
  274MOL    H6633372   6.440   4.741   6.229 -1.4975 -2.3149 -0.9763
  274MOL    H6733373   6.501   4.526   6.368 -2.4041  0.2197 -1.9452
  274MOL    C6833374   6.610   4.697   6.452 -0.1703  0.3950  0.1197
  274MOL    C6933375   6.497   4.759   6.524  0.2695 -0.5060  0.0098
  274MOL    F7033376   6.421   4.675   6.588  0.2381  0.4845  0.0461
  274MOL    H7133377   6.663   4.634   6.524 -2.0755  0.2870  1.4478
  274MOL    H7233378   6.675   4.770   6.403 -1.6171 -1.1422 -4.3856
  274MOL    H7333379   6.435   4.820   6.459 -0.0753 -0.6287  0.2240
  274MOL    C7433380   6.546   4.848   6.634  0.1658 -0.1233 -0.4050
  274MOL    C7533381   6.631   4.973   6.595 -0.0031  0.4246 -0.2415
  274MOL    F7633382   6.570   5.030   6.485  0.3470  0.4571  0.6542
  274MOL    H7733383   6.464   4.884   6.696  1.3637 -1.8347  2.2757
  274MOL    H7833384   6.598   4.785   6.706 -1.7397 -0.6399  0.5217
  274MOL    H7933385   6.728   4.941   6.558 -0.3812 -2.1363  0.9195
  274MOL    C8033386   6.649   5.077   6.709 -0.0365  0.1755  0.4455
  274MOL    C8133387   6.750   5.196   6.678 -0.9769  0.3165  0.4724
  274MOL    F8233388   6.758   5.219   6.550 -0.7514  0.3089  0.0029
  274MOL    H8333389   6.550   5.112   6.739  1.0026  1.9845  1.8354
  274MOL    H8433390   6.686   5.024   6.797  2.0736  0.3643 -0.3116
  274MOL    H8533391   6.849   5.157   6.702 -0.7043  0.9922  0.4637
  274MOL    C8633392   6.726   5.332   6.761  0.0160 -0.2434 -1.0040
  274MOL    C8733393   6.843   5.427   6.771  0.4026 -0.2473 -0.5772
  274MOL    F8833394   6.866   5.480   6.648  0.7038 -0.0830  0.3887
  274MOL    H8933395   6.643   5.388   6.718 -0.4049 -0.2840 -0.2469
  274MOL    H9033396   6.694   5.308   6.862 -0.3348 -1.2772 -1.3631
  274MOL    H9133397   6.935   5.374   6.796  2.0039  3.3245  1.5471
  274MOL    C9233398   6.833   5.539   6.872 -0.0362  0.2492  0.2851
  274MOL    C9333399   6.918   5.514   6.999 -0.3976 -0.5878 -0.2569
  274MOL    F9433400   7.043   5.498   6.967  0.3158 -0.0829 -0.4159
  274MOL    H9533401   6.873   5.635   6.838  0.3568 -0.2976 -0.8020
  274MOL    H9633402   6.727   5.554   6.891 -0.2283  0.0230 -0.5760
  274MOL    H9733403   6.890   5.419   7.046 -0.7200  0.6514  2.1374
  274MOL    C9833404   6.911   5.623   7.103  1.3254 -0.7184 -0.0198
  274MOL    C9933405   6.781   5.624   7.200  0.3698  0.2468 -0.4027
  274MOL   F10033406   6.754   5.501   7.241 -0.2281  0.4021 -0.3307
  274MOL   H10133407   6.996   5.627   7.171  1.9941  1.1424 -0.9396
  274MOL   H10233408   6.900   5.716   7.048  1.5934 -0.4811  0.3273
  274MOL   H10333409   6.691   5.654   7.147  0.8097  1.8681 -0.2531
  274MOL   C10433410   6.811   5.705   7.328  0.4565 -0.2336 -0.7374
  274MOL   C10533411   6.702   5.703   7.439 -0.3805  0.4320  0.1493
  274MOL   F10633412   6.740   5.796   7.537  0.4350  0.5693  0.8215
  274MOL   H10733413   6.899   5.680   7.386 -0.7828 -1.8752  0.4780
  274MOL   H10833414   6.820   5.805   7.285 -1.5576  0.6880  0.8902
  274MOL   H10933415   6.695   5.604   7.482 -2.0988  0.2139 -0.5914
  274MOL   C11033416   6.563   5.742   7.388  0.0838 -0.1944 -0.0170
  274MOL   C11133417   6.447   5.732   7.487 -0.5570  0.0774  0.6443
  274MOL   F11233418   6.355   5.813   7.443  0.5057  0.0981  0.0417
  274MOL   H11333419   6.566   5.850   7.373 -0.2103 -0.2767 -0.6546
  274MOL   H11433420   6.540   5.688   7.297  1.8910 -2.2666  0.7185
  274MOL   H11533421   6.483   5.782   7.577 -0.4533  1.1458  0.0272
  274MOL   C11633422   6.395   5.588   7.502 -0.5871 -0.9965  0.2210
  274MOL   C11733423   6.306   5.571   7.625  0.4070  0.3519  0.2572
  274MOL   F11833424   6.260   5.450   7.636  0.6348 -0.3737  0.4852
  274MOL   H11933425   6.332   5.577   7.413 -0.1538  1.4314 -0.4453
  274MOL   H12033426   6.471   5.511   7.490  1.2095  1.0988 -2.7121
  274MOL   H12133427   6.217   5.634   7.624 -1.4994 -2.1462  2.7288
  274MOL   H12233428   6.355   5.599   7.718  0.5840  0.3301  0.1691
  275MOL     C133429   6.001   0.418   6.741 -0.2092 -0.4544  0.2792
  275MOL     C233430   6.129   0.502   6.751  0.0832 -0.2553 -0.3985
  275MOL     F333431   6.196   0.451   6.860 -0.3305 -0.2420  0.0438
  275MOL     H433432   5.941   0.444   6.654 -1.8396 -3.9320  0.2894
  275MOL     H533433   5.938   0.448   6.825 -2.1302  0.3324 -1.3935
  275MOL     H633434   6.097   0.604   6.774 -1.5653 -1.0104  0.7728
  275MOL     H733435   6.017   0.311   6.728 -0.5681 -0.1146 -3.4711
  275MOL     C833436   6.209   0.500   6.616  0.0205 -0.3596  0.0297
  275MOL     C933437   6.176   0.608   6.513  0.1479 -0.2492  0.1674
  275MOL    F1033438   6.231   0.720   6.551 -0.0165 -0.0723  0.5818
  275MOL    H1133439   6.311   0.523   6.648  0.9141 -2.0262 -1.5894
  275MOL    H1233440   6.219   0.403   6.569  0.3491 -1.0474  1.4858
  275MOL    H1333441   6.069   0.625   6.501  0.2791  1.6050  1.4689
  275MOL    C1433442   6.246   0.576   6.374  0.1069 -0.2930 -0.4258
  275MOL    C1533443   6.251   0.686   6.268 -1.3181 -0.2563  0.8588
  275MOL    F1633444   6.291   0.627   6.153  0.0127 -0.1784  0.2101
  275MOL    H1733445   6.351   0.548   6.378  0.3783  0.5061 -1.5282
  275MOL    H1833446   6.190   0.497   6.325 -1.3537  0.4783 -0.0422
  275MOL    H1933447   6.336   0.751   6.294 -1.7288  0.9392 -0.7139
  275MOL    C2033448   6.126   0.773   6.252 -0.0748  0.0253 -0.6596
  275MOL    C2133449   6.159   0.920   6.199 -0.7626 -0.0463  0.2388
  275MOL    F2233450   6.226   0.924   6.082 -0.2295  0.2708 -0.4562
  275MOL    H2333451   6.055   0.735   6.179 -1.0901 -1.4249  1.0447
  275MOL    H2433452   6.066   0.785   6.342  0.3994  2.0526 -0.5890
  275MOL    H2533453   6.234   0.960   6.268  0.5868 -1.9068 -0.1196
  275MOL    C2633454   6.035   1.019   6.182 -0.3987  0.3006 -0.8877
  275MOL    C2733455   5.973   1.070   6.307 -0.4566 -0.5687 -0.2840
  275MOL    F2833456   6.065   1.116   6.392 -0.5255 -0.3361  0.4569
  275MOL    H2933457   6.071   1.106   6.126  2.1376  0.1135  0.3361
  275MOL    H3033458   5.978   0.965   6.108 -1.0496  1.0583 -0.9498
  275MOL    H3133459   5.938   0.980   6.359  0.6266 -0.6381  0.3516
  275MOL    C3233460   5.865   1.172   6.283  0.2214 -0.4764 -0.2011
  275MOL    C3333461   5.730   1.129   6.215 -0.6137  0.0185 -0.0408
  275MOL    F3433462   5.673   1.033   6.295 -0.0753 -0.6849  0.4523
  275MOL    H3533463   5.846   1.234   6.371  3.4306  3.1151 -1.8969
  275MOL    H3633464   5.908   1.245   6.214  2.1561 -0.0780  1.3733
  275MOL    H3733465   5.755   1.076   6.124  0.2237  0.5937 -0.1508
  275MOL    C3833466   5.634   1.251   6.195 -0.4485  0.9494 -0.0864
  275MOL    C3933467   5.491   1.217   6.155  0.0760  0.3122 -0.3096
  275MOL    F4033468   5.420   1.189   6.264  0.0883 -0.5003 -0.5266
  275MOL    H4133469   5.629   1.306   6.290 -3.0304 -0.1316  0.4401
  275MOL    H4233470   5.679   1.317   6.121  1.1926  0.0801  0.1050
  275MOL    H4333471   5.478   1.115   6.119  2.2683  0.1006 -0.5597
  275MOL    C4433472   5.433   1.324   6.057 -0.5085  0.6019 -0.3969
  275MOL    C4533473   5.463   1.291   5.913 -0.1340  0.1856  0.1042
  275MOL    F4633474   5.403   1.179   5.878  0.0398  0.4849 -0.2930
  275MOL    H4733475   5.324   1.320   6.070 -0.4988  0.6797 -0.2947
  275MOL    H4833476   5.466   1.421   6.094  1.4139 -0.5037  0.9132
  275MOL    H4933477   5.567   1.259   5.902 -0.3568 -0.7372  0.6430
  275MOL    C5033478   5.440   1.406   5.814 -0.3861 -0.6063 -0.0834
  275MOL    C5133479   5.518   1.390   5.685 -0.3220  0.3859  0.3499
  275MOL    F5233480   5.480   1.270   5.642 -0.4246  0.2340 -0.4479
  275MOL    H5333481   5.337   1.397   5.780  0.0088 -2.4714 -0.8236
  275MOL    H5433482   5.447   1.503   5.863 -0.8030  1.3305 -3.7398
  275MOL    H5533483   5.622   1.378   5.715 -0.7316 -0.0101  1.6473
  275MOL    C5633484   5.506   1.505   5.580 -0.1984  0.0211  0.3488
  275MOL    C5733485   5.598   1.484   5.458  0.4574 -0.7727  0.0896
  275MOL    F5833486   5.547   1.368   5.398  0.1496  0.1006 -0.4734
  275MOL    H5933487   5.403   1.515   5.544 -0.0827 -1.5538 -0.4462
  275MOL    H6033488   5.540   1.602   5.616  0.6156 -0.6215  1.3314
  275MOL    H6133489   5.698   1.448   5.482  0.7223  0.3834  0.7604
  275MOL    C6233490   5.613   1.601   5.357  0.0522 -0.1552  0.0372
  275MOL    C6333491   5.714   1.708   5.405  0.3752  0.4219  0.7077
  275MOL    F6433492   5.828   1.644   5.436  0.0847 -0.2555  0.3436
  275MOL    H6533493   5.663   1.565   5.267 -0.3311 -0.8115  0.0817
  275MOL    H6633494   5.521   1.654   5.332  0.3703 -0.8123 -2.7576
  275MOL    H6733495   5.685   1.758   5.497  1.5706  1.6596  0.4249
  275MOL    C6833496   5.747   1.819   5.292 -0.4922  0.0372  0.0065
  275MOL    C6933497   5.640   1.931   5.276  0.3480  0.0839  0.2259
  275MOL    F7033498   5.650   1.997   5.392 -0.5903 -0.0732  0.0954
  275MOL    H7133499   5.840   1.867   5.323  0.0099 -0.8756 -0.0442
  275MOL    H7233500   5.754   1.779   5.191  1.1234  1.7810 -0.5839
  275MOL    H7333501   5.544   1.879   5.270  0.4007 -0.0044  0.1370
  275MOL    C7433502   5.673   2.032   5.152  0.5460  0.0966 -0.9609
  275MOL    C7533503   5.572   2.141   5.146 -0.1176 -0.0434  0.2353
  275MOL    F7633504   5.608   2.232   5.239  0.1927  0.0955 -0.5115
  275MOL    H7733505   5.773   2.075   5.156 -0.1645  1.6299  2.4878
  275MOL    H7833506   5.670   1.970   5.063  3.3530 -1.3158 -0.1336
  275MOL    H7933507   5.475   2.108   5.182 -0.5469  0.8061 -0.1165
  275MOL    C8033508   5.555   2.200   5.006  0.5499 -0.1211 -0.1844
  275MOL    C8133509   5.498   2.096   4.904  0.3407  0.5958  0.6306
  275MOL    F8233510   5.410   2.010   4.969  0.5460 -0.0849  0.1334
  275MOL    H8333511   5.491   2.288   5.004  0.5654 -0.1394 -1.8448
  275MOL    H8433512   5.651   2.240   4.973 -0.0252  0.4840 -1.1327
  275MOL    H8533513   5.583   2.034   4.875  0.9172  2.2092 -1.2864
  275MOL    C8633514   5.432   2.158   4.779  0.5589 -0.0192 -0.3400
  275MOL    C8733515   5.449   2.065   4.655  0.0601  0.0039 -0.1182
  275MOL    F8833516   5.410   1.938   4.683 -0.5538 -0.3992  0.0455
  275MOL    H8933517   5.330   2.181   4.811  1.4655  0.8535  2.0576
  275MOL    H9033518   5.474   2.258   4.765  0.0589  0.6189  2.4011
  275MOL    H9133519   5.556   2.070   4.635 -0.0734  0.2891 -0.7492
  275MOL    C9233520   5.381   2.107   4.523  0.1991 -0.4765  0.3850
  275MOL    C9333521   5.420   2.018   4.403 -0.0463  0.5758  0.1277
  275MOL    F9433522   5.372   1.897   4.431  0.0343 -0.2472  0.4918
  275MOL    H9533523   5.274   2.094   4.540  0.1253  1.0915  1.2396
  275MOL    H9633524   5.400   2.214   4.512  2.3628 -0.8425  0.2701
  275MOL    H9733525   5.529   2.012   4.402 -0.0414  0.7565 -1.5771
  275MOL    C9833526   5.359   2.054   4.272 -0.3232  0.4797 -0.3151
  275MOL    C9933527   5.426   2.017   4.149 -0.1486  0.0653 -0.3945
  275MOL   F10033528   5.555   2.056   4.152  0.4739 -0.4510  0.0655
  275MOL   H10133529   5.252   2.033   4.266 -0.0492 -1.5592  1.2757
  275MOL   H10233530   5.365   2.163   4.272  2.7689  0.3433 -0.8860
  275MOL   H10333531   5.378   2.081   4.075  0.1080 -0.0756 -0.6837
  275MOL   C10433532   5.420   1.874   4.101 -0.4547 -0.5923 -0.1263
  275MOL   C10533533   5.510   1.841   3.973 -0.4281 -0.8294  0.0040
  275MOL   F10633534   5.476   1.725   3.919 -0.7998 -0.1562 -0.1603
  275MOL   H10733535   5.452   1.804   4.178 -1.6446 -2.2784 -1.1436
  275MOL   H10833536   5.317   1.854   4.072 -0.3974 -1.9017  0.5615
  275MOL   H10933537   5.611   1.830   4.013 -0.1251  0.6315 -0.3105
  275MOL   C11033538   5.522   1.943   3.863 -0.7747  0.5274 -0.4719
  275MOL   C11133539   5.618   1.895   3.752  0.0540 -0.4192 -0.3963
  275MOL   F11233540   5.613   1.985   3.660  0.1275  0.5389  0.1859
  275MOL   H11333541   5.423   1.941   3.817 -1.6556  1.4501  1.3459
  275MOL   H11433542   5.548   2.040   3.905  4.4297 -1.1736  0.6398
  275MOL   H11533543   5.584   1.802   3.706 -2.0822 -0.0641  0.4437
  275MOL   C11633544   5.769   1.890   3.791  0.8551 -1.1852 -0.1764
  275MOL   C11733545   5.853   1.837   3.674 -0.7527 -0.4906  0.2157
  275MOL   F11833546   5.813   1.722   3.620  0.3494 -0.0666 -0.3062
  275MOL   H11933547   5.805   1.993   3.804 -1.9265 -0.6037  3.4708
  275MOL   H12033548   5.794   1.830   3.878 -0.1295 -1.5462 -0.1486
  275MOL   H12133549   5.959   1.828   3.692 -0.7451 -0.9931 -0.0589
  275MOL   H12233550   5.848   1.904   3.588 -1.4979  2.0356  2.1741
  276MOL     C133551   3.860   0.346   3.113  0.0862  0.3634  0.3585
  276MOL     C233552   3.861   0.489   3.160 -0.2035 -1.1136 -0.1800
  276MOL     F333553   3.955   0.526   3.252 -0.0162  0.5277  0.9302
  276MOL     H433554   3.956   0.328   3.064  1.4496  1.4465  2.5154
  276MOL     H533555   3.780   0.341   3.040 -0.2854  3.7307  0.4384
  276MOL     H633556   3.765   0.511   3.207 -0.4479  0.1151 -1.2409
  276MOL     H733557   3.840   0.278   3.196 -0.2943  0.0925  0.0437
  276MOL     C833558   3.880   0.593   3.056 -0.0599  0.5532  0.5121
  276MOL     C933559   3.883   0.737   3.100 -0.2307  0.2880  0.6535
  276MOL    F1033560   3.929   0.810   2.993  0.7031  0.0497  0.3160
  276MOL    H1133561   3.972   0.576   3.001 -0.8723 -0.5908 -0.5179
  276MOL    H1233562   3.810   0.573   2.974  0.8840 -0.5410 -0.0308
  276MOL    H1333563   3.969   0.756   3.164  1.5589  0.1611 -1.6253
  276MOL    C1433564   3.748   0.800   3.152 -0.4235  0.1939 -0.0280
  276MOL    C1533565   3.737   0.957   3.161 -0.1685 -0.4636 -0.7014
  276MOL    F1633566   3.610   0.986   3.191 -0.4002 -0.5246 -0.1053
  276MOL    H1733567   3.666   0.761   3.092  0.1367 -2.3250  0.7557
  276MOL    H1833568   3.719   0.768   3.252  0.4065 -2.9362 -0.7356
  276MOL    H1933569   3.761   1.001   3.064 -0.6509  0.3356 -0.4577
  276MOL    C2033570   3.838   1.018   3.249 -0.4581  0.6439  0.1428
  276MOL    C2133571   3.845   1.164   3.245 -0.3331 -1.2624  0.5491
  276MOL    F2233572   3.899   1.210   3.355 -0.3348 -0.0386 -0.4835
  276MOL    H2333573   3.824   0.987   3.353  1.9391  1.4353  0.7342
  276MOL    H2433574   3.932   0.970   3.219  0.4627  3.1195 -1.0608
  276MOL    H2533575   3.742   1.197   3.254  0.1938  1.3833 -2.2736
  276MOL    C2633576   3.924   1.230   3.127 -0.0841  0.2901 -0.1201
  276MOL    C2733577   4.074   1.264   3.145 -0.1245  0.1670 -0.6799
  276MOL    F2833578   4.142   1.149   3.163 -0.0302 -0.4952 -0.0204
  276MOL    H2933579   3.934   1.168   3.039  0.8847  2.4845 -1.5948
  276MOL    H3033580   3.870   1.314   3.084 -1.3701 -1.0610 -1.1695
  276MOL    H3133581   4.090   1.311   3.242  0.0919  1.2497 -1.2264
  276MOL    C3233582   4.139   1.353   3.040 -0.1096  0.1593  0.0266
  276MOL    C3333583   4.284   1.410   3.066 -0.1988  0.1271 -0.1929
  276MOL    F3433584   4.274   1.468   3.181  0.0847 -0.3545 -0.3913
  276MOL    H3533585   4.143   1.288   2.952 -0.8914  1.8628 -1.3003
  276MOL    H3633586   4.068   1.429   3.009 -0.4736 -0.7661 -1.4657
  276MOL    H3733587   4.306   1.493   2.999 -0.0183  1.9021  2.0086
  276MOL    C3833588   4.395   1.303   3.052 -0.7649 -0.1220 -0.0699
  276MOL    C3933589   4.541   1.353   3.087  0.4071  1.1946 -0.4213
  276MOL    F4033590   4.548   1.384   3.215  0.0193  0.5045  0.2909
  276MOL    H4133591   4.371   1.226   3.125 -1.3013 -0.0597 -0.1741
  276MOL    H4233592   4.390   1.263   2.950  1.0464 -1.1196  0.2148
  276MOL    H4333593   4.563   1.443   3.030  0.7147  0.4205 -1.5395
  276MOL    C4433594   4.644   1.241   3.061 -0.0751  0.0653 -0.4149
  276MOL    C4533595   4.792   1.279   3.058 -1.0269  0.1276  0.3369
  276MOL    F4633596   4.835   1.351   3.168  0.0371  0.2068 -0.5635
  276MOL    H4733597   4.634   1.156   3.129  2.6862 -0.3146 -0.4104
  276MOL    H4833598   4.624   1.187   2.968 -0.6878 -1.5807  0.6436
  276MOL    H4933599   4.802   1.347   2.973 -0.1512  0.6739  0.8721
  276MOL    C5033600   4.898   1.169   3.052 -0.6966  0.3175  0.5107
  276MOL    C5133601   4.870   1.065   2.944 -0.3178 -0.0273 -0.6771
  276MOL    F5233602   4.855   1.128   2.828 -0.0008 -0.3189  0.0938
  276MOL    H5333603   4.993   1.216   3.029 -0.9047  0.2146 -0.5761
  276MOL    H5433604   4.895   1.124   3.151 -2.0041 -2.5478 -0.7615
  276MOL    H5533605   4.775   1.013   2.959 -0.8454  1.1656  0.2231
  276MOL    C5633606   4.980   0.962   2.928  0.0286 -0.1711 -0.0353
  276MOL    C5733607   5.002   0.855   3.040 -0.1563  0.0442  0.5362
  276MOL    F5833608   4.884   0.800   3.056  0.0160  0.2136  0.0464
  276MOL    H5933609   4.968   0.898   2.840 -0.7322 -1.9527  1.3385
  276MOL    H6033610   5.074   1.017   2.920  1.2711 -2.3315 -0.6210
  276MOL    H6133611   5.021   0.906   3.134  0.3304  0.9697 -0.0465
  276MOL    C6233612   5.115   0.758   3.018 -0.0168  0.4347  0.1847
  276MOL    C6333613   5.154   0.675   3.135  0.2765 -0.4078  0.0029
  276MOL    F6433614   5.067   0.586   3.176 -0.0324 -0.2282 -0.0608
  276MOL    H6533615   5.098   0.691   2.934 -1.6432 -0.5918  1.3010
  276MOL    H6633616   5.205   0.812   2.989  0.2782  0.3015  0.8359
  276MOL    H6733617   5.157   0.743   3.221 -3.2956  0.0585 -0.1473
  276MOL    C6833618   5.292   0.610   3.112  0.5922 -0.2418 -1.0529
  276MOL    C6933619   5.318   0.541   2.974  0.1318  0.4030  0.6902
  276MOL    F7033620   5.334   0.622   2.871 -0.0616 -0.0452  0.1867
  276MOL    H7133621   5.360   0.693   3.129 -0.1452  0.1515  0.0449
  276MOL    H7233622   5.321   0.535   3.186  1.2015  1.4203  0.4137
  276MOL    H7333623   5.232   0.478   2.949  0.1937  1.0162 -1.1342
  276MOL    C7433624   5.432   0.441   2.977 -0.4973  0.3017  0.3703
  276MOL    C7533625   5.456   0.355   2.853  0.2623  0.0531  0.2825
  276MOL    F7633626   5.490   0.429   2.750 -0.2111 -0.1213  0.3018
  276MOL    H7733627   5.520   0.498   3.007 -1.5740  1.9463  0.4820
  276MOL    H7833628   5.418   0.371   3.060  0.7184  1.0701  1.2512
  276MOL    H7933629   5.366   0.306   2.815 -0.9721  2.6491 -0.2976
  276MOL    C8033630   5.553   0.236   2.871 -0.5780 -0.2871  0.2943
  276MOL    C8133631   5.485   0.109   2.923  0.2831 -0.0452 -0.1345
  276MOL    F8233632   5.408   0.049   2.828  0.0875 -0.5382 -0.1108
  276MOL    H8333633   5.591   0.221   2.770 -2.0184  1.9297 -0.6265
  276MOL    H8433634   5.632   0.262   2.942  1.1337 -0.0879 -1.6540
  276MOL    H8533635   5.413   0.131   3.001 -0.8167  1.2952 -1.4926
  276MOL    C8633636   5.579   8.001   2.974 -0.4091 -0.0864 -0.1222
  276MOL    C8733637   5.517   7.870   3.013  0.8226 -0.2420  0.4173
  276MOL    F8833638   5.610   7.789   3.051  0.0214  0.1482 -0.1891
  276MOL    H8933639   5.659   7.990   2.901  2.0268  1.9523  2.1413
  276MOL    H9033640   5.630   0.036   3.063 -0.0348 -1.9922  0.5001
  276MOL    H9133641   5.482   7.831   2.918  1.0781  2.4223 -0.8017
  276MOL    C9233642   5.399   7.874   3.125  0.6388 -0.1095 -0.4150
  276MOL    C9333643   5.435   7.935   3.257 -0.5113  0.0786 -0.0413
  276MOL    F9433644   5.483   0.052   3.241  0.3440  0.5455 -0.3708
  276MOL    H9533645   5.311   7.918   3.077  0.5145 -0.6110 -0.6495
  276MOL    H9633646   5.366   7.772   3.146  0.4410 -0.2364 -1.3053
  276MOL    H9733647   5.513   7.879   3.308  0.6514  0.6405 -1.1707
  276MOL    C9833648   5.320   7.947   3.354 -0.2975  0.0360  0.3312
  276MOL    C9933649   5.267   7.812   3.409 -0.4296  0.0374  0.3437
  276MOL   F10033650   5.371   7.727   3.436 -0.4080 -0.0246 -0.5492
  276MOL   H10133651   5.352   0.012   3.433 -0.4665 -0.7444  1.0730
  276MOL   H10233652   5.242   0.010   3.316 -0.1902  0.3114  0.5867
  276MOL   H10333653   5.203   7.769   3.332 -1.1718  0.0113  0.9772
  276MOL   C10433654   5.184   7.836   3.536  0.4489 -0.4693 -0.0714
  276MOL   C10533655   5.094   7.725   3.577  0.0632  0.7636  0.1456
  276MOL   F10633656   5.019   7.678   3.475  0.0632  0.0224  0.4038
  276MOL   H10733657   5.246   7.857   3.624 -0.0006  1.4434 -0.1926
  276MOL   H10833658   5.122   7.923   3.517  0.6164 -0.2009  0.5993
  276MOL   H10933659   5.019   7.762   3.647  0.0427 -1.6476  1.4567
  276MOL   C11033660   5.171   7.605   3.658  0.4424 -0.6936  0.2666
  276MOL   C11133661   5.089   7.492   3.712 -0.5645 -0.0104  0.5878
  276MOL   F11233662   5.050   7.418   3.613  0.1923  0.1972 -0.4124
  276MOL   H11333663   5.258   7.572   3.601  0.0761 -0.1166 -0.6468
  276MOL   H11433664   5.220   7.651   3.744 -1.3780 -1.2836  1.6580
  276MOL   H11533665   4.991   7.533   3.738 -1.1846  0.7513 -2.7563
  276MOL   C11633666   5.147   7.422   3.837  0.8740 -0.6133 -0.1790
  276MOL   C11733667   5.061   7.300   3.871  0.3175  0.0703  0.8935
  276MOL   F11833668   5.096   7.278   3.999  0.5281  0.4705  0.2501
  276MOL   H11933669   5.245   7.380   3.814  2.1476  0.1959  3.4324
  276MOL   H12033670   5.158   7.496   3.917 -1.7347 -0.9473  0.5473
  276MOL   H12133671   5.104   7.218   3.814  1.8414 -0.4175  2.7226
  276MOL   H12233672   4.953   7.309   3.864  0.4667  1.8720  0.6378
  277MOL     C133673   3.724   4.467   5.137 -0.4010 -0.2645 -0.1013
  277MOL     C233674   3.649   4.592   5.185 -0.5381  0.1404  0.2348
  277MOL     F333675   3.657   4.691   5.090  0.9802  0.5542 -0.0941
  277MOL     H433676   3.669   4.419   5.056 -1.1709 -2.5025  1.6970
  277MOL     H533677   3.733   4.395   5.218  0.3421 -0.4511 -0.3456
  277MOL     H633678   3.687   4.640   5.275  3.4769  2.3551 -2.4571
  277MOL     H733679   3.824   4.492   5.100  0.1092 -0.4267  1.1448
  277MOL     C833680   3.503   4.550   5.224  0.0510  0.1098 -0.6170
  277MOL     C933681   3.419   4.651   5.292  0.0050 -0.3950  0.0043
  277MOL    F1033682   3.492   4.736   5.375 -0.2639 -0.3267  0.0309
  277MOL    H1133683   3.445   4.506   5.143 -0.5962  1.5292 -0.9333
  277MOL    H1233684   3.509   4.469   5.296  1.7861 -0.2746 -1.1584
  277MOL    H1333685   3.359   4.598   5.367  1.1242 -0.4335  0.8826
  277MOL    C1433686   3.328   4.718   5.191  0.0008 -0.8554 -0.3198
  277MOL    C1533687   3.214   4.800   5.256  0.2347  0.4553  0.2028
  277MOL    F1633688   3.150   4.711   5.341 -0.2470 -0.7078  0.8395
  277MOL    H1733689   3.378   4.774   5.113  0.8255  0.5604  1.1992
  277MOL    H1833690   3.276   4.635   5.144  0.8304 -0.3219 -2.2083
  277MOL    H1933691   3.147   4.834   5.177 -0.5398 -0.3070  0.5100
  277MOL    C2033692   3.258   4.933   5.331  0.5893  0.5608  0.2663
  277MOL    C2133693   3.125   5.012   5.379 -0.0492  0.4711  0.0501
  277MOL    F2233694   3.154   5.097   5.477 -0.0532 -0.2027 -0.1968
  277MOL    H2333695   3.327   4.897   5.407  2.3775  0.4336 -1.3770
  277MOL    H2433696   3.322   4.988   5.261 -0.5858  0.7590 -0.6648
  277MOL    H2533697   3.071   4.930   5.425 -2.0693  2.2610  0.9145
  277MOL    C2633698   3.053   5.083   5.261  0.1174  0.1195  0.4420
  277MOL    C2733699   3.127   5.214   5.208  0.7140  0.5242 -0.3371
  277MOL    F2833700   3.241   5.177   5.140 -0.0015  0.1890  0.5550
  277MOL    H2933701   3.045   5.016   5.175 -2.3432  2.8053 -1.5009
  277MOL    H3033702   2.948   5.089   5.290  0.5176 -0.3134  2.0128
  277MOL    H3133703   3.162   5.273   5.293 -1.3989 -0.4894  1.3021
  277MOL    C3233704   3.021   5.299   5.130 -0.0642  0.7250  0.4730
  277MOL    C3333705   3.089   5.425   5.064 -0.1767 -0.2667 -0.4383
  277MOL    F3433706   3.008   5.468   4.967 -0.2673 -0.3146  0.9460
  277MOL    H3533707   2.975   5.232   5.059  0.6632  0.1940  0.4983
  277MOL    H3633708   2.947   5.316   5.208 -1.9075  0.8138 -1.2634
  277MOL    H3733709   3.183   5.393   5.019  0.5709 -1.0891  1.6076
  277MOL    C3833710   3.113   5.544   5.156 -0.3602 -0.2529  0.1471
  277MOL    C3933711   2.999   5.592   5.243  0.3655 -0.2107  0.7759
  277MOL    F4033712   2.983   5.511   5.339  0.0112  0.6761  0.3902
  277MOL    H4133713   3.199   5.523   5.219 -0.2813 -0.5644 -0.0642
  277MOL    H4233714   3.150   5.628   5.097  1.2670 -1.8477 -1.1332
  277MOL    H4333715   2.905   5.592   5.187 -0.9070  0.3213  2.8193
  277MOL    C4433716   3.007   5.732   5.306  0.2841 -0.0174 -0.1560
  277MOL    C4533717   2.876   5.784   5.375  0.6381  0.0942  0.3479
  277MOL    F4633718   2.899   5.902   5.434 -0.0779 -0.3313 -0.1479
  277MOL    H4733719   3.086   5.742   5.380 -0.2378  0.3250  0.3542
  277MOL    H4833720   3.044   5.800   5.229 -1.0100 -0.6491 -1.3674
  277MOL    H4933721   2.838   5.716   5.451  0.1584  2.0838  1.9315
  277MOL    C5033722   2.766   5.801   5.267 -0.8521  0.1087 -0.2005
  277MOL    C5133723   2.627   5.849   5.322 -0.0320 -0.5091 -0.3513
  277MOL    F5233724   2.631   5.968   5.379 -0.4123 -0.0374 -0.8156
  277MOL    H5333725   2.802   5.863   5.184 -0.2578 -1.0743 -0.8344
  277MOL    H5433726   2.742   5.706   5.220 -0.6864  0.6092 -1.3254
  277MOL    H5533727   2.615   5.777   5.402  1.9939 -1.4687 -0.8892
  277MOL    C5633728   2.515   5.841   5.222  0.8349  0.3018  0.3948
  277MOL    C5733729   2.385   5.926   5.262 -0.1770  0.1275  0.2445
  277MOL    F5833730   2.296   5.925   5.159 -0.5237  0.5220  0.7217
  277MOL    H5933731   2.536   5.876   5.121 -3.2513 -0.0099 -0.6505
  277MOL    H6033732   2.492   5.736   5.206  2.9413 -0.0193 -0.6703
  277MOL    H6133733   2.403   6.032   5.274 -0.5318  0.0209  1.7639
  277MOL    C6233734   2.314   5.883   5.390 -1.0237  0.4846  0.2888
  277MOL    C6333735   2.230   5.989   5.464  0.2308  0.3245  0.1737
  277MOL    F6433736   2.121   6.011   5.391  0.2235  0.5624  0.3693
  277MOL    H6533737   2.267   5.785   5.378  3.4737 -1.4120 -3.5454
  277MOL    H6633738   2.387   5.854   5.466 -0.4950 -0.7845 -0.6784
  277MOL    H6733739   2.292   6.078   5.451  1.3018 -0.8138 -3.1528
  277MOL    C6833740   2.204   5.938   5.614  0.0563 -0.1196  0.1916
  277MOL    C6933741   2.112   6.027   5.701 -0.1090 -0.2464 -0.4078
  277MOL    F7033742   2.114   5.991   5.823 -0.4801 -0.2381  0.4906
  277MOL    H7133743   2.176   5.833   5.617 -0.9187  0.0958 -0.7824
  277MOL    H7233744   2.302   5.938   5.661 -0.9806  1.0232  2.4367
  277MOL    H7333745   2.008   6.003   5.681  0.1114 -1.5959  0.0040
  277MOL    C7433746   2.145   6.175   5.699  0.4355 -0.0174 -0.3218
  277MOL    C7533747   2.030   6.276   5.735  0.4255  0.7256  0.1107
  277MOL    F7633748   2.076   6.393   5.716 -0.0299 -0.1494 -0.0645
  277MOL    H7733749   2.234   6.185   5.761  1.1788 -0.0986 -1.3556
  277MOL    H7833750   2.183   6.213   5.604 -0.1715  0.5629 -0.3369
  277MOL    H7933751   2.011   6.267   5.842  1.7109  0.2513  0.3154
  277MOL    C8033752   1.902   6.261   5.643  0.7086 -0.2114 -0.1924
  277MOL    C8133753   1.789   6.359   5.669  0.5771  0.3416  0.7687
  277MOL    F8233754   1.831   6.473   5.714  0.3115  0.5073 -0.0927
  277MOL    H8333755   1.943   6.264   5.542 -0.8688 -1.0735 -0.8908
  277MOL    H8433756   1.868   6.157   5.644 -0.9167  0.3064  0.3970
  277MOL    H8533757   1.721   6.323   5.747  1.1056  0.5064  1.3137
  277MOL    C8633758   1.695   6.382   5.549 -0.6100 -0.4260 -0.6151
  277MOL    C8733759   1.577   6.286   5.533 -0.3967 -0.9986  0.1496
  277MOL    F8833760   1.509   6.286   5.641  0.2774 -0.4356  0.3450
  277MOL    H8933761   1.658   6.484   5.558  0.4233 -0.0649 -0.4830
  277MOL    H9033762   1.752   6.383   5.456 -2.3261 -0.6266 -1.6996
  277MOL    H9133763   1.612   6.183   5.520 -0.2552 -0.9222 -0.0800
  277MOL    C9233764   1.485   6.336   5.424  0.2239  0.8312 -0.5753
  277MOL    C9333765   1.363   6.240   5.409  0.7718  0.4024  0.2580
  277MOL    F9433766   1.291   6.274   5.303 -0.7145 -0.7052 -0.2513
  277MOL    H9533767   1.454   6.438   5.447  1.7013  1.2561 -0.3958
  277MOL    H9633768   1.536   6.343   5.329  1.2812  2.3205  0.0867
  277MOL    H9733769   1.304   6.233   5.500  0.0983 -0.0640 -0.2108
  277MOL    C9833770   1.404   6.092   5.372 -1.0462 -0.1766 -0.0341
  277MOL    C9933771   1.489   6.078   5.240 -0.3945  0.8500  0.1047
  277MOL   F10033772   1.617   6.112   5.264  0.5596  0.3245 -0.3952
  277MOL   H10133773   1.445   6.022   5.445  0.7511  1.2889  0.4127
  277MOL   H10233774   1.305   6.056   5.349 -1.6002  0.1620  1.6968
  277MOL   H10333775   1.444   6.148   5.169 -0.0171  0.1077 -0.8665
  277MOL   C10433776   1.485   5.932   5.192 -0.1762 -0.1688  0.1529
  277MOL   C10533777   1.529   5.927   5.035  0.4552 -0.9139 -0.8979
  277MOL   F10633778   1.560   5.800   5.005 -0.0732  0.5106  0.0227
  277MOL   H10733779   1.558   5.878   5.251  1.0585  0.6585 -0.6083
  277MOL   H10833780   1.391   5.880   5.212 -2.1968  2.2849 -2.5867
  277MOL   H10933781   1.622   5.980   5.018 -1.7921  2.4709 -3.2712
  277MOL   C11033782   1.411   5.971   4.949 -0.1538  0.4843  0.0714
  277MOL   C11133783   1.449   6.009   4.808 -0.7182 -0.5563  0.5311
  277MOL   F11233784   1.327   6.042   4.753  0.5454 -0.4517  0.3446
  277MOL   H11333785   1.330   5.899   4.943 -0.6137  0.9476  0.6446
  277MOL   H11433786   1.361   6.063   4.981  0.5480  0.7892  0.3108
  277MOL   H11533787   1.476   5.925   4.744  2.0454  1.1649 -0.6693
  277MOL   C11633788   1.555   6.120   4.787  0.4438  0.3888 -0.2855
  277MOL   C11733789   1.514   6.262   4.836  0.3389  0.4430 -0.3445
  277MOL   F11833790   1.614   6.340   4.793 -0.1495 -0.2920  0.1809
  277MOL   H11933791   1.651   6.103   4.837  1.0004  2.6940 -0.5119
  277MOL   H12033792   1.576   6.127   4.680 -1.9956  0.1761 -0.7978
  277MOL   H12133793   1.509   6.268   4.945  1.4014  0.0650 -0.2737
  277MOL   H12233794   1.426   6.310   4.792  0.6734  1.5537  0.1871
  278MOL     C133795   6.821   1.116   0.802  0.1509 -0.1119  0.0807
  278MOL     C233796   6.960   1.150   0.868  0.2333  0.2734  0.0843
  278MOL     F333797   6.942   1.142   0.993  0.9377  0.6229 -0.5784
  278MOL     H433798   6.740   1.187   0.821 -2.1549 -2.1403 -1.7695
  278MOL     H533799   6.785   1.020   0.840 -2.3621  1.1928  1.1163
  278MOL     H633800   6.998   1.250   0.849  0.0240  0.3709  0.1745
  278MOL     H733801   6.828   1.109   0.693 -2.5855 -0.4660 -0.1043
  278MOL     C833802   7.078   1.066   0.828  0.4825 -0.2452  0.0270
  278MOL     C933803   7.119   1.067   0.674 -0.4356 -0.0746 -0.0500
  278MOL    F1033804   7.148   1.189   0.635 -0.6381 -0.2341 -0.2290
  278MOL    H1133805   7.163   1.087   0.893  1.1826  2.4181 -1.6861
  278MOL    H1233806   7.066   0.960   0.850  0.9490 -0.1504  0.7601
  278MOL    H1333807   7.035   1.030   0.615 -0.7111 -0.6341  0.6875
  278MOL    C1433808   7.247   0.981   0.650  0.2441 -0.3017  0.9029
  278MOL    C1533809   7.246   0.829   0.698 -0.2873  0.0368 -0.2828
  278MOL    F1633810   7.128   0.784   0.664 -0.0652  0.2277 -0.1310
  278MOL    H1733811   7.268   0.993   0.544  2.3098  2.6482  1.5733
  278MOL    H1833812   7.331   1.032   0.697  1.1990 -0.1163 -0.9809
  278MOL    H1933813   7.257   0.810   0.805  2.1228  3.3715  0.1630
  278MOL    C2033814   7.360   0.751   0.619 -0.2811 -0.0495  0.3546
  278MOL    C2133815   7.503   0.788   0.657  0.4524 -0.6761  0.3125
  278MOL    F2233816   7.519   0.782   0.789 -0.3980  0.1813  0.5141
  278MOL    H2333817   7.337   0.645   0.633 -0.4773 -0.2244 -1.1836
  278MOL    H2433818   7.350   0.769   0.512  0.5919 -1.1247  0.0836
  278MOL    H2533819   7.525   0.890   0.624  0.2492 -1.1342 -1.3026
  278MOL    C2633820   7.613   0.707   0.592  0.0055 -0.7413 -0.1295
  278MOL    C2733821   7.756   0.764   0.609  0.1692  0.8183  0.6176
  278MOL    F2833822   7.779   0.874   0.547 -0.3015  0.0207 -0.5227
  278MOL    H2933823   7.613   0.613   0.646  1.0559 -1.2383 -0.9845
  278MOL    H3033824   7.592   0.690   0.487  3.7547  0.3097 -1.1301
  278MOL    H3133825   7.822   0.696   0.557 -0.7023  0.4583 -0.0296
  278MOL    C3233826   7.804   0.779   0.751  0.2407 -0.4667 -0.1174
  278MOL    C3333827   7.951   0.803   0.766  0.2065 -0.0076  0.0673
  278MOL    F3433828   7.964   0.922   0.706  0.1271  0.5716  0.3759
  278MOL    H3533829   7.753   0.865   0.794 -0.3491 -2.2799  2.8967
  278MOL    H3633830   7.766   0.693   0.807  0.1814 -0.5426 -0.2725
  278MOL    H3733831   0.021   0.737   0.719  0.4827  0.3869 -0.0551
  278MOL    C3833832   7.985   0.824   0.914 -0.8171 -0.1160 -0.1522
  278MOL    C3933833   0.116   0.891   0.938  0.0133  0.2462 -1.1970
  278MOL    F4033834   0.125   0.917   1.074 -0.0254 -0.5978  0.4294
  278MOL    H4133835   7.908   0.879   0.967 -2.1246 -0.0751 -2.0493
  278MOL    H4233836   7.983   0.722   0.953 -0.4922 -0.7210 -1.6823
  278MOL    H4333837   0.127   0.989   0.891 -0.0693  1.8141  1.9310
  278MOL    C4433838   0.240   0.802   0.915  0.1340 -0.0084  0.4222
  278MOL    C4533839   0.376   0.876   0.943 -0.0388  0.5473 -0.0871
  278MOL    F4633840   0.472   0.789   0.944 -0.1033 -0.3082 -0.2505
  278MOL    H4733841   0.236   0.712   0.977 -0.1842  0.6855  1.4128
  278MOL    H4833842   0.250   0.764   0.813  1.2482  0.0463  0.5033
  278MOL    H4933843   0.374   0.929   1.038 -2.1880 -0.0429  0.2160
  278MOL    C5033844   0.410   0.977   0.835 -0.4409  0.1708  0.1595
  278MOL    C5133845   0.553   1.040   0.841  0.2631 -0.2827 -0.5273
  278MOL    F5233846   0.648   0.944   0.820  0.1117 -0.1116 -0.1418
  278MOL    H5333847   0.398   0.939   0.734  1.6314  1.2596 -0.5286
  278MOL    H5433848   0.336   1.056   0.848 -2.3895 -1.1497 -2.5490
  278MOL    H5533849   0.571   1.085   0.938 -1.7095  0.9092 -0.6927
  278MOL    C5633850   0.580   1.149   0.740 -0.2134  0.2644  0.4209
  278MOL    C5733851   0.503   1.283   0.764  0.4615  0.1386 -0.4588
  278MOL    F5833852   0.535   1.331   0.884  0.5746 -0.1681 -0.0593
  278MOL    H5933853   0.689   1.156   0.745 -0.0653 -2.1432  1.1668
  278MOL    H6033854   0.571   1.103   0.642  1.1195  1.2968 -0.2007
  278MOL    H6133855   0.396   1.264   0.757  0.7003 -1.6546  0.3861
  278MOL    C6233856   0.541   1.381   0.658 -0.3060  0.3799 -0.4771
  278MOL    C6333857   0.472   1.518   0.651 -0.2333 -0.3323 -0.0718
  278MOL    F6433858   0.529   1.605   0.571  0.3759 -0.1402  0.3640
  278MOL    H6533859   0.647   1.408   0.662 -0.3208  0.5223 -0.9858
  278MOL    H6633860   0.515   1.340   0.560  0.8674 -1.1489 -0.1704
  278MOL    H6733861   0.480   1.561   0.750 -0.8210  1.1285 -0.6426
  278MOL    C6833862   0.319   1.515   0.623  0.5414  0.7927  0.6304
  278MOL    C6933863   0.260   1.656   0.615 -0.0497 -0.0287  0.3036
  278MOL    F7033864   0.285   1.709   0.499 -0.3653 -0.0755  0.3556
  278MOL    H7133865   0.299   1.449   0.538  1.3290  0.7795  0.4490
  278MOL    H7233866   0.275   1.456   0.703  0.7048  0.6782  0.6352
  278MOL    H7333867   0.320   1.711   0.688  0.2766  1.5414 -1.0955
  278MOL    C7433868   0.109   1.663   0.625 -0.8270  0.1151  0.8183
  278MOL    C7533869   0.049   1.808   0.646  0.1404 -0.2676  0.0987
  278MOL    F7633870   0.076   1.867   0.532 -0.4839 -0.3058  0.0109
  278MOL    H7733871   0.077   1.612   0.534  1.3550 -1.6601  0.9956
  278MOL    H7833872   0.070   1.599   0.704 -1.0235 -1.9322 -0.9162
  278MOL    H7933873   0.093   1.872   0.723 -2.5544  1.5585  0.1582
  278MOL    C8033874   7.906   1.810   0.674  0.4380  0.1493 -0.7175
  278MOL    C8133875   7.836   1.951   0.698 -0.0387 -0.9107 -0.9449
  278MOL    F8233876   7.819   2.004   0.582  0.2224 -0.2654  0.7840
  278MOL    H8333877   7.838   1.754   0.609  0.3630 -1.5621  0.7873
  278MOL    H8433878   7.908   1.749   0.764  0.6811 -0.4701 -1.1408
  278MOL    H8533879   7.893   2.023   0.757 -0.1117 -1.1261 -0.6093
  278MOL    C8633880   7.694   1.940   0.760 -0.2046  0.0480 -0.3377
  278MOL    C8733881   7.703   1.905   0.905  0.6022 -0.2532 -0.2232
  278MOL    F8833882   7.779   1.995   0.956 -0.1448  0.0150  0.2479
  278MOL    H8933883   7.640   2.034   0.759 -0.2142  0.0449 -0.1730
  278MOL    H9033884   7.644   1.859   0.707  1.6707 -1.9067  0.7926
  278MOL    H9133885   7.756   1.810   0.904 -0.7898 -1.0463 -0.0159
  278MOL    C9233886   7.559   1.886   0.964 -0.2699 -0.3173  0.4200
  278MOL    C9333887   7.582   1.818   1.097 -0.6513 -0.4656  0.3203
  278MOL    F9433888   7.626   1.904   1.188 -0.2248  0.2786  0.3756
  278MOL    H9533889   7.503   1.979   0.973  0.1237  0.1295 -1.5309
  278MOL    H9633890   7.498   1.821   0.902  2.1802 -1.6624 -0.6569
  278MOL    H9733891   7.657   1.742   1.074 -0.8056 -0.3606 -0.5513
  278MOL    C9833892   7.461   1.740   1.150 -0.1202 -0.2095 -0.1655
  278MOL    C9933893   7.515   1.642   1.256  0.6015 -0.4793 -0.1950
  278MOL   F10033894   7.597   1.547   1.200  0.2816  0.4739 -0.2289
  278MOL   H10133895   7.393   1.807   1.203  0.9910 -0.2585  1.3727
  278MOL   H10233896   7.403   1.690   1.073  0.6636 -1.7177  0.1895
  278MOL   H10333897   7.422   1.595   1.288  0.9944 -0.6297  0.7461
  278MOL   C10433898   7.590   1.704   1.376 -0.9109  0.3039 -0.7340
  278MOL   C10533899   7.609   1.614   1.498 -0.7163 -0.2600 -0.2731
  278MOL   F10633900   7.691   1.679   1.582 -0.5060  0.2059  0.3457
  278MOL   H10733901   7.689   1.735   1.340  1.4254 -3.0092  2.4673
  278MOL   H10833902   7.531   1.791   1.405 -0.6466 -0.0438  0.9023
  278MOL   H10933903   7.668   1.529   1.463 -1.7053  0.1190 -2.9280
  278MOL   C11033904   7.472   1.582   1.566  0.3037 -1.0651  0.2072
  278MOL   C11133905   7.474   1.490   1.689  0.1222  0.6759 -0.9543
  278MOL   F11233906   7.344   1.472   1.731  0.0607 -0.2612 -0.2290
  278MOL   H11333907   7.434   1.677   1.603 -1.2603 -2.4648  2.3141
  278MOL   H11433908   7.395   1.544   1.498  1.0149  0.3414 -1.4425
  278MOL   H11533909   7.536   1.529   1.770 -0.3146 -2.0561  0.7594
  278MOL   C11633910   7.522   1.347   1.655  0.0153  0.2548 -0.2292
  278MOL   C11733911   7.454   1.287   1.531  0.9002 -0.8468  0.0356
  278MOL   F11833912   7.487   1.155   1.514 -0.0849  0.2305  0.0187
  278MOL   H11933913   7.631   1.336   1.652  0.3540  2.7350  1.2902
  278MOL   H12033914   7.511   1.290   1.747 -0.3997  0.6846 -0.0075
  278MOL   H12133915   7.469   1.332   1.433  0.7926  0.0067  0.4149
  278MOL   H12233916   7.347   1.290   1.550  1.1873  1.4941  1.4155
  279MOL     C133917   0.466   1.407   2.165  0.1452  0.0195  0.4839
  279MOL     C233918   0.543   1.519   2.090  0.0930 -0.2580 -0.9831
  279MOL     F333919   0.636   1.575   2.162 -0.5616 -0.0923 -0.6759
  279MOL     H433920   0.372   1.380   2.118 -0.4772 -0.5720  2.0181
  279MOL     H533921   0.444   1.426   2.270 -1.5480  1.9792 -0.2046
  279MOL     H633922   0.479   1.602   2.058 -0.5215 -1.3658 -2.6527
  279MOL     H733923   0.519   1.311   2.170 -0.6084 -0.4698 -0.6663
  279MOL     C833924   0.630   1.467   1.968 -0.4950 -0.7656  0.8416
  279MOL     C933925   0.649   1.582   1.863 -0.7457  0.0039 -0.1564
  279MOL    F1033926   0.739   1.669   1.915 -0.2865 -0.0781  0.3136
  279MOL    H1133927   0.728   1.427   1.996  0.6635  0.8494 -0.7304
  279MOL    H1233928   0.580   1.386   1.915 -2.7711  1.4864 -0.5647
  279MOL    H1333929   0.562   1.643   1.840 -0.7478 -0.4689 -1.5114
  279MOL    C1433930   0.702   1.536   1.728 -0.6986 -0.0714 -0.7115
  279MOL    C1533931   0.821   1.437   1.737 -0.2271 -0.0702  0.5246
  279MOL    F1633932   0.789   1.324   1.793  0.1179 -0.2105  0.1264
  279MOL    H1733933   0.628   1.475   1.677  0.5884 -2.7203  0.4836
  279MOL    H1833934   0.716   1.624   1.665 -0.8716 -2.1892 -3.8377
  279MOL    H1933935   0.901   1.477   1.799  0.3826 -1.2683  0.5344
  279MOL    C2033936   0.872   1.402   1.598  0.1395  0.0236  0.5076
  279MOL    C2133937   0.988   1.305   1.601 -0.2521  1.1031 -0.1615
  279MOL    F2233938   1.022   1.264   1.477  0.1456 -0.0010 -0.5481
  279MOL    H2333939   0.780   1.363   1.553 -1.2111  4.6180 -1.0593
  279MOL    H2433940   0.893   1.489   1.536  1.2659  0.4050  1.4037
  279MOL    H2533941   0.954   1.209   1.639  1.9287 -0.2560 -1.4857
  279MOL    C2633942   1.110   1.362   1.677  0.0190  0.4318  0.1009
  279MOL    C2733943   1.229   1.260   1.677  0.3690 -0.1360 -0.2714
  279MOL    F2833944   1.308   1.268   1.570 -0.1389  0.3647 -0.1037
  279MOL    H2933945   1.141   1.456   1.631  0.0400 -0.1343 -1.0838
  279MOL    H3033946   1.080   1.390   1.778 -1.9831  1.1440 -0.6625
  279MOL    H3133947   1.190   1.159   1.671 -0.2678  0.0555  0.5564
  279MOL    C3233948   1.320   1.255   1.809 -0.0843 -0.7436  0.3383
  279MOL    C3333949   1.396   1.127   1.825 -0.1388 -0.4286 -0.3719
  279MOL    F3433950   1.310   1.030   1.853 -0.4875  0.1945  0.0015
  279MOL    H3533951   1.387   1.341   1.812 -0.6757 -0.1903 -1.3304
  279MOL    H3633952   1.257   1.270   1.897  0.0843 -2.6601  0.8043
  279MOL    H3733953   1.459   1.143   1.912 -1.3818  3.0631 -0.0264
  279MOL    C3833954   1.482   1.078   1.709 -0.8317  0.1939  0.5974
  279MOL    C3933955   1.599   0.977   1.745  0.5478 -0.8534 -0.1643
  279MOL    F4033956   1.671   1.034   1.841 -0.4836 -0.0177  0.0619
  279MOL    H4133957   1.426   1.042   1.622 -2.9998 -1.7697  2.7223
  279MOL    H4233958   1.539   1.166   1.681  0.3213 -0.4507  0.8730
  279MOL    H4333959   1.668   0.963   1.662  1.0489  3.2616 -0.5622
  279MOL    C4433960   1.560   0.833   1.772 -0.1072 -0.5091 -0.3839
  279MOL    C4533961   1.496   0.748   1.670  0.2594  0.7902  0.3376
  279MOL    F4633962   1.586   0.717   1.572  0.1606  0.2559 -0.6193
  279MOL    H4733963   1.647   0.785   1.817 -0.3879  0.7393  1.5358
  279MOL    H4833964   1.490   0.832   1.856  0.9415  1.3522  0.5477
  279MOL    H4933965   1.408   0.794   1.626 -0.1308 -0.9068 -0.7031
  279MOL    C5033966   1.467   0.616   1.742  0.2440 -0.6437  0.0353
  279MOL    C5133967   1.399   0.503   1.661  0.1808  0.0140  0.7367
  279MOL    F5233968   1.400   0.397   1.730  0.0780 -0.4729 -0.0680
  279MOL    H5333969   1.559   0.579   1.785  0.4813 -0.4751 -0.3234
  279MOL    H5433970   1.407   0.637   1.831 -1.5574  0.5624 -1.4256
  279MOL    H5533971   1.453   0.475   1.571  0.0069  0.6424  0.4403
  279MOL    C5633972   1.251   0.543   1.635 -0.0761 -0.4239 -0.6135
  279MOL    C5733973   1.163   0.442   1.553  0.5559  0.8138 -0.6061
  279MOL    F5833974   1.038   0.493   1.543  0.1714  0.0808 -0.2725
  279MOL    H5933975   1.198   0.578   1.724 -1.6339 -3.0370 -0.4687
  279MOL    H6033976   1.256   0.629   1.567  2.5923 -0.0737 -0.0181
  279MOL    H6133977   1.154   0.342   1.596  2.4278  1.0945  0.4902
  279MOL    C6233978   1.225   0.425   1.407  0.5745  0.4233 -0.1724
  279MOL    C6333979   1.152   0.331   1.313 -0.2387  0.2191 -0.2531
  279MOL    F6433980   1.178   0.349   1.185  0.2007 -0.1980 -0.5225
  279MOL    H6533981   1.230   0.522   1.356  3.6273  0.6352  0.4437
  279MOL    H6633982   1.330   0.398   1.409  0.0300 -1.6950  0.9761
  279MOL    H6733983   1.044   0.347   1.317 -0.3605 -0.5474 -0.5181
  279MOL    C6833984   1.176   0.186   1.356 -0.4052  0.3132  0.0227
  279MOL    C6933985   1.133   0.077   1.257  0.1248 -0.3378 -0.0797
  279MOL    F7033986   1.203   0.088   1.143  0.5733  0.6599  0.0495
  279MOL    H7133987   1.282   0.164   1.367 -1.0450 -2.4776  0.9914
  279MOL    H7233988   1.144   0.171   1.459 -2.5361  0.1385 -0.6428
  279MOL    H7333989   1.027   0.086   1.231  0.6026  5.5619 -0.6519
  279MOL    C7433990   1.156   7.935   1.306  0.9462 -0.2491  0.2012
  279MOL    C7533991   1.099   7.827   1.212  0.5504 -0.4742 -0.6136
  279MOL    F7633992   1.180   7.831   1.099 -0.0446 -0.3626  0.3157
  279MOL    H7733993   1.262   7.913   1.318  0.9089 -1.3588 -1.4442
  279MOL    H7833994   1.106   7.922   1.402  2.4650  1.9217  1.3380
  279MOL    H7933995   0.998   7.859   1.185  1.1444 -0.0672 -2.4170
  279MOL    C8033996   1.098   7.680   1.267  0.0891  0.6568 -0.2738
  279MOL    C8133997   1.045   7.573   1.168 -1.1202 -0.5414 -0.4961
  279MOL    F8233998   1.136   7.571   1.068 -0.1343  0.3456 -0.2033
  279MOL    H8333999   1.193   7.639   1.301  0.9621  2.8246 -0.0128
  279MOL    H8434000   1.038   7.670   1.357 -2.0872 -0.9406 -1.8571
  279MOL    H8534001   0.944   7.599   1.135 -0.6025  1.6711 -0.3705
  279MOL    C8634002   1.044   7.426   1.222 -0.0190  0.2019 -0.1754
  279MOL    C8734003   0.988   7.307   1.137  0.0436  0.2624  0.2546
  279MOL    F8834004   0.872   7.347   1.077  0.0517 -0.0450 -0.1113
  279MOL    H8934005   1.145   7.400   1.253  0.3403  1.1087 -0.5669
  279MOL    H9034006   0.979   7.429   1.310  0.1837  3.5153 -0.0515
  279MOL    H9134007   0.946   7.234   1.206  1.4599  2.9553  4.1317
  279MOL    C9234008   1.079   7.242   1.040 -0.4450  0.2669  0.3004
  279MOL    C9334009   1.020   7.122   0.961  0.3357 -0.8417  0.1557
  279MOL    F9434010   1.127   7.070   0.897  0.2195 -0.0166  0.0399
  279MOL    H9534011   1.113   7.313   0.965  0.7750 -0.5119  0.0996
  279MOL    H9634012   1.161   7.197   1.096 -0.2625 -1.8859 -1.6021
  279MOL    H9734013   0.937   7.141   0.893 -0.4106 -2.1060  0.6907
  279MOL    C9834014   0.969   7.016   1.061  0.3379 -0.2633  0.2157
  279MOL    C9934015   0.946   6.877   1.004 -0.0712 -0.5829  0.2859
  279MOL   F10034016   0.912   6.789   1.100 -0.1068  0.1535  0.1563
  279MOL   H10134017   1.056   7.011   1.127 -0.7118 -0.8618  1.5636
  279MOL   H10234018   0.875   7.049   1.106  0.7372 -0.6650  1.3503
  279MOL   H10334019   1.035   6.835   0.958 -0.1821 -2.3919  1.6452
  279MOL   C10434020   0.833   6.871   0.903 -0.1069  0.1222 -0.1009
  279MOL   C10534021   0.772   6.729   0.866  0.0981 -0.1037  0.1701
  279MOL   F10634022   0.659   6.746   0.811  0.3289 -0.2327  0.2405
  279MOL   H10734023   0.749   6.926   0.947 -1.6407 -1.3045 -1.1782
  279MOL   H10834024   0.862   6.915   0.808  0.0910 -0.2726 -0.2238
  279MOL   H10934025   0.733   6.674   0.952 -3.1782  1.9374  0.0700
  279MOL   C11034026   0.853   6.646   0.764 -0.1346 -0.2363 -0.5227
  279MOL   C11134027   0.808   6.508   0.748  0.4140 -0.3809 -0.1428
  279MOL   F11234028   0.872   6.452   0.650  0.6533  0.0039 -0.2087
  279MOL   H11334029   0.864   6.697   0.668 -0.9119 -0.2238 -0.6091
  279MOL   H11434030   0.954   6.627   0.800 -0.9493  0.4370  2.2222
  279MOL   H11534031   0.708   6.532   0.712  0.3139  0.8652  0.8992
  279MOL   C11634032   0.809   6.417   0.868  0.0453 -0.0969  0.4217
  279MOL   C11734033   0.945   6.372   0.924  0.7698 -0.3528 -0.1839
  279MOL   F11834034   0.950   6.259   0.993 -0.3632  0.1824 -0.2764
  279MOL   H11934035   0.747   6.462   0.946  1.5479  1.0243  1.0048
  279MOL   H12034036   0.749   6.333   0.835 -0.8917  0.9122 -0.4683
  279MOL   H12134037   0.988   6.442   0.995 -0.1631  0.3605 -0.2962
  279MOL   H12234038   1.008   6.357   0.836  1.1232  1.2931 -0.2290
  280MOL     C134039   5.236   6.433   4.175  0.3874  0.4364 -0.3956
  280MOL     C234040   5.197   6.346   4.299  0.4483  0.3601 -0.1725
  280MOL     F334041   5.235   6.219   4.282  0.3715 -0.2469  0.1649
  280MOL     H434042   5.341   6.461   4.186  0.3251  0.4349  0.2516
  280MOL     H534043   5.190   6.532   4.169  1.5115  1.1203  1.7540
  280MOL     H634044   5.089   6.332   4.311  0.0482  1.3586 -2.3346
  280MOL     H734045   5.218   6.378   4.083  1.1732 -1.9958  0.8474
  280MOL     C834046   5.243   6.385   4.441 -0.6295  0.0733 -0.0372
  280MOL     C934047   5.184   6.517   4.478  0.0654  0.6573 -0.3739
  280MOL    F1034048   5.047   6.513   4.490  0.1486 -0.5226 -0.0250
  280MOL    H1134049   5.200   6.309   4.507 -0.2838  0.2461  0.3867
  280MOL    H1234050   5.351   6.392   4.451 -0.5887  1.4235 -1.2714
  280MOL    H1334051   5.209   6.595   4.405  1.8863 -0.7817 -1.3404
  280MOL    C1434052   5.215   6.557   4.626  0.5139 -0.7772 -0.0564
  280MOL    C1534053   5.357   6.602   4.651  0.2153  0.1661 -1.0014
  280MOL    F1634054   5.400   6.679   4.552 -0.5362 -0.4877  0.0782
  280MOL    H1734055   5.154   6.639   4.662 -0.5215 -1.7252  0.3826
  280MOL    H1834056   5.188   6.475   4.693  0.1694  0.4526  1.3278
  280MOL    H1934057   5.426   6.518   4.653  2.6873  2.1116 -1.4730
  280MOL    C2034058   5.362   6.692   4.777  0.9978 -0.2790 -0.3912
  280MOL    C2134059   5.332   6.613   4.909  0.7276  0.0746 -0.1382
  280MOL    F2234060   5.414   6.501   4.902 -0.2679  0.7900 -0.0627
  280MOL    H2334061   5.463   6.730   4.791  0.4447  0.3301  2.1839
  280MOL    H2434062   5.297   6.780   4.771  1.3988  0.1081  0.8155
  280MOL    H2534063   5.228   6.581   4.919  0.3284  1.8489  1.7354
  280MOL    C2634064   5.347   6.688   5.040  0.2334  0.2410 -0.2338
  280MOL    C2734065   5.286   6.618   5.162  0.1949 -0.3844  0.0002
  280MOL    F2834066   5.155   6.593   5.147 -0.2751 -0.3896 -0.2960
  280MOL    H2934067   5.451   6.720   5.053 -0.2348  1.6975  0.0414
  280MOL    H3034068   5.298   6.785   5.034 -1.3879 -0.5291  0.3654
  280MOL    H3134069   5.309   6.684   5.246 -2.3640  1.2747 -0.5313
  280MOL    C3234070   5.342   6.475   5.199  0.8111 -0.3981 -0.1425
  280MOL    C3334071   5.496   6.468   5.224 -0.0179  0.4719 -0.7637
  280MOL    F3434072   5.537   6.554   5.315 -0.1797  0.1445 -0.5792
  280MOL    H3534073   5.295   6.455   5.295  0.2743 -0.7404 -0.4738
  280MOL    H3634074   5.318   6.398   5.125 -1.8373 -0.2372  0.5231
  280MOL    H3734075   5.537   6.488   5.125 -0.8698 -1.1896 -1.4669
  280MOL    C3834076   5.538   6.328   5.263  0.1717 -0.0383 -0.5756
  280MOL    C3934077   5.693   6.307   5.279  0.2565 -0.1211 -0.3354
  280MOL    F4034078   5.729   6.186   5.316  0.1673 -0.5132  1.0949
  280MOL    H4134079   5.493   6.296   5.357  1.9408 -2.7670 -0.6076
  280MOL    H4234080   5.515   6.250   5.189  2.3313 -0.4660 -0.8235
  280MOL    H4334081   5.724   6.368   5.364  1.0419 -0.6400 -0.2365
  280MOL    C4434082   5.775   6.350   5.148 -1.3136 -0.6061  0.5841
  280MOL    C4534083   5.798   6.241   5.043 -0.3979 -0.2819  0.6742
  280MOL    F4634084   5.828   6.304   4.929 -0.2532  0.1188  0.1679
  280MOL    H4734085   5.732   6.441   5.106  1.1559  1.2152  1.8751
  280MOL    H4834086   5.880   6.368   5.172 -0.7451  0.1556 -2.2232
  280MOL    H4934087   5.700   6.193   5.031 -1.7951  2.8429 -0.8041
  280MOL    C5034088   5.917   6.140   5.078  0.0294  0.3643  0.6625
  280MOL    C5134089   5.942   6.043   4.967 -0.1438  0.0823  0.5990
  280MOL    F5234090   5.988   6.116   4.862  0.0391 -0.2391  0.0298
  280MOL    H5334091   6.013   6.190   5.088 -0.0855  0.6267  0.4503
  280MOL    H5434092   5.882   6.082   5.164  1.0812 -1.7837 -0.3067
  280MOL    H5534093   5.850   5.990   4.946 -0.9118  1.1544  1.1748
  280MOL    C5634094   6.051   5.941   5.008  0.2491 -0.4030 -0.5745
  280MOL    C5734095   6.079   5.838   4.890 -0.2069 -0.3691  0.0356
  280MOL    F5834096   6.161   5.896   4.802  0.1029  0.2934  0.0536
  280MOL    H5934097   6.147   5.987   5.033 -0.0856  0.1962 -0.3868
  280MOL    H6034098   6.027   5.892   5.102 -1.7127 -1.3916 -1.5587
  280MOL    H6134099   6.001   5.789   4.831  0.0176 -0.0399 -0.5420
  280MOL    C6234100   6.166   5.720   4.946 -0.4590 -0.4547  0.0347
  280MOL    C6334101   6.069   5.612   4.998 -1.3894  0.4671 -0.6428
  280MOL    F6434102   5.999   5.564   4.896  0.3862  0.5492 -0.1851
  280MOL    H6534103   6.226   5.680   4.864 -1.2275 -1.3354 -0.1079
  280MOL    H6634104   6.239   5.749   5.023  2.2922 -0.8906 -2.3215
  280MOL    H6734105   5.999   5.664   5.064 -2.1445  2.1074 -2.7072
  280MOL    C6834106   6.136   5.492   5.065 -0.4478 -0.2367 -0.0165
  280MOL    C6934107   6.036   5.382   5.132  0.1084 -0.1196 -0.2300
  280MOL    F7034108   5.964   5.461   5.213  0.3231  0.3201 -0.3205
  280MOL    H7134109   6.200   5.445   4.991 -1.3977 -1.3875 -0.1271
  280MOL    H7234110   6.207   5.532   5.138  1.7350  0.5487 -2.5029
  280MOL    H7334111   6.084   5.308   5.196  0.5861 -1.0279 -1.6255
  280MOL    C7434112   5.945   5.311   5.033  0.2158 -0.2213  0.3032
  280MOL    C7534113   6.010   5.240   4.916 -0.2066  0.6211 -0.5606
  280MOL    F7634114   6.127   5.178   4.950 -0.1142  0.5538 -0.0071
  280MOL    H7734115   5.873   5.246   5.082 -1.2077  0.7181 -0.5027
  280MOL    H7834116   5.876   5.386   4.994 -0.6253 -0.5691  1.1186
  280MOL    H7934117   6.044   5.312   4.841  2.3968  0.9897  0.9239
  280MOL    C8034118   5.910   5.142   4.847 -0.7457 -0.1384  0.3904
  280MOL    C8134119   5.771   5.186   4.813 -0.1460  0.5139  0.0268
  280MOL    F8234120   5.773   5.309   4.758 -0.1232  0.2574  0.1958
  280MOL    H8334121   5.951   5.111   4.751 -0.1254 -1.2148  0.9849
  280MOL    H8434122   5.905   5.058   4.917  2.0595 -1.1648 -0.5441
  280MOL    H8534123   5.716   5.203   4.906 -0.5085 -1.4432  0.1927
  280MOL    C8634124   5.679   5.091   4.726 -0.2365 -0.3611 -0.7056
  280MOL    C8734125   5.662   4.953   4.791  0.2106 -0.2387  0.1735
  280MOL    F8834126   5.626   4.972   4.915 -0.8757 -0.1557 -0.0804
  280MOL    H8934127   5.579   5.135   4.716 -0.3324 -0.0224  1.6479
  280MOL    H9034128   5.727   5.067   4.631  0.0339  0.0459 -0.6727
  280MOL    H9134129   5.760   4.906   4.793  1.1477  1.6998  2.9059
  280MOL    C9234130   5.555   4.869   4.717  0.3063 -0.7231  0.6919
  280MOL    C9334131   5.593   4.818   4.580 -0.2472 -0.3017 -0.4434
  280MOL    F9434132   5.716   4.770   4.589  0.0030 -0.2816 -0.4317
  280MOL    H9534133   5.533   4.778   4.773 -1.1987 -1.0796 -0.4883
  280MOL    H9634134   5.460   4.920   4.705  1.5978  1.4157 -0.8746
  280MOL    H9734135   5.617   4.899   4.512 -0.3525  0.1005 -0.0014
  280MOL    C9834136   5.484   4.728   4.519  0.2935 -0.3231  0.3217
  280MOL    C9934137   5.535   4.664   4.387 -0.2549  1.0537  0.1058
  280MOL   F10034138   5.633   4.574   4.415 -0.4001 -0.0583 -0.1552
  280MOL   H10134139   5.456   4.654   4.593  0.7104  0.1725  0.9893
  280MOL   H10234140   5.397   4.792   4.500 -0.0772 -0.7152  0.6909
  280MOL   H10334141   5.583   4.730   4.314 -0.1721 -0.7255 -1.4877
  280MOL   C10434142   5.416   4.592   4.323  0.6825  0.1942 -0.8638
  280MOL   C10534143   5.421   4.549   4.180 -0.4853  0.0011  0.4294
  280MOL   F10634144   5.437   4.649   4.097 -0.5636 -0.1437 -0.1091
  280MOL   H10734145   5.393   4.504   4.383  0.8834  0.6628 -0.0892
  280MOL   H10834146   5.326   4.653   4.329  1.0293  0.6938 -0.7886
  280MOL   H10934147   5.332   4.489   4.164 -0.4740 -0.0663  0.6121
  280MOL   C11034148   5.539   4.449   4.144  0.2515  0.1204 -0.2321
  280MOL   C11134149   5.542   4.310   4.210 -0.3423 -0.1630 -0.3122
  280MOL   F11234150   5.422   4.254   4.193  0.4492 -0.7536 -0.1273
  280MOL   H11334151   5.540   4.436   4.036 -2.6336 -1.1594 -0.1427
  280MOL   H11434152   5.638   4.494   4.157  1.1846 -1.4227 -1.7327
  280MOL   H11534153   5.566   4.319   4.316  0.2588  2.9755 -0.6506
  280MOL   C11634154   5.655   4.216   4.142  0.2952  0.0211 -0.1444
  280MOL   C11734155   5.663   4.067   4.200  0.3996 -1.0905 -0.7279
  280MOL   F11834156   5.758   4.007   4.127  0.0700 -0.1712  0.1238
  280MOL   H11934157   5.646   4.220   4.034 -0.7207 -0.1870 -0.0699
  280MOL   H12034158   5.752   4.260   4.166  1.1847 -1.6400 -0.6362
  280MOL   H12134159   5.567   4.018   4.219 -1.0269  1.2542 -1.6293
  280MOL   H12234160   5.705   4.067   4.300 -0.6869  0.8444 -0.2378
  281MOL     C134161   2.160   5.326   0.335 -0.1011  0.1739 -0.5370
  281MOL     C234162   2.205   5.194   0.269 -0.2287 -0.4066  0.5172
  281MOL     F334163   2.112   5.112   0.304  0.1723  0.7040 -0.3314
  281MOL     H434164   2.162   5.316   0.443 -1.1188  0.0260 -0.5317
  281MOL     H534165   2.056   5.350   0.314 -0.0940 -0.2998 -1.1535
  281MOL     H634166   2.297   5.164   0.319 -0.5169 -1.4988  0.4146
  281MOL     H734167   2.225   5.407   0.302  1.9792 -1.4364 -0.5122
  281MOL     C834168   2.217   5.186   0.110 -0.5418 -0.0738  0.1976
  281MOL     C934169   2.338   5.243   0.040  0.2150  0.0704 -0.0264
  281MOL    F1034170   2.357   5.368   0.078 -0.0505 -0.0415  0.1993
  281MOL    H1134171   2.209   5.081   0.085 -2.5384  0.6252 -2.2722
  281MOL    H1234172   2.128   5.242   0.079  0.0334 -0.5911 -2.4811
  281MOL    H1334173   2.319   5.253   7.936 -0.1236 -2.0874 -0.1846
  281MOL    C1434174   2.466   5.157   0.060  0.1597  1.1091 -0.0327
  281MOL    C1534175   2.591   5.191   7.980  0.4533  0.7431  0.3051
  281MOL    F1634176   2.620   5.311   0.014 -0.2200  0.1783  0.1547
  281MOL    H1734177   2.486   5.154   0.167 -1.4122 -1.6668  0.2236
  281MOL    H1834178   2.432   5.055   0.042 -2.1516  1.8665 -0.2018
  281MOL    H1934179   2.573   5.190   7.872  1.0322 -1.3487  0.2182
  281MOL    C2034180   2.709   5.099   0.001  0.3787 -0.2483  0.1369
  281MOL    C2134181   2.837   5.130   7.918 -0.2079  0.1798 -1.1071
  281MOL    F2234182   2.859   5.262   7.922  0.1068 -0.0863 -0.1934
  281MOL    H2334183   2.733   5.091   0.107 -1.1658  1.1721  0.6132
  281MOL    H2434184   2.678   5.000   7.971  2.0382 -0.8993  0.4837
  281MOL    H2534185   2.816   5.100   7.816 -2.5793 -0.5308 -0.4486
  281MOL    C2634186   2.968   5.067   7.968  0.0740 -0.4107  0.0402
  281MOL    C2734187   3.054   5.047   7.843 -0.0666  0.6099  0.2272
  281MOL    F2834188   3.005   4.952   7.762 -0.4057  0.0789  0.4604
  281MOL    H2934189   3.009   5.132   0.042 -0.3338  1.8042 -1.5631
  281MOL    H3034190   2.961   4.972   0.018  0.3922  0.3746  1.4915
  281MOL    H3134191   3.149   5.006   7.877  0.2219  0.1705 -1.0814
  281MOL    C3234192   3.094   5.176   7.755  0.0801  0.4809  0.0136
  281MOL    C3334193   3.136   5.295   7.839  0.0946 -0.6814  0.5234
  281MOL    F3434194   3.242   5.254   7.917  0.2752 -0.0424  0.0971
  281MOL    H3534195   3.176   5.151   7.688 -0.7050 -2.2082  0.0212
  281MOL    H3634196   3.023   5.221   7.686 -0.4571 -0.8482 -0.3181
  281MOL    H3734197   3.064   5.339   7.908 -0.9693  0.5026 -1.3266
  281MOL    C3834198   3.184   5.405   7.743 -0.6220 -0.0146  0.3914
  281MOL    C3934199   3.224   5.536   7.809  0.1570 -0.3230 -0.4593
  281MOL    F4034200   3.336   5.529   7.881  0.3717  0.1850 -0.0273
  281MOL    H4134201   3.270   5.360   7.694  1.6258  0.9833  3.2221
  281MOL    H4234202   3.108   5.432   7.670 -1.2147 -0.5138  0.8143
  281MOL    H4334203   3.140   5.576   7.866  0.5804  0.1963 -0.1948
  281MOL    C4434204   3.249   5.665   7.724 -0.0856 -0.1790 -0.2363
  281MOL    C4534205   3.358   5.645   7.616 -0.3307 -0.6744 -0.4911
  281MOL    F4634206   3.320   5.542   7.544  0.2095 -0.7501 -0.2416
  281MOL    H4734207   3.158   5.711   7.684  1.6991  2.7971 -1.0048
  281MOL    H4834208   3.279   5.741   7.795 -0.1806  0.0855 -0.4792
  281MOL    H4934209   3.453   5.616   7.661 -0.9857  0.3637  1.6214
  281MOL    C5034210   3.376   5.764   7.527 -0.1965  0.4811 -0.3308
  281MOL    C5134211   3.434   5.880   7.605  0.0449 -0.2983 -0.4704
  281MOL    F5234212   3.565   5.848   7.636  0.6315  0.0574 -0.1638
  281MOL    H5334213   3.441   5.750   7.441 -0.0232 -0.6534 -0.0187
  281MOL    H5434214   3.282   5.790   7.481  1.6251  1.8657 -3.4108
  281MOL    H5534215   3.372   5.898   7.692 -1.3848  0.6983 -1.6597
  281MOL    C5634216   3.450   6.021   7.528  0.4957 -1.1917 -0.0224
  281MOL    C5734217   3.407   6.147   7.603 -0.5133  0.7515 -0.0830
  281MOL    F5834218   3.281   6.139   7.625  0.1689  0.3170 -0.3022
  281MOL    H5934219   3.552   6.041   7.496 -0.5257  3.0296 -0.8515
  281MOL    H6034220   3.399   6.021   7.432  2.0657 -1.1896 -0.8746
  281MOL    H6134221   3.426   6.234   7.539  0.4330  0.9783  0.4886
  281MOL    C6234222   3.478   6.154   7.742 -0.1573 -0.5194  0.0331
  281MOL    C6334223   3.426   6.268   7.835 -0.3181 -0.0812  0.2037
  281MOL    F6434224   3.305   6.234   7.886 -0.5021 -0.3213  0.1105
  281MOL    H6534225   3.487   6.055   7.786  0.0724 -0.3392  0.3963
  281MOL    H6634226   3.584   6.167   7.721  0.0719 -0.1025  1.4051
  281MOL    H6734227   3.399   6.360   7.783 -2.4070  0.6261  2.4281
  281MOL    C6834228   3.522   6.296   7.956 -0.2303 -0.1968 -0.5873
  281MOL    C6934229   3.481   6.412   0.049  0.6499 -0.5940  0.0092
  281MOL    F7034230   3.556   6.426   0.155  0.2801  0.5864 -0.0521
  281MOL    H7134231   3.531   6.204   0.011  0.8440  0.2813  0.0261
  281MOL    H7234232   3.620   6.320   7.915  0.6154 -1.0686  0.8775
  281MOL    H7334233   3.390   6.376   0.096  1.3570 -2.0266  0.3118
  281MOL    C7434234   3.446   6.546   7.984 -0.1024  0.0743 -0.4281
  281MOL    C7534235   3.408   6.653   0.091 -0.0040 -0.0252  0.6377
  281MOL    F7634236   3.396   6.771   0.024  0.0708  0.0787 -0.4548
  281MOL    H7734237   3.531   6.577   7.923 -0.2624  0.2427 -0.5629
  281MOL    H7834238   3.365   6.533   7.912 -1.5687  0.1621  1.1809
  281MOL    H7934239   3.501   6.666   0.146  0.5882 -0.7514 -0.1641
  281MOL    C8034240   3.275   6.630   0.158 -0.9392  0.0763 -0.3910
  281MOL    C8134241   3.239   6.725   0.265  0.0676  0.3148 -0.0378
  281MOL    F8234242   3.192   6.835   0.207 -0.5595 -0.7033 -0.3606
  281MOL    H8334243   3.194   6.630   0.085 -0.8531 -1.2534 -0.4949
  281MOL    H8434244   3.262   6.529   0.198 -2.2317  0.5575  0.4679
  281MOL    H8534245   3.327   6.754   0.322 -0.6616  1.8372  0.3575
  281MOL    C8634246   3.135   6.684   0.369  0.5361  0.0776 -0.8734
  281MOL    C8734247   3.123   6.782   0.481  0.3075  0.0825 -0.3175
  281MOL    F8834248   3.069   6.882   0.424 -0.1881  0.5794 -0.2788
  281MOL    H8934249   3.046   6.662   0.310 -0.2056 -0.1805  0.3348
  281MOL    H9034250   3.164   6.592   0.419 -2.3475  0.5971  1.9217
  281MOL    H9134251   3.220   6.807   0.524 -0.3301  1.0428  0.5963
  281MOL    C9234252   3.021   6.736   0.594  0.1633  0.3664  0.0607
  281MOL    C9334253   3.067   6.625   0.690  0.2191  0.0344  0.3093
  281MOL    F9434254   3.170   6.667   0.756 -0.1024  0.1015  0.4263
  281MOL    H9534255   2.995   6.821   0.657 -3.4060 -0.2492 -0.4564
  281MOL    H9634256   2.926   6.699   0.555  0.5037 -0.8228  0.3629
  281MOL    H9734257   3.092   6.540   0.627 -1.9507  0.9155 -1.8213
  281MOL    C9834258   2.962   6.572   0.789 -0.2031  0.4795 -0.1616
  281MOL    C9934259   2.826   6.531   0.729 -0.0862 -0.3189 -0.0461
  281MOL   F10034260   2.842   6.460   0.611 -0.3403  0.2674 -0.5616
  281MOL   H10134261   3.008   6.485   0.837 -0.5796  0.0718 -0.5418
  281MOL   H10234262   2.948   6.641   0.872  0.0671  0.7621 -0.3509
  281MOL   H10334263   2.775   6.625   0.707 -1.7474 -0.7452  1.7785
  281MOL   C10434264   2.733   6.444   0.819  0.2908 -0.0059 -0.2961
  281MOL   C10534265   2.722   6.479   0.971 -0.0890 -0.2485 -0.5570
  281MOL   F10634266   2.664   6.604   0.989 -0.6108  0.7628  0.1015
  281MOL   H10734267   2.632   6.455   0.781 -0.7565 -1.7056  1.8689
  281MOL   H10834268   2.758   6.338   0.809  1.7513  0.5405 -2.9886
  281MOL   H10934269   2.821   6.477   1.017 -1.0276 -0.3926  1.5629
  281MOL   C11034270   2.631   6.382   1.047  0.4036  0.0226 -0.3717
  281MOL   C11134271   2.630   6.387   1.198  0.7755 -0.1730 -0.2300
  281MOL   F11234272   2.540   6.302   1.256 -0.1211 -0.3495 -0.3640
  281MOL   H11334273   2.529   6.408   1.021  0.3954 -0.2139 -0.5832
  281MOL   H11434274   2.640   6.277   1.016  1.0165 -0.2618  0.7216
  281MOL   H11534275   2.592   6.488   1.213 -0.3010 -0.7860  1.2395
  281MOL   C11634276   2.770   6.382   1.265 -0.0488 -0.6521  0.6009
  281MOL   C11734277   2.762   6.441   1.405 -0.6037  0.1816  0.1880
  281MOL   F11834278   2.870   6.407   1.474  0.4460 -0.3460 -0.3454
  281MOL   H11934279   2.813   6.281   1.260  1.8576  0.1101  1.0368
  281MOL   H12034280   2.837   6.451   1.215  0.1506 -1.2768 -0.0027
  281MOL   H12134281   2.681   6.402   1.466  0.0792  1.4687  1.9530
  281MOL   H12234282   2.760   6.549   1.393  1.8553  0.3856  1.3124
  282MOL     C134283   2.535   0.243   3.529 -0.0156 -0.0438  0.2972
  282MOL     C234284   2.428   0.362   3.516 -0.3539 -0.2836 -0.1589
  282MOL     F334285   2.496   0.480   3.534 -0.2788 -0.3059  0.4323
  282MOL     H434286   2.492   0.156   3.480 -0.4494 -0.0011  0.6000
  282MOL     H534287   2.555   0.218   3.633  1.2322 -2.1986 -0.4396
  282MOL     H634288   2.355   0.349   3.596  0.1549 -0.4048  0.2911
  282MOL     H734289   2.624   0.273   3.475 -0.0453  0.5534  0.5741
  282MOL     C834290   2.359   0.366   3.378  0.1917  0.4079  0.8916
  282MOL     C934291   2.262   0.485   3.379 -0.2009 -0.2399 -0.3365
  282MOL    F1034292   2.169   0.475   3.480  0.0237  0.5797  0.3671
  282MOL    H1134293   2.437   0.371   3.302 -0.1717  0.4180  0.5191
  282MOL    H1234294   2.311   0.270   3.358 -1.0450  1.2492 -0.3705
  282MOL    H1334295   2.214   0.476   3.282 -1.1653 -2.7588  0.3403
  282MOL    C1434296   2.341   0.622   3.377  0.4452 -0.1651  0.5895
  282MOL    C1534297   2.262   0.745   3.324 -0.7404 -0.2869 -0.3048
  282MOL    F1634298   2.210   0.719   3.205 -0.2341 -0.1406  0.2340
  282MOL    H1734299   2.381   0.645   3.476  2.0402  0.6923 -0.2436
  282MOL    H1834300   2.428   0.626   3.312 -0.5832 -1.6788 -0.9186
  282MOL    H1934301   2.335   0.823   3.303  0.7946 -1.6393 -0.1576
  282MOL    C2034302   2.165   0.799   3.422  0.9468  0.0657 -0.3243
  282MOL    C2134303   2.064   0.902   3.378 -0.4346 -0.0461  0.4520
  282MOL    F2234304   1.986   0.930   3.482 -0.0233 -0.6313 -0.2256
  282MOL    H2334305   2.120   0.722   3.484  1.1605  0.7116  0.6336
  282MOL    H2434306   2.230   0.843   3.497 -0.4448  1.7512 -0.1050
  282MOL    H2534307   1.993   0.864   3.303  1.1031 -0.6934 -0.7036
  282MOL    C2634308   2.129   1.029   3.311 -0.4768 -0.2022  0.3960
  282MOL    C2734309   2.228   1.117   3.392 -0.3028 -0.2905 -1.1243
  282MOL    F2834310   2.338   1.042   3.411 -0.0254  0.3631  0.6031
  282MOL    H2934311   2.174   0.997   3.217  0.8551  2.2367  0.1639
  282MOL    H3034312   2.047   1.095   3.284 -1.9884 -1.5742  1.5657
  282MOL    H3134313   2.202   1.128   3.497 -0.4289  0.8929 -1.2623
  282MOL    C3234314   2.271   1.251   3.332 -0.0196  0.1911  0.1208
  282MOL    C3334315   2.340   1.229   3.199  0.3987 -0.0838 -0.3356
  282MOL    F3434316   2.333   1.350   3.140 -0.3535  0.1212 -0.2746
  282MOL    H3534317   2.191   1.324   3.325 -0.1642 -0.0699 -1.1780
  282MOL    H3634318   2.351   1.303   3.385 -0.7256  0.3749  1.0012
  282MOL    H3734319   2.290   1.162   3.128  0.8817  1.0455 -1.7676
  282MOL    C3834320   2.490   1.198   3.205 -0.3514  0.2054  0.3706
  282MOL    C3934321   2.558   1.162   3.069  0.4938 -0.1786  0.3078
  282MOL    F4034322   2.538   1.258   2.979 -0.2422  0.6249 -0.1732
  282MOL    H4134323   2.539   1.283   3.253  0.1448  0.2723 -0.2403
  282MOL    H4234324   2.504   1.118   3.277 -0.0883  0.3375  0.4657
  282MOL    H4334325   2.512   1.070   3.033 -0.2858  0.4493 -0.3230
  282MOL    C4434326   2.709   1.150   3.090  0.3558 -0.5249 -0.7025
  282MOL    C4534327   2.791   1.099   2.963 -0.1103  0.5077 -0.2258
  282MOL    F4634328   2.770   1.186   2.863  0.3453 -0.0393  0.1029
  282MOL    H4734329   2.743   1.250   3.119 -0.1873  0.1815 -2.4398
  282MOL    H4834330   2.730   1.089   3.177 -0.5507  0.4779  0.2269
  282MOL    H4934331   2.755   1.002   2.927  3.1572 -0.1073 -2.0734
  282MOL    C5034332   2.935   1.066   2.982 -0.3607 -0.0428 -0.0611
  282MOL    C5134333   3.017   1.193   3.017 -0.0505 -1.0216  0.7018
  282MOL    F5234334   3.009   1.213   3.148 -0.2592  0.4367  0.2459
  282MOL    H5334335   2.939   0.988   3.058  0.0573  1.2231  1.2503
  282MOL    H5434336   2.972   1.021   2.890 -3.1306 -2.5985  0.0005
  282MOL    H5534337   2.975   1.284   2.976  1.9122 -1.5756 -2.6851
  282MOL    C5634338   3.168   1.167   2.996  0.2920  0.2037  0.7628
  282MOL    C5734339   3.256   1.291   3.014 -0.2424 -0.5055  0.4259
  282MOL    F5834340   3.246   1.352   3.130  0.3160  0.6100 -0.3765
  282MOL    H5934341   3.198   1.093   3.070  3.9892  1.5461  0.6796
  282MOL    H6034342   3.193   1.124   2.899  1.6270  2.8439 -0.1208
  282MOL    H6134343   3.224   1.374   2.950  2.6119 -0.1111 -0.5703
  282MOL    C6234344   3.405   1.253   2.991  0.1381 -0.8425  0.3342
  282MOL    C6334345   3.507   1.361   3.025 -0.3095 -0.1667  0.4956
  282MOL    F6434346   3.621   1.286   3.035  0.0125  0.4802 -0.6132
  282MOL    H6534347   3.418   1.165   3.054 -0.7530 -1.3734 -0.2068
  282MOL    H6634348   3.423   1.216   2.891 -3.6707 -0.6642 -0.5093
  282MOL    H6734349   3.493   1.415   3.119 -0.0941  1.2818 -0.2848
  282MOL    C6834350   3.522   1.474   2.911  0.1663  0.8660  0.3327
  282MOL    C6934351   3.643   1.570   2.929 -0.7300 -0.0606 -0.7263
  282MOL    F7034352   3.743   1.498   2.914  0.2572  0.1777 -0.6318
  282MOL    H7134353   3.531   1.428   2.813  2.4228  2.6533 -0.3501
  282MOL    H7234354   3.439   1.545   2.910 -0.4169  0.1790 -0.5997
  282MOL    H7334355   3.636   1.625   3.023 -0.8266 -2.3591  0.6756
  282MOL    C7434356   3.661   1.667   2.818 -0.5922 -0.2502  0.0551
  282MOL    C7534357   3.797   1.749   2.813  0.2408  0.3877 -0.1660
  282MOL    F7634358   3.818   1.768   2.684  0.5513 -0.1438  0.0235
  282MOL    H7734359   3.649   1.620   2.721 -0.1112 -3.0457  1.3022
  282MOL    H7834360   3.580   1.740   2.828 -0.5504  0.0658 -1.7873
  282MOL    H7934361   3.885   1.691   2.840  0.2276 -0.1832 -1.3358
  282MOL    C8034362   3.797   1.881   2.882  0.6078  0.9584 -0.7502
  282MOL    C8134363   3.795   1.868   3.042  0.2640  0.3385 -0.4865
  282MOL    F8234364   3.673   1.844   3.086 -0.4303 -0.4817 -0.7091
  282MOL    H8334365   3.893   1.926   2.859  0.0177  2.5057 -0.2600
  282MOL    H8434366   3.715   1.944   2.848  0.3649  0.8474 -0.3791
  282MOL    H8534367   3.810   1.961   3.097 -2.0577  0.4992 -0.0559
  282MOL    C8634368   3.888   1.761   3.101 -0.1218  0.0723  0.4299
  282MOL    C8734369   3.937   1.785   3.246  0.6261  0.5489  0.0017
  282MOL    F8834370   3.843   1.743   3.331 -0.6131  0.1914  0.0148
  282MOL    H8934371   3.823   1.673   3.102 -2.7781  1.9766  0.2446
  282MOL    H9034372   3.972   1.736   3.038  0.0964 -0.6418  0.9980
  282MOL    H9134373   3.944   1.893   3.259 -1.0313  0.6174  0.4874
  282MOL    C9234374   4.062   1.708   3.282  0.3830 -0.7350  0.2389
  282MOL    C9334375   4.123   1.764   3.419  0.0260  0.8039 -0.5000
  282MOL    F9434376   4.164   1.886   3.414 -0.0362  0.4237 -0.3121
  282MOL    H9534377   4.029   1.605   3.293 -0.6101 -0.5423 -0.9530
  282MOL    H9634378   4.125   1.718   3.194 -0.7477  1.6324 -0.3474
  282MOL    H9734379   4.215   1.709   3.440  0.3644  1.5274 -0.0730
  282MOL    C9834380   4.032   1.748   3.539  0.3980 -0.4489  0.2836
  282MOL    C9934381   4.113   1.763   3.672  0.5437 -0.0093 -0.5732
  282MOL   F10034382   4.144   1.896   3.687  0.4604 -0.4563  0.3952
  282MOL   H10134383   3.952   1.822   3.540 -0.8384 -1.6951 -1.9384
  282MOL   H10234384   3.980   1.652   3.535 -0.1763 -0.1858  1.3545
  282MOL   H10334385   4.205   1.704   3.674  0.8747  0.5137 -0.3898
  282MOL   C10434386   4.031   1.735   3.799  0.8864  0.6761 -1.0372
  282MOL   C10534387   4.107   1.758   3.930  0.0022  0.2276 -0.1159
  282MOL   F10634388   4.026   1.724   4.028  0.2968  0.4891 -0.3834
  282MOL   H10734389   3.943   1.799   3.806  1.0204  0.7860 -0.2896
  282MOL   H10834390   4.001   1.630   3.795 -0.4155  1.0704 -2.1731
  282MOL   H10934391   4.118   1.865   3.948  1.6150  0.6259 -3.1805
  282MOL   C11034392   4.240   1.680   3.967 -0.2883  0.2023  0.2502
  282MOL   C11134393   4.302   1.704   4.108  0.2626  0.2914  0.0741
  282MOL   F11234394   4.223   1.647   4.196 -0.7502  0.3152  0.3441
  282MOL   H11334395   4.220   1.573   3.958 -1.8105  0.6299 -1.9746
  282MOL   H11434396   4.319   1.712   3.899 -0.7234  1.6560  0.4105
  282MOL   H11534397   4.301   1.812   4.120 -0.5280  0.3940 -0.8668
  282MOL   C11634398   4.439   1.638   4.136 -0.0203 -0.0128 -0.5827
  282MOL   C11734399   4.513   1.720   4.237 -0.0524 -0.0500  0.0807
  282MOL   F11834400   4.638   1.673   4.252  0.1811  0.0497 -0.1875
  282MOL   H11934401   4.427   1.537   4.174  1.1729 -0.0715 -0.3410
  282MOL   H12034402   4.496   1.628   4.043  1.6216  2.8763  0.0456
  282MOL   H12134403   4.459   1.705   4.330  1.2520  1.0179  1.0218
  282MOL   H12234404   4.524   1.820   4.194 -2.4578  0.1104 -0.2529
  283MOL     C134405   4.223   7.927   0.067  0.0773  0.1313 -0.4098
  283MOL     C234406   4.180   0.053   7.997 -0.1906  0.3647 -0.3703
  283MOL     F334407   4.166   0.033   7.867  0.2114  0.6436  0.5724
  283MOL     H434408   4.151   7.844   0.065 -1.3730  1.3904 -1.9621
  283MOL     H534409   4.240   7.944   0.173 -1.3028 -0.0178 -0.1486
  283MOL     H634410   4.252   0.135   8.000  0.8072 -0.4928 -0.6226
  283MOL     H734411   4.319   7.888   0.035 -0.3893 -0.9942 -0.4845
  283MOL     C834412   4.047   0.102   0.054  0.2366  0.2593  0.2782
  283MOL     C934413   3.985   0.235   7.995  0.4073 -0.1850  0.1020
  283MOL    F1034414   3.860   0.247   0.035 -0.2544  0.3913 -0.1869
  283MOL    H1134415   3.978   0.021   0.028  1.2829  0.4715 -3.3829
  283MOL    H1234416   4.051   0.098   0.163  1.2143  1.5743  0.3017
  283MOL    H1334417   3.977   0.217   7.888  0.1930  0.3575  0.0288
  283MOL    C1434418   4.065   0.356   0.024  0.0122 -0.0071  0.7533
  283MOL    C1534419   4.029   0.490   7.953 -0.0930 -0.4082  0.1132
  283MOL    F1634420   4.046   0.471   7.824 -0.1056  0.0519 -0.3756
  283MOL    H1734421   4.056   0.365   0.132 -0.9568  1.5308  0.5575
  283MOL    H1834422   4.166   0.338   7.992  0.2045  0.8770  0.8301
  283MOL    H1934423   4.103   0.565   7.983 -1.8052  0.5829  1.9682
  283MOL    C2034424   3.889   0.552   7.987 -0.4279  0.2257 -0.0444
  283MOL    C2134425   3.863   0.696   7.949  0.5472 -0.1440 -0.0650
  283MOL    F2234426   3.950   0.768   0.016  0.1500  0.1606  0.7286
  283MOL    H2334427   3.806   0.496   7.946 -1.2286  0.2960  1.4428
  283MOL    H2434428   3.868   0.543   0.090  0.1721 -1.0501 -0.0275
  283MOL    H2534429   3.765   0.729   7.982 -0.3305 -1.0876 -1.6411
  283MOL    C2634430   3.881   0.741   7.802 -0.3647  0.4485  0.0727
  283MOL    C2734431   3.794   0.651   7.710  0.0483 -0.2433  0.5670
  283MOL    F2834432   3.660   0.665   7.733  0.1383  0.1917  0.1245
  283MOL    H2934433   3.851   0.845   7.787  1.9898  1.0535 -0.5474
  283MOL    H3034434   3.987   0.744   7.779 -0.4073  1.7770 -0.0046
  283MOL    H3134435   3.810   0.545   7.729 -1.1186 -0.1136  2.3410
  283MOL    C3234436   3.816   0.684   7.568 -0.1123  0.4795  0.1180
  283MOL    C3334437   3.728   0.592   7.481  0.1678  0.0992 -0.5735
  283MOL    F3434438   3.723   0.653   7.359 -0.1411 -0.2165  0.2320
  283MOL    H3534439   3.804   0.790   7.542  0.6909  0.3329 -0.9155
  283MOL    H3634440   3.919   0.676   7.533 -0.0148  4.7768 -0.9688
  283MOL    H3734441   3.621   0.590   7.504 -0.0553  0.1397 -1.5871
  283MOL    C3834442   3.789   0.449   7.460 -0.6202  0.0367  0.4276
  283MOL    C3934443   3.754   0.379   7.332 -0.0666  0.2847 -0.5928
  283MOL    F4034444   3.837   0.279   7.316 -0.4328 -0.1872  0.5882
  283MOL    H4134445   3.897   0.466   7.459 -0.4135 -0.8970 -3.5593
  283MOL    H4234446   3.776   0.378   7.541  0.3170 -2.3129 -1.4403
  283MOL    H4334447   3.772   0.445   7.248  3.1211  0.6351  0.2963
  283MOL    C4434448   3.615   0.306   7.347 -0.4117 -0.0536 -0.3827
  283MOL    C4534449   3.487   0.406   7.353  0.0764  0.2588  0.1538
  283MOL    F4634450   3.505   0.497   7.256 -0.3848 -0.0538 -0.2471
  283MOL    H4734451   3.597   0.236   7.265  1.4873  1.0713 -1.7932
  283MOL    H4834452   3.620   0.240   7.434 -1.3497 -0.5604 -0.7043
  283MOL    H4934453   3.476   0.462   7.445 -0.4205  0.2780  0.0828
  283MOL    C5034454   3.353   0.346   7.316  0.0228 -0.3338  0.6755
  283MOL    C5134455   3.286   0.267   7.435  0.3632 -0.6703  0.0978
  283MOL    F5234456   3.286   0.355   7.540  0.5887 -0.0115  0.3663
  283MOL    H5334457   3.278   0.417   7.280  1.1739  0.8566  0.6092
  283MOL    H5434458   3.364   0.271   7.237 -0.6753  0.1515  0.1025
  283MOL    H5534459   3.347   0.180   7.462  1.5435  0.0355 -0.2429
  283MOL    C5634460   3.146   0.221   7.408 -1.0021 -0.2623 -0.4772
  283MOL    C5734461   3.105   0.104   7.503  0.1027 -0.2799 -0.3926
  283MOL    F5834462   3.186   7.998   7.499  0.7259  0.0677  0.0559
  283MOL    H5934463   3.078   0.307   7.409  1.2262  1.5480 -0.3910
  283MOL    H6034464   3.148   0.195   7.302  0.1615  0.4126 -0.6359
  283MOL    H6134465   3.006   0.072   7.470  0.0238 -0.2656 -0.1722
  283MOL    C6234466   3.078   0.149   7.649 -0.0669  0.1413 -0.1108
  283MOL    C6334467   2.984   0.056   7.729 -0.1018  1.2180  0.7430
  283MOL    F6434468   3.062   7.966   7.775 -0.6352  0.2156 -0.0238
  283MOL    H6534469   3.168   0.172   7.707  1.8682  3.1207 -4.0539
  283MOL    H6634470   3.020   0.239   7.624 -1.0696 -1.2971 -3.1814
  283MOL    H6734471   2.910   0.010   7.663  0.5179  2.4544 -0.8558
  283MOL    C6834472   2.905   0.119   7.851 -1.1901  0.2469  0.0681
  283MOL    C6934473   2.799   0.033   7.916 -0.3900 -0.0032  0.0137
  283MOL    F7034474   2.717   7.991   7.814 -0.0455  0.2524 -0.6351
  283MOL    H7134475   2.965   0.160   7.932 -0.2728  2.1160 -1.5044
  283MOL    H7234476   2.861   0.212   7.816  2.1344  1.6345 -0.6939
  283MOL    H7334477   2.733   0.088   7.984  1.1139  0.3990  1.1872
  283MOL    C7434478   2.859   7.918   7.987 -0.5276 -0.3124  0.3950
  283MOL    C7534479   2.750   7.846   0.073  0.3907  0.2729  0.8219
  283MOL    F7634480   2.812   7.733   0.115  0.6471  0.3993 -0.4983
  283MOL    H7734481   2.891   7.845   7.913  0.4867 -0.0907  0.6144
  283MOL    H7834482   2.947   7.946   0.040 -1.1988  3.0809 -0.1421
  283MOL    H7934483   2.668   7.817   0.007  0.8285 -0.2424  0.5009
  283MOL    C8034484   2.703   7.915   0.196  0.6007  0.7957 -0.2856
  283MOL    C8134485   2.818   7.973   0.290 -0.2343 -0.2961 -0.6916
  283MOL    F8234486   2.850   0.089   0.240  0.2212 -0.8693  0.4492
  283MOL    H8334487   2.634   7.990   0.158  2.6775  2.9977  0.1457
  283MOL    H8434488   2.639   7.843   0.247 -3.1097  2.9267 -1.7948
  283MOL    H8534489   2.907   7.909   0.291 -0.0864 -0.1077  1.6524
  283MOL    C8634490   2.762   7.978   0.433 -0.1207 -0.1464  0.2418
  283MOL    C8734491   2.749   7.844   0.511 -0.2377 -0.5149 -0.5269
  283MOL    F8834492   2.874   7.783   0.526 -0.6945  0.0210 -0.4270
  283MOL    H8934493   2.830   0.041   0.488 -1.1085 -0.3841  1.7974
  283MOL    H9034494   2.666   0.025   0.444  0.2303  0.0904  2.6041
  283MOL    H9134495   2.676   7.776   0.466  2.3170 -2.8597 -1.3017
  283MOL    C9234496   2.688   7.874   0.658  0.4356  0.7905  0.3033
  283MOL    C9334497   2.544   7.917   0.662  0.1337 -0.2330  0.0115
  283MOL    F9434498   2.471   7.815   0.618  0.0386  0.2482 -0.2354
  283MOL    H9534499   2.699   7.785   0.721  1.6781 -0.9831 -2.3204
  283MOL    H9634500   2.757   7.947   0.702 -0.5636  2.4558 -0.8547
  283MOL    H9734501   2.526   0.007   0.607  2.0902  1.1104  1.5582
  283MOL    C9834502   2.496   7.950   0.812  0.4214  0.0177  0.6349
  283MOL    C9934503   2.345   7.962   0.826  0.5853  0.4204 -0.0972
  283MOL   F10034504   2.326   7.968   0.956  0.2607  0.1365  0.2391
  283MOL   H10134505   2.518   7.867   0.879  0.5867 -1.7481 -1.5283
  283MOL   H10234506   2.550   0.033   0.852  0.3356 -0.5235  1.9507
  283MOL   H10334507   2.286   7.875   0.798 -0.4203  0.8000  0.8148
  283MOL   C10434508   2.274   0.076   0.763 -0.4325 -0.6299  0.0769
  283MOL   C10534509   2.329   0.213   0.787  0.2996  0.0184 -0.8019
  283MOL   F10634510   2.456   0.225   0.742  0.1317  0.5462  0.7103
  283MOL   H10734511   2.273   0.064   0.655  0.4391  0.9988 -0.1216
  283MOL   H10834512   2.167   0.075   0.785 -0.4737 -2.1728 -0.1037
  283MOL   H10934513   2.331   0.231   0.894 -0.7273  0.3742 -0.8412
  283MOL   C11034514   2.235   0.309   0.710  0.6321 -0.2402  0.2576
  283MOL   C11134515   2.244   0.454   0.755 -0.3356 -0.1582  0.1677
  283MOL   F11234516   2.371   0.481   0.779  0.2129 -0.3147 -0.1850
  283MOL   H11334517   2.239   0.302   0.601  1.0350  0.1591  0.2468
  283MOL   H11434518   2.134   0.275   0.734  1.9601 -2.7609  2.5423
  283MOL   H11534519   2.190   0.464   0.850  0.8880 -1.0942  0.9755
  283MOL   C11634520   2.186   0.544   0.642  0.5485 -0.0798  0.1913
  283MOL   C11734521   2.192   0.693   0.683  0.2128  0.3048 -0.1335
  283MOL   F11834522   2.124   0.768   0.587  0.0032  0.3228  0.0675
  283MOL   H11934523   2.228   0.536   0.542  0.6716  2.0436  0.0543
  283MOL   H12034524   2.082   0.517   0.628  0.8220 -0.0163 -2.1083
  283MOL   H12134525   2.299   0.715   0.690  0.2686 -0.8168  3.3962
  283MOL   H12234526   2.152   0.708   0.783  0.9798  0.7761  0.1045
  284MOL     C134527   1.010   3.623   1.279 -0.1844 -0.0625  0.5036
  284MOL     C234528   1.093   3.611   1.408 -0.4643  0.0591 -1.1625
  284MOL     F334529   1.062   3.498   1.461  0.2623  0.2518  0.2980
  284MOL     H434530   0.903   3.626   1.298 -0.6398  0.2035 -1.9562
  284MOL     H534531   1.033   3.535   1.220  1.7069  0.5939  0.2230
  284MOL     H634532   1.063   3.684   1.484 -0.1822  0.8793 -1.8350
  284MOL     H734533   1.047   3.705   1.219 -1.0030 -0.3107 -0.3533
  284MOL     C834534   1.249   3.612   1.388 -0.2321  0.2056  0.5174
  284MOL     C934535   1.313   3.639   1.532 -0.5740 -0.3176 -0.0712
  284MOL    F1034536   1.296   3.531   1.606 -0.1045  0.6572  0.2412
  284MOL    H1134537   1.281   3.515   1.350 -0.3355 -0.3081  1.7237
  284MOL    H1234538   1.263   3.694   1.317  2.0607 -1.8300 -1.4792
  284MOL    H1334539   1.265   3.719   1.588 -0.9387 -0.1068 -0.6720
  284MOL    C1434540   1.464   3.658   1.506 -0.0892  0.1534 -0.3554
  284MOL    C1534541   1.547   3.698   1.635 -0.3312  0.1688  0.8094
  284MOL    F1634542   1.511   3.815   1.685  0.2959  0.3036  0.0969
  284MOL    H1734543   1.506   3.566   1.464 -1.2739 -0.6423  0.1767
  284MOL    H1834544   1.478   3.741   1.437 -2.5174  1.3614  0.5246
  284MOL    H1934545   1.652   3.719   1.612 -0.0118 -2.0631  0.0645
  284MOL    C2034546   1.558   3.591   1.753 -0.3194  0.1782  0.1322
  284MOL    C2134547   1.695   3.585   1.828  1.0019  0.3744 -0.7406
  284MOL    F2234548   1.664   3.533   1.950  0.4058  0.0476  0.4619
  284MOL    H2334549   1.467   3.613   1.809 -1.2799 -0.7238 -1.0424
  284MOL    H2434550   1.539   3.490   1.715  2.4692 -0.7191  1.0048
  284MOL    H2534551   1.741   3.681   1.852  0.4678  0.3599  0.3966
  284MOL    C2634552   1.806   3.492   1.769  0.2180 -0.2452 -0.1823
  284MOL    C2734553   1.875   3.532   1.637  0.0697 -0.4207  0.1785
  284MOL    F2834554   1.914   3.658   1.647  0.2321  0.0886 -0.4602
  284MOL    H2934555   1.884   3.485   1.845 -0.2570 -1.0808  0.2256
  284MOL    H3034556   1.771   3.389   1.770 -0.3079 -0.0657  0.1416
  284MOL    H3134557   1.791   3.525   1.568  0.7878  2.0511 -0.9854
  284MOL    C3234558   2.005   3.446   1.614 -0.2733 -0.0614  0.1463
  284MOL    C3334559   2.060   3.436   1.468 -0.7436 -0.7254  0.1634
  284MOL    F3434560   1.952   3.391   1.408 -0.4796  0.3255 -0.3855
  284MOL    H3534561   2.082   3.486   1.680 -0.4715  1.0616 -0.2859
  284MOL    H3634562   1.999   3.343   1.650 -3.0968 -0.4117 -1.2134
  284MOL    H3734563   2.138   3.361   1.467  1.1572  1.2159 -1.8408
  284MOL    C3834564   2.100   3.563   1.400 -0.2243 -0.1644 -0.1893
  284MOL    C3934565   2.231   3.624   1.460 -0.2275  0.3632 -0.8325
  284MOL    F4034566   2.318   3.525   1.464 -0.2917  0.0986 -0.5148
  284MOL    H4134567   2.113   3.554   1.292  1.5414  1.2651 -0.1235
  284MOL    H4234568   2.019   3.634   1.418  2.0036  1.8119  2.5575
  284MOL    H4334569   2.209   3.656   1.562  0.0158 -3.3976  0.4754
  284MOL    C4434570   2.292   3.743   1.379  0.3287 -0.4615  0.6642
  284MOL    C4534571   2.420   3.799   1.454 -0.2835 -1.2825 -0.6430
  284MOL    F4634572   2.525   3.721   1.430  0.1781 -0.4359  0.2389
  284MOL    H4734573   2.313   3.715   1.276 -0.4550 -1.7424  0.8517
  284MOL    H4834574   2.215   3.819   1.373 -0.4321 -1.3939 -1.7816
  284MOL    H4934575   2.399   3.789   1.561 -1.3273  1.4002 -0.5732
  284MOL    C5034576   2.453   3.947   1.424  0.0840  0.1770 -0.2085
  284MOL    C5134577   2.480   3.982   1.278  0.1640  0.4043  0.2156
  284MOL    F5234578   2.365   3.982   1.220  0.3103 -0.4415  0.2996
  284MOL    H5334579   2.367   4.012   1.440 -0.9770 -1.3364  0.3028
  284MOL    H5434580   2.528   3.985   1.494 -0.2033 -0.3106  0.3714
  284MOL    H5534581   2.532   3.895   1.237  0.6315  0.9203 -0.3094
  284MOL    C5634582   2.564   4.120   1.255 -0.2919  1.1508 -0.5774
  284MOL    C5734583   2.501   4.251   1.288  0.3060 -0.5947  0.3273
  284MOL    F5834584   2.480   4.259   1.420  0.2512 -0.0911 -0.1393
  284MOL    H5934585   2.663   4.100   1.297 -1.3177 -2.9786  0.1328
  284MOL    H6034586   2.578   4.136   1.148  2.7268 -2.7284 -0.9094
  284MOL    H6134587   2.403   4.267   1.245  1.3350 -1.4872 -2.4431
  284MOL    C6234588   2.582   4.378   1.262  0.1129 -0.3053  0.6336
  284MOL    C6334589   2.727   4.379   1.317  0.1017 -0.1796  0.5133
  284MOL    F6434590   2.802   4.297   1.241 -0.0303  0.1466 -0.1753
  284MOL    H6534591   2.581   4.401   1.156  1.0607  0.1972  0.7249
  284MOL    H6634592   2.526   4.459   1.310 -0.3284  1.0197 -2.0103
  284MOL    H6734593   2.709   4.345   1.419 -2.7530 -0.0513  0.1116
  284MOL    C6834594   2.797   4.526   1.321  0.1687 -0.0613 -0.1269
  284MOL    C6934595   2.937   4.530   1.379  0.4844  0.4948  0.0790
  284MOL    F7034596   3.011   4.441   1.307 -0.4426 -0.2467  0.3934
  284MOL    H7134597   2.781   4.580   1.227  0.5086 -0.3733 -0.3675
  284MOL    H7234598   2.726   4.575   1.387  0.3924 -1.5947  1.2684
  284MOL    H7334599   2.940   4.498   1.482  2.9128  1.0939  0.2264
  284MOL    C7434600   3.029   4.653   1.377  0.1546 -0.3699  0.6831
  284MOL    C7534601   2.974   4.771   1.456 -0.8391  0.7090 -0.1064
  284MOL    F7634602   2.938   4.735   1.580 -0.0370  0.0246  0.2814
  284MOL    H7734603   3.119   4.620   1.429  1.4582  3.0199  0.7051
  284MOL    H7834604   3.053   4.687   1.276 -0.9714  0.0015  0.5288
  284MOL    H7934605   2.885   4.817   1.412 -0.8063 -0.1305 -1.0607
  284MOL    C8034606   3.084   4.874   1.481  0.5160  0.3834 -0.1214
  284MOL    C8134607   3.102   4.958   1.349 -0.2172  0.4427 -0.0040
  284MOL    F8234608   2.990   5.012   1.297  0.3835 -0.1591 -0.2432
  284MOL    H8334609   3.064   4.939   1.566  1.4741 -2.0673  2.0610
  284MOL    H8434610   3.178   4.823   1.502  0.6759  0.7276 -0.0055
  284MOL    H8534611   3.134   4.885   1.274 -1.1244 -0.6252  0.6362
  284MOL    C8634612   3.228   5.057   1.349 -0.7416 -0.7033 -0.7305
  284MOL    C8734613   3.249   5.141   1.217 -0.7840 -0.0754 -0.6685
  284MOL    F8834614   3.310   5.257   1.247  0.4572  0.1864 -0.2376
  284MOL    H8934615   3.213   5.120   1.437  0.3615 -2.3903  0.7074
  284MOL    H9034616   3.317   5.000   1.378 -0.7306 -1.8936 -2.9681
  284MOL    H9134617   3.152   5.165   1.173 -0.4393  1.2424 -0.7265
  284MOL    C9234618   3.342   5.076   1.118 -0.3085 -0.6492 -0.0931
  284MOL    C9334619   3.361   5.152   0.986 -0.2547 -0.1685  0.1470
  284MOL    F9434620   3.453   5.092   0.916 -0.0210  0.2903 -0.2016
  284MOL    H9534621   3.443   5.084   1.156 -0.8505  2.3377  0.8100
  284MOL    H9634622   3.306   4.974   1.099 -2.6346  0.6553 -3.1423
  284MOL    H9734623   3.411   5.245   1.015  0.3822  0.0193 -1.5111
  284MOL    C9834624   3.244   5.177   0.894  0.2154 -0.1348  0.5096
  284MOL    C9934625   3.275   5.256   0.764  0.5505 -0.9159  0.7438
  284MOL   F10034626   3.167   5.243   0.688  0.1184  0.6688 -0.3478
  284MOL   H10134627   3.203   5.082   0.861 -4.5217  1.6384  0.7885
  284MOL   H10234628   3.159   5.211   0.954  0.7686 -1.1850  1.9022
  284MOL   H10334629   3.357   5.215   0.705  0.7915  1.5563 -0.7091
  284MOL   C10434630   3.309   5.405   0.787  0.0601  0.3998  0.8732
  284MOL   C10534631   3.202   5.488   0.870  0.3695  0.1414  0.3465
  284MOL   F10634632   3.207   5.478   1.007 -0.2109  0.3606  0.0518
  284MOL   H10734633   3.410   5.418   0.827  0.6828  0.6473 -0.7632
  284MOL   H10834634   3.317   5.446   0.687 -1.7055 -1.1564  0.0647
  284MOL   H10934635   3.102   5.451   0.848 -0.5033  2.4140  0.3531
  284MOL   C11034636   3.214   5.637   0.835  0.2058 -0.1454  0.1335
  284MOL   C11134637   3.153   5.693   0.705 -0.0957  0.2087  0.0567
  284MOL   F11234638   3.033   5.648   0.685 -0.3599 -0.1648 -0.2148
  284MOL   H11334639   3.158   5.690   0.913  1.3682  0.0933  0.8193
  284MOL   H11434640   3.320   5.664   0.843  0.3502 -0.9956  1.2473
  284MOL   H11534641   3.219   5.666   0.622 -1.3833  1.3774 -1.3858
  284MOL   C11634642   3.137   5.847   0.715 -0.1551 -0.7789  0.2074
  284MOL   C11734643   3.100   5.910   0.585 -0.0575  0.0893  0.4296
  284MOL   F11834644   3.208   5.942   0.520 -0.5713 -0.5277 -0.0619
  284MOL   H11934645   3.065   5.880   0.790 -1.4821 -0.1296 -1.3250
  284MOL   H12034646   3.231   5.893   0.746 -0.4337 -0.7866  1.1036
  284MOL   H12134647   3.051   6.006   0.603  0.4185  0.4254 -0.0712
  284MOL   H12234648   3.044   5.838   0.525  0.6656 -0.6013  0.5662
  285MOL     C134649   6.914   6.591   3.929 -0.0492  0.4706  0.5369
  285MOL     C234650   6.861   6.504   3.814  0.0352  0.7738 -0.0768
  285MOL     F334651   6.731   6.519   3.803  0.0630  0.3855  0.2582
  285MOL     H434652   6.848   6.578   4.015  0.8206 -1.2567  0.9658
  285MOL     H534653   6.931   6.697   3.912  0.0227  0.4185  0.2699
  285MOL     H634654   6.881   6.405   3.857 -0.4906  0.0105 -1.5665
  285MOL     H734655   7.013   6.560   3.961 -0.6539 -0.8357  1.1635
  285MOL     C834656   6.922   6.518   3.679 -0.1765  0.3180  0.0291
  285MOL     C934657   7.070   6.465   3.681  0.3690  0.0980 -0.1225
  285MOL    F1034658   7.090   6.337   3.682 -0.0550  0.3529  0.3373
  285MOL    H1134659   6.865   6.461   3.607  0.8930 -0.3853 -0.2754
  285MOL    H1234660   6.922   6.621   3.646  2.8723  1.1757  2.3758
  285MOL    H1334661   7.130   6.498   3.766 -1.5387  1.2309  0.8082
  285MOL    C1434662   7.147   6.533   3.558  0.0997  0.3604  0.1446
  285MOL    C1534663   7.260   6.449   3.502 -0.3702 -0.4205  0.2745
  285MOL    F1634664   7.287   6.523   3.393  0.2593 -0.1585 -0.3309
  285MOL    H1734665   7.072   6.541   3.480  0.5422 -1.9570 -0.5653
  285MOL    H1834666   7.175   6.634   3.586 -4.3152  1.6014  0.3395
  285MOL    H1934667   7.235   6.345   3.484  0.2938 -0.3068 -1.4414
  285MOL    C2034668   7.381   6.451   3.601  0.1154  0.0319  0.5829
  285MOL    C2134669   7.491   6.363   3.558 -0.4818  0.4434  1.0118
  285MOL    F2234670   7.560   6.434   3.466  0.0530 -0.3164 -0.5831
  285MOL    H2334671   7.408   6.552   3.632  1.0079 -0.0653  0.1213
  285MOL    H2434672   7.335   6.420   3.695 -0.2587  2.7321  1.3365
  285MOL    H2534673   7.455   6.271   3.513 -0.5520  0.5964  0.7525
  285MOL    C2634674   7.602   6.339   3.661  0.0603  0.0760  0.2524
  285MOL    C2734675   7.693   6.215   3.619  0.3650 -0.2553 -0.7469
  285MOL    F2834676   7.743   6.239   3.496  0.2529  0.3167  0.2340
  285MOL    H2934677   7.675   6.420   3.666  1.1620 -0.4858 -4.2943
  285MOL    H3034678   7.564   6.323   3.762 -3.2837 -0.6685 -1.0638
  285MOL    H3134679   7.621   6.136   3.600 -0.6559 -0.2721  2.9162
  285MOL    C3234680   7.803   6.156   3.715 -0.2716  0.7028  0.3981
  285MOL    C3334681   7.914   6.267   3.738 -0.1932  0.6042 -0.8624
  285MOL    F3434682   7.859   6.359   3.822 -0.0931 -0.2513  0.9148
  285MOL    H3534683   7.762   6.145   3.816  0.5366  0.9073  0.7508
  285MOL    H3634684   7.850   6.062   3.687  0.7080  0.9197  1.2902
  285MOL    H3734685   7.935   6.328   3.651  0.6506  0.8771 -0.4759
  285MOL    C3834686   0.044   6.215   3.806  1.5974  0.3198 -0.5470
  285MOL    C3934687   0.136   6.122   3.737  0.5032 -0.0123  1.2923
  285MOL    F4034688   0.174   6.176   3.618 -0.2922  0.2241  0.1817
  285MOL    H4134689   0.102   6.306   3.814 -0.4976  1.7887 -1.3968
  285MOL    H4234690   0.011   6.178   3.903 -0.8344  0.3730 -1.3196
  285MOL    H4334691   0.093   6.025   3.714  1.7609 -0.1685 -0.4798
  285MOL    C4434692   0.257   6.086   3.825  0.2330 -0.2265  0.7561
  285MOL    C4534693   0.361   5.978   3.779  0.4221 -0.5650 -0.9217
  285MOL    F4634694   0.284   5.874   3.789 -0.0182  0.1907 -0.1410
  285MOL    H4734695   0.308   6.181   3.843 -0.3452  0.1855  0.2110
  285MOL    H4834696   0.213   6.064   3.922  0.6676  0.3577  1.0898
  285MOL    H4934697   0.442   5.976   3.852 -0.9534  1.9264  0.7805
  285MOL    C5034698   0.408   5.972   3.633  0.0097 -0.2383  0.4366
  285MOL    C5134699   0.497   6.104   3.602 -0.2099 -0.1543  0.5447
  285MOL    F5234700   0.601   6.125   3.682  0.2147 -0.2901 -0.3517
  285MOL    H5334701   0.464   5.881   3.614  1.4769  0.6027  0.6463
  285MOL    H5434702   0.329   5.968   3.558  1.0872  0.2245 -0.7516
  285MOL    H5534703   0.434   6.192   3.619  2.0936  1.8172 -0.7039
  285MOL    C5634704   0.543   6.112   3.454  0.6774  0.8834  0.2908
  285MOL    C5734705   0.653   6.022   3.411  1.1752  0.0930  0.8806
  285MOL    F5834706   0.615   5.892   3.424  0.4835 -0.7790  0.3224
  285MOL    H5934707   0.454   6.089   3.396  1.8579 -1.9760 -0.4755
  285MOL    H6034708   0.574   6.215   3.435  1.1333  0.1847 -3.0386
  285MOL    H6134709   0.743   6.029   3.473  1.8438  2.3357 -0.3114
  285MOL    C6234710   0.691   6.036   3.265  0.4820  0.6029  0.3510
  285MOL    C6334711   0.804   5.953   3.223 -0.6233  0.3385 -0.3489
  285MOL    F6434712   0.906   5.961   3.312 -0.4301 -0.7338 -0.1676
  285MOL    H6534713   0.606   6.003   3.204  0.2055  0.7484  0.6602
  285MOL    H6634714   0.710   6.141   3.245 -1.2619  0.9039  0.1871
  285MOL    H6734715   0.841   5.985   3.126  0.4093  0.5304  0.1007
  285MOL    C6834716   0.770   5.809   3.189 -0.1206 -0.4293  0.4500
  285MOL    C6934717   0.889   5.728   3.126 -0.1807  1.1838 -0.3312
  285MOL    F7034718   0.990   5.714   3.221  0.2331 -0.1851 -0.2557
  285MOL    H7134719   0.741   5.755   3.279 -0.5025  0.4036  0.8317
  285MOL    H7234720   0.694   5.794   3.113  0.4486 -1.1722  0.0262
  285MOL    H7334721   0.932   5.786   3.044 -1.7119  0.2853 -1.7746
  285MOL    C7434722   0.846   5.588   3.075  0.9335  0.0875 -0.0547
  285MOL    C7534723   0.954   5.493   3.028 -0.8709 -0.4354  0.0664
  285MOL    F7634724   0.887   5.381   2.996 -0.0729 -0.3477 -0.2802
  285MOL    H7734725   0.799   5.540   3.161 -0.0485 -0.8001 -1.0753
  285MOL    H7834726   0.771   5.599   2.997  2.7843 -2.4228 -2.2685
  285MOL    H7934727   1.026   5.469   3.106 -0.4878  1.2813  0.2512
  285MOL    C8034728   1.025   5.539   2.895  0.1811 -0.1803 -0.3875
  285MOL    C8134729   1.132   5.438   2.840 -0.6797  0.4904  0.0092
  285MOL    F8234730   1.175   5.459   2.716 -0.8181 -0.1312 -0.0274
  285MOL    H8334731   0.950   5.556   2.818 -0.6882 -1.0829  0.2566
  285MOL    H8434732   1.066   5.638   2.916 -1.2341  0.8349 -2.3432
  285MOL    H8534733   1.087   5.342   2.814  1.9514 -1.7019  3.1222
  285MOL    C8634734   1.254   5.403   2.935  0.2657  0.0505  0.0058
  285MOL    C8734735   1.322   5.522   3.008  0.2934 -0.3824  0.0629
  285MOL    F8834736   1.404   5.472   3.097  0.4868 -0.1711  0.0186
  285MOL    H8934737   1.200   5.345   3.010  0.6341 -0.3079 -0.0057
  285MOL    H9034738   1.336   5.342   2.897  1.4590  0.9132  1.1501
  285MOL    H9134739   1.241   5.571   3.061  0.4545  0.3792 -0.3901
  285MOL    C9234740   1.389   5.631   2.928 -0.6055  0.2391 -0.2565
  285MOL    C9334741   1.437   5.742   3.029 -0.0058 -0.7334  1.3504
  285MOL    F9434742   1.527   5.822   2.965  0.4713 -0.3703  0.0513
  285MOL    H9534743   1.470   5.596   2.863 -0.0018 -1.0507  1.1631
  285MOL    H9634744   1.316   5.662   2.854 -0.8386 -2.0038 -1.0268
  285MOL    H9734745   1.489   5.691   3.111 -3.2544 -0.6208  3.5746
  285MOL    C9834746   1.320   5.829   3.090  0.1036 -0.4005  0.4276
  285MOL    C9934747   1.244   5.919   2.988 -0.1254  0.4804  0.4221
  285MOL   F10034748   1.167   5.851   2.898 -0.7863 -0.0192  0.0234
  285MOL   H10134749   1.259   5.770   3.159 -0.0100  1.0500  1.6030
  285MOL   H10234750   1.374   5.893   3.160  1.2867  0.4865 -1.2633
  285MOL   H10334751   1.318   5.955   2.917 -0.1818  1.4727  0.8570
  285MOL   C10434752   1.161   6.033   3.043 -0.4704  0.2109 -0.1704
  285MOL   C10534753   1.112   6.146   2.948 -0.0675  0.8902 -0.1727
  285MOL   F10634754   1.008   6.215   2.996 -0.0339 -0.0293  0.7742
  285MOL   H10734755   1.068   5.990   3.080 -0.4535 -1.9325 -2.5705
  285MOL   H10834756   1.223   6.076   3.122  0.3044 -3.7076  1.4771
  285MOL   H10934757   1.061   6.106   2.860 -1.9503 -0.4005  1.4566
  285MOL   C11034758   1.224   6.247   2.907  0.5231  0.2459  0.0395
  285MOL   C11134759   1.191   6.333   2.785 -0.5761  0.0808 -0.0956
  285MOL   F11234760   1.069   6.393   2.788 -0.2504  0.3900 -0.2998
  285MOL   H11334761   1.238   6.319   2.988 -1.6777  0.9930 -0.2124
  285MOL   H11434762   1.319   6.194   2.901  0.2088 -0.2648 -0.5510
  285MOL   H11534763   1.198   6.258   2.707  0.0111 -0.7371  0.7378
  285MOL   C11634764   1.287   6.450   2.764 -0.7600  0.2332 -0.2524
  285MOL   C11734765   1.262   6.526   2.630  0.0413 -0.4693 -0.0920
  285MOL   F11834766   1.363   6.605   2.593 -0.1117 -0.3063 -0.1306
  285MOL   H11934767   1.281   6.515   2.852  2.7401  0.2766  0.0115
  285MOL   H12034768   1.381   6.396   2.765  0.1491  1.7810  1.6880
  285MOL   H12134769   1.162   6.569   2.629  0.0912 -0.3401  0.3474
  285MOL   H12234770   1.278   6.453   2.550  2.4899  0.5532 -0.5966
  286MOL     C134771   6.995   1.539   3.234  0.3914 -0.3637 -0.2490
  286MOL     C234772   7.037   1.657   3.323  0.0855  0.0630  0.4188
  286MOL     F334773   7.074   1.607   3.442  0.1859 -0.3484  0.2067
  286MOL     H434774   6.956   1.583   3.143  1.8015  1.4047 -0.0129
  286MOL     H534775   6.912   1.488   3.283  1.2820  0.4182  2.1091
  286MOL     H634776   6.950   1.720   3.339 -0.7864 -1.2647  0.9410
  286MOL     H734777   7.070   1.464   3.206 -0.2440 -1.2570  0.3958
  286MOL     C834778   7.154   1.736   3.267 -0.0287 -0.8584  0.1467
  286MOL     C934779   7.204   1.846   3.361  0.6255 -0.3287  0.4283
  286MOL    F1034780   7.308   1.900   3.297 -0.3923 -0.3526 -0.6151
  286MOL    H1134781   7.227   1.656   3.256  0.3326 -0.7768  1.8451
  286MOL    H1234782   7.132   1.773   3.167  1.1863 -0.8282 -0.1227
  286MOL    H1334783   7.239   1.794   3.450  1.3685 -1.0839 -0.2937
  286MOL    C1434784   7.100   1.958   3.390 -0.1161  0.3400 -0.7011
  286MOL    C1534785   7.146   2.058   3.494  0.2415 -0.0957 -0.7420
  286MOL    F1634786   7.078   2.169   3.469 -0.4717 -0.4531  0.1692
  286MOL    H1734787   7.067   2.009   3.300 -3.1545  0.3969  0.3732
  286MOL    H1834788   7.009   1.901   3.413  0.3493  0.1226  0.6436
  286MOL    H1934789   7.249   2.090   3.475  0.3576  0.4839  0.7681
  286MOL    C2034790   7.108   2.013   3.635  0.5992  0.1527 -0.6242
  286MOL    C2134791   7.100   2.118   3.745 -0.1000 -0.5917 -0.4583
  286MOL    F2234792   6.995   2.207   3.726  0.3038  0.4076  0.3428
  286MOL    H2334793   7.009   1.969   3.627  1.0556 -0.9177 -0.6352
  286MOL    H2434794   7.178   1.935   3.667  0.6386  0.5386  0.2324
  286MOL    H2534795   7.190   2.179   3.738  0.0125 -0.7626 -0.5100
  286MOL    C2634796   7.095   2.055   3.884 -0.4087  0.2768 -0.1460
  286MOL    C2734797   7.222   1.978   3.933  0.0518  0.1370 -0.7757
  286MOL    F2834798   7.299   2.079   3.976  0.3008 -0.0487 -0.1988
  286MOL    H2934799   7.091   2.139   3.953  1.5429  2.1302 -2.2165
  286MOL    H3034800   7.006   1.993   3.889 -0.6624  0.7122  1.0237
  286MOL    H3134801   7.271   1.928   3.849 -0.6626  0.5200 -1.4249
  286MOL    C3234802   7.187   1.874   4.043  0.6374  0.6874  0.1231
  286MOL    C3334803   7.310   1.783   4.074 -0.8960  0.0725 -0.5424
  286MOL    F3434804   7.405   1.865   4.120 -0.3153  0.0405  0.1290
  286MOL    H3534805   7.168   1.941   4.127  1.1021 -0.8335  1.4818
  286MOL    H3634806   7.100   1.818   4.009 -0.2035  1.5338  0.8668
  286MOL    H3734807   7.353   1.735   3.986 -0.7607  0.9547 -0.9611
  286MOL    C3834808   7.289   1.680   4.177  1.1175 -0.7478 -0.0495
  286MOL    C3934809   7.203   1.567   4.121  0.1610 -0.2471 -0.2521
  286MOL    F4034810   7.294   1.488   4.059 -0.1299  0.4657  0.3092
  286MOL    H4134811   7.384   1.640   4.211  0.7116 -1.8240 -0.1517
  286MOL    H4234812   7.240   1.729   4.262  1.3103 -0.4827 -0.0902
  286MOL    H4334813   7.122   1.593   4.052 -0.7783 -0.6557  0.6828
  286MOL    C4434814   7.149   1.473   4.234  0.3782  0.0224  0.4209
  286MOL    C4534815   7.034   1.528   4.321  0.4748 -0.1954 -0.0022
  286MOL    F4634816   6.926   1.542   4.244 -0.0328  0.3004 -0.4753
  286MOL    H4734817   7.113   1.378   4.193  1.3210 -0.0444 -0.2839
  286MOL    H4834818   7.231   1.439   4.297 -1.6698 -1.0082  2.5835
  286MOL    H4934819   7.055   1.634   4.339  0.8379  0.0085 -1.5350
  286MOL    C5034820   6.995   1.456   4.447 -0.7364  0.7966  0.4320
  286MOL    C5134821   6.879   1.506   4.528 -0.8212  0.4613  0.7307
  286MOL    F5234822   6.767   1.466   4.457  0.0310  0.1258  0.3622
  286MOL    H5334823   6.982   1.354   4.411  0.2804  0.3903  1.2022
  286MOL    H5434824   7.085   1.439   4.506  0.0442 -0.2863 -1.0415
  286MOL    H5534825   6.867   1.614   4.517  0.1683  0.4391 -0.6496
  286MOL    C5634826   6.885   1.453   4.677 -0.0951  0.5311  0.3071
  286MOL    C5734827   6.762   1.506   4.758 -0.7903  0.3965 -0.0838
  286MOL    F5834828   6.784   1.478   4.890 -0.3554  0.2067 -0.2009
  286MOL    H5934829   6.870   1.345   4.674 -2.5663  0.8666 -1.0523
  286MOL    H6034830   6.973   1.472   4.738 -0.1141  0.9351  0.2052
  286MOL    H6134831   6.666   1.463   4.729 -0.0257 -1.3088 -0.1620
  286MOL    C6234832   6.730   1.653   4.744  0.1658  0.3294  0.0712
  286MOL    C6334833   6.830   1.753   4.807 -0.2392  0.2412 -0.0667
  286MOL    F6434834   6.942   1.760   4.726 -0.0275 -0.1667  0.5232
  286MOL    H6534835   6.701   1.672   4.641  0.8575 -1.3573 -0.4540
  286MOL    H6634836   6.640   1.679   4.799 -0.6223 -1.9543 -0.0874
  286MOL    H6734837   6.852   1.731   4.912 -1.3601  1.8082  0.5199
  286MOL    C6834838   6.769   1.898   4.814  0.6382  0.5796 -0.1251
  286MOL    C6934839   6.868   2.004   4.872  0.7168 -0.4339  0.1858
  286MOL    F7034840   6.811   2.124   4.878  0.2472  0.1589 -0.3020
  286MOL    H7134841   6.744   1.936   4.715  1.3825  2.5769  0.4411
  286MOL    H7234842   6.673   1.897   4.865  0.3510  0.9810 -0.6533
  286MOL    H7334843   6.950   2.019   4.802  0.3981  0.7718  0.0551
  286MOL    C7434844   6.923   1.975   5.010 -0.1535  0.0724 -0.0585
  286MOL    C7534845   7.039   2.063   5.073  0.5056  0.2832 -0.2871
  286MOL    F7634846   7.062   2.017   5.202 -0.1576  0.5452  0.3168
  286MOL    H7734847   6.844   1.976   5.085 -1.6947  3.0811 -1.6227
  286MOL    H7834848   6.961   1.873   5.003  0.7700  0.4487 -0.7042
  286MOL    H7934849   6.998   2.163   5.091  2.8879  0.6058  3.6872
  286MOL    C8034850   7.177   2.059   5.001 -0.6728  0.0427  0.3593
  286MOL    C8134851   7.280   2.127   5.088 -0.1868  0.0199 -0.3697
  286MOL    F8234852   7.406   2.110   5.027  0.3004 -0.1479  0.3619
  286MOL    H8334853   7.212   1.959   4.975  0.3663  0.2313  0.9795
  286MOL    H8434854   7.164   2.122   4.914 -1.1940  0.5765  0.8189
  286MOL    H8534855   7.279   2.075   5.184  2.3958  2.8062  1.2155
  286MOL    C8634856   7.245   2.271   5.112  0.1695  0.1621 -0.0528
  286MOL    C8734857   7.352   2.355   5.176 -1.0836  0.9449 -0.3328
  286MOL    F8834858   7.307   2.474   5.146  0.0289 -0.4957  0.0241
  286MOL    H8934859   7.201   2.326   5.028 -0.0434  0.1587  0.0562
  286MOL    H9034860   7.166   2.269   5.187  0.0647  0.8106 -0.1479
  286MOL    H9134861   7.450   2.340   5.129 -0.3310  1.8082  0.9386
  286MOL    C9234862   7.357   2.322   5.324 -0.1300  0.3118  0.3899
  286MOL    C9334863   7.466   2.398   5.404 -0.1895  0.8237  0.1597
  286MOL    F9434864   7.448   2.372   5.528  0.0595 -0.3289 -1.0004
  286MOL    H9534865   7.261   2.352   5.366  1.3582  4.5121  1.1045
  286MOL    H9634866   7.380   2.216   5.336  0.5597  0.5200  0.9811
  286MOL    H9734867   7.451   2.504   5.382 -3.2042 -0.2374 -3.3580
  286MOL    C9834868   7.609   2.354   5.380 -0.2892 -0.4080  0.8032
  286MOL    C9934869   7.721   2.450   5.445 -0.4461 -0.0801  0.5759
  286MOL   F10034870   7.843   2.409   5.402  0.0569 -0.2129 -0.1825
  286MOL   H10134871   7.622   2.252   5.416 -1.5870 -1.2187 -0.9227
  286MOL   H10234872   7.626   2.343   5.273 -0.8212 -2.8274  0.9389
  286MOL   H10334873   7.726   2.432   5.552 -0.0820  2.5549  1.0301
  286MOL   C10434874   7.719   2.596   5.396  0.3957 -0.6649 -0.3018
  286MOL   C10534875   7.834   2.689   5.447  0.1927 -0.2412 -0.4541
  286MOL   F10634876   7.835   2.796   5.372  0.4856 -0.4725 -0.4425
  286MOL   H10734877   7.725   2.593   5.287  1.9474 -0.5211 -0.2284
  286MOL   H10834878   7.618   2.625   5.425 -0.4195 -3.1459 -0.5001
  286MOL   H10934879   7.937   2.653   5.435  0.7806  1.2819 -0.0684
  286MOL   C11034880   7.818   2.731   5.591  0.0777  0.2115 -0.8133
  286MOL   C11134881   7.944   2.787   5.666 -0.4637  0.6456  0.4099
  286MOL   F11234882   7.992   2.900   5.598  0.3001  0.7571  0.0878
  286MOL   H11334883   7.739   2.806   5.593 -0.8370 -0.7335 -1.6647
  286MOL   H11434884   7.789   2.641   5.645  0.2789 -0.0022 -1.0632
  286MOL   H11534885   0.024   2.717   5.662 -2.8845 -2.2257 -2.1236
  286MOL   C11634886   7.904   2.843   5.807  0.2054 -0.0305  0.1781
  286MOL   C11734887   0.015   2.871   5.906 -0.2355  0.2280 -0.8210
  286MOL   F11834888   0.080   2.758   5.942 -0.5375 -0.4864 -0.3973
  286MOL   H11934889   7.837   2.928   5.792 -0.2250 -0.0996  1.6322
  286MOL   H12034890   7.853   2.765   5.862 -0.3609 -0.9657 -1.6405
  286MOL   H12134891   7.975   2.904   6.000 -1.5936 -1.5756 -0.7862
  286MOL   H12234892   0.085   2.946   5.868  0.8394  0.9543  2.4370
  287MOL     C134893   4.998   1.307   4.995  0.2230 -0.0563  0.0933
  287MOL     C234894   4.916   1.182   4.973  0.9592  0.6043  0.0817
  287MOL     F334895   4.868   1.149   5.092  0.0217 -0.4660 -0.2260
  287MOL     H434896   5.084   1.297   5.061  0.3817  0.7556  0.0131
  287MOL     H534897   4.936   1.390   5.028  1.2393  0.3072  1.1418
  287MOL     H634898   4.980   1.096   4.951  0.6630  0.6358 -0.9148
  287MOL     H734899   5.043   1.343   4.903  0.2519 -1.1467 -0.3263
  287MOL     C834900   4.807   1.185   4.864  0.0149 -0.3103  0.1604
  287MOL     C934901   4.861   1.243   4.729  0.3764  0.5891 -0.3901
  287MOL    F1034902   4.960   1.160   4.697 -0.5910  0.2278 -0.1691
  287MOL    H1134903   4.766   1.084   4.856 -0.1667 -0.0658 -2.4500
  287MOL    H1234904   4.725   1.245   4.903  0.2316  0.0738  0.0338
  287MOL    H1334905   4.911   1.339   4.745  1.3244 -0.3808  2.8056
  287MOL    C1434906   4.759   1.253   4.624 -0.5425  1.3057  0.2235
  287MOL    C1534907   4.656   1.364   4.638 -0.4498 -0.7198 -0.0673
  287MOL    F1634908   4.726   1.473   4.660  0.2289 -0.1879 -0.2798
  287MOL    H1734909   4.811   1.272   4.530  1.1371  1.6336  1.2014
  287MOL    H1834910   4.710   1.156   4.610  0.6832  0.4329  1.8572
  287MOL    H1934911   4.591   1.353   4.725 -2.4010 -1.4545 -1.5988
  287MOL    C2034912   4.553   1.377   4.519  0.7181  0.4106 -0.1754
  287MOL    C2134913   4.455   1.261   4.511  0.0756 -0.4259 -0.5785
  287MOL    F2234914   4.372   1.262   4.614 -0.0492 -0.2426 -0.3261
  287MOL    H2334915   4.488   1.460   4.547  0.9677  0.3740  0.5253
  287MOL    H2434916   4.620   1.384   4.433  1.0187 -0.4047 -0.0095
  287MOL    H2534917   4.517   1.171   4.520  0.6198 -0.1252 -1.2602
  287MOL    C2634918   4.368   1.246   4.383 -0.5254  0.6083 -0.4627
  287MOL    C2734919   4.439   1.211   4.250 -0.4387  0.1264  0.1585
  287MOL    F2834920   4.525   1.116   4.270  0.5300 -0.1740 -0.4381
  287MOL    H2934921   4.296   1.166   4.402  1.3024 -0.6136  1.6627
  287MOL    H3034922   4.299   1.328   4.365  0.0525  1.0011 -0.8986
  287MOL    H3134923   4.504   1.292   4.217 -0.8324 -0.0007 -0.9512
  287MOL    C3234924   4.352   1.155   4.148  0.1473  0.2613  0.3557
  287MOL    C3334925   4.264   1.261   4.077 -0.4769 -0.2830 -0.3435
  287MOL    F3434926   4.344   1.328   3.994 -0.1693  0.2838 -0.2143
  287MOL    H3534927   4.413   1.103   4.074 -4.7385 -0.8135 -3.1420
  287MOL    H3634928   4.297   1.078   4.203  0.2553 -0.3287 -0.3471
  287MOL    H3734929   4.221   1.335   4.144 -0.0666  1.2789 -1.7918
  287MOL    C3834930   4.158   1.191   3.992 -0.3428  0.1746 -0.3858
  287MOL    C3934931   4.048   1.277   3.921 -1.4326  0.2020  0.5392
  287MOL    F4034932   4.117   1.348   3.833 -0.1535  0.1850 -0.3746
  287MOL    H4134933   4.191   1.123   3.913 -3.7087  0.2058 -1.8957
  287MOL    H4234934   4.110   1.122   4.060 -0.6498  0.7696  0.0055
  287MOL    H4334935   4.000   1.353   3.983 -1.8757  2.6505 -2.6908
  287MOL    C4434936   3.954   1.186   3.838 -0.3447 -1.4536  0.0564
  287MOL    C4534937   3.828   1.260   3.792  0.2832  0.2643  0.1525
  287MOL    F4634938   3.776   1.314   3.896  0.1862  0.1692  0.0035
  287MOL    H4734939   4.002   1.143   3.750  0.5712 -0.0634 -0.1363
  287MOL    H4834940   3.923   1.100   3.898 -0.8465 -0.1545  1.6840
  287MOL    H4934941   3.763   1.179   3.758 -0.2009  1.0286 -0.7798
  287MOL    C5034942   3.836   1.369   3.683 -0.1426 -0.0484  0.3204
  287MOL    C5134943   3.699   1.393   3.615  0.2514  0.0849 -0.0662
  287MOL    F5234944   3.613   1.447   3.704  0.3479  0.6765 -0.0496
  287MOL    H5334945   3.886   1.452   3.733  0.2792 -0.2809  0.2833
  287MOL    H5434946   3.898   1.330   3.602 -1.7552 -1.6166 -0.2051
  287MOL    H5534947   3.653   1.298   3.590 -0.3312  0.4991 -0.5680
  287MOL    C5634948   3.716   1.486   3.493 -0.5209  0.0925  1.2251
  287MOL    C5734949   3.603   1.473   3.392 -0.1161 -0.2273  0.4209
  287MOL    F5834950   3.614   1.349   3.340  0.0457  0.1272 -0.1060
  287MOL    H5934951   3.720   1.588   3.534  0.3509  0.8032 -0.5941
  287MOL    H6034952   3.811   1.467   3.443 -1.2741 -1.0870  0.2156
  287MOL    H6134953   3.623   1.553   3.321  1.9113 -2.1970 -1.3025
  287MOL    C6234954   3.457   1.473   3.436 -0.5206  0.0274 -0.2867
  287MOL    C6334955   3.413   1.591   3.526  0.1180  0.1820 -0.1718
  287MOL    F6434956   3.398   1.695   3.444  0.2349  0.1522 -0.3155
  287MOL    H6534957   3.404   1.480   3.341  1.0121 -1.0817 -1.2437
  287MOL    H6634958   3.438   1.380   3.489 -0.0734  0.3668  0.4687
  287MOL    H6734959   3.499   1.617   3.587 -0.2900  2.1043 -0.3938
  287MOL    C6834960   3.286   1.548   3.603 -0.2034  0.6498 -0.1055
  287MOL    C6934961   3.243   1.663   3.690  0.4524  0.2574 -0.3923
  287MOL    F7034962   3.236   1.776   3.619 -0.4053  0.1583  0.7799
  287MOL    H7134963   3.200   1.511   3.547 -2.3107  3.4404  1.1488
  287MOL    H7234964   3.309   1.464   3.667 -1.4990  0.8762  0.6819
  287MOL    H7334965   3.320   1.690   3.761  0.8024 -0.9806 -0.2856
  287MOL    C7434966   3.111   1.637   3.760 -0.3236  0.4951  0.0107
  287MOL    C7534967   3.049   1.749   3.841 -0.0017 -0.0081  0.1888
  287MOL    F7634968   3.151   1.792   3.911 -0.1295  0.5365 -0.4313
  287MOL    H7734969   3.031   1.620   3.687  0.1274 -1.3056 -0.0860
  287MOL    H7834970   3.124   1.551   3.825 -0.1245  1.1409  0.8244
  287MOL    H7934971   2.974   1.708   3.910  2.2553 -3.0082  0.9781
  287MOL    C8034972   2.996   1.869   3.754 -0.4166  0.3048  0.2335
  287MOL    C8134973   2.855   1.847   3.696  0.1935  0.4645  0.0424
  287MOL    F8234974   2.767   1.857   3.800 -0.3033  0.5677  0.0400
  287MOL    H8334975   3.003   1.962   3.811  1.0578  0.3851 -0.0647
  287MOL    H8434976   3.071   1.887   3.677 -1.2067  0.8808 -0.4130
  287MOL    H8534977   2.840   1.746   3.658 -1.1055 -0.8135  3.8210
  287MOL    C8634978   2.815   1.948   3.588 -0.0432  0.1434  0.3502
  287MOL    C8734979   2.687   1.909   3.512 -0.3328  0.5946 -0.3356
  287MOL    F8834980   2.699   1.782   3.473 -0.2710  0.5327  0.1816
  287MOL    H8934981   2.803   2.049   3.626 -0.0014  0.7759 -1.2563
  287MOL    H9034982   2.895   1.930   3.515 -1.0176 -1.7839 -0.2771
  287MOL    H9134983   2.690   1.976   3.426 -2.4030  0.7646 -0.3158
  287MOL    C9234984   2.553   1.936   3.586 -0.3334  0.0436  0.0971
  287MOL    C9334985   2.430   1.958   3.495  0.2373 -0.1223 -0.3709
  287MOL    F9434986   2.434   2.075   3.438 -0.0029  0.0234  0.6218
  287MOL    H9534987   2.529   1.861   3.662 -2.3977  0.7044  0.1270
  287MOL    H9634988   2.564   2.029   3.641 -0.6707  1.0473 -1.5004
  287MOL    H9734989   2.351   1.962   3.570  0.2041  1.5118 -0.4727
  287MOL    C9834990   2.402   1.849   3.386  0.3411 -0.1124  0.0031
  287MOL    C9934991   2.252   1.836   3.338  0.5480 -0.2901  0.2015
  287MOL   F10034992   2.242   1.748   3.238  0.1262 -0.4889  0.4952
  287MOL   H10134993   2.474   1.875   3.309  0.3117 -1.7759 -0.6047
  287MOL   H10234994   2.431   1.751   3.424 -0.3206 -2.0355 -4.2457
  287MOL   H10334995   2.213   1.930   3.301  1.3234 -0.0441 -0.0016
  287MOL   C10434996   2.148   1.786   3.442 -0.4016 -0.6606  0.0923
  287MOL   C10534997   2.130   1.633   3.467 -0.6243 -0.5268  0.4279
  287MOL   F10634998   2.230   1.601   3.554 -0.2803 -0.3392  0.0400
  287MOL   H10734999   2.168   1.831   3.539 -0.4227 -3.5474  1.4770
  287MOL   H10835000   2.053   1.832   3.414 -0.5372  0.2117  1.8790
  287MOL   H10935001   2.156   1.570   3.382  0.6185  1.2377 -0.5267
  287MOL   C11035002   2.001   1.600   3.536  0.9016 -0.2079 -0.0722
  287MOL   C11135003   1.966   1.444   3.538 -0.1828  0.4129 -0.3081
  287MOL   F11235004   1.975   1.384   3.412  0.1772 -0.4119  0.1436
  287MOL   H11335005   1.999   1.641   3.637  0.6487 -1.3195  0.3828
  287MOL   H11435006   1.926   1.657   3.482 -1.3509 -2.0192  0.9890
  287MOL   H11535007   1.862   1.433   3.570  0.5275 -2.8248  1.1385
  287MOL   C11635008   2.049   1.366   3.632  0.0041  0.8094 -0.3702
  287MOL   C11735009   2.008   1.221   3.659 -0.1987  0.3528  0.8999
  287MOL   F11835010   1.894   1.215   3.732  0.7402 -0.2882  0.0531
  287MOL   H11935011   2.155   1.361   3.606  0.7721 -1.4802  2.7858
  287MOL   H12035012   2.045   1.415   3.729 -1.8617  0.3346 -0.1946
  287MOL   H12135013   2.077   1.160   3.717  0.5890  0.6088  0.2479
  287MOL   H12235014   1.990   1.180   3.560  0.3838  1.6176  0.2489
  288MOL     C135015   2.088   5.200   3.141  0.6902  0.1826  0.3324
  288MOL     C235016   2.082   5.307   3.027 -0.2003 -0.4354  0.2715
  288MOL     F335017   2.202   5.332   2.982  0.1516  0.0763 -0.9693
  288MOL     H435018   2.155   5.119   3.111  1.3278  0.4908  0.9245
  288MOL     H535019   1.989   5.162   3.166 -0.4385  1.5020 -2.0109
  288MOL     H635020   2.055   5.408   3.060 -0.2656 -0.6427  0.8578
  288MOL     H735021   2.126   5.240   3.235  1.8917  0.3651 -0.2245
  288MOL     C835022   2.008   5.264   2.902 -0.2392  0.4807 -0.6048
  288MOL     C935023   1.854   5.237   2.908  0.2146  0.8255 -0.2690
  288MOL    F1035024   1.798   5.355   2.933 -0.2305  0.0295 -0.2159
  288MOL    H1135025   2.024   5.330   2.817 -0.2809  1.1441 -0.0974
  288MOL    H1235026   2.055   5.172   2.866  0.5294  0.7886 -0.4074
  288MOL    H1335027   1.824   5.173   2.991  1.0437  1.3159  0.4216
  288MOL    C1435028   1.797   5.195   2.770  0.1956 -0.7293 -0.6905
  288MOL    C1535029   1.650   5.149   2.778 -0.1810  0.2652  0.1303
  288MOL    F1635030   1.569   5.253   2.784 -0.0963  0.2868 -0.5236
  288MOL    H1735031   1.791   5.284   2.707 -2.6947 -0.5048 -0.1763
  288MOL    H1835032   1.857   5.119   2.720 -0.7526 -1.0441 -1.3661
  288MOL    H1935033   1.630   5.081   2.861 -0.5026  1.6890  1.2379
  288MOL    C2035034   1.623   5.064   2.651  0.9142 -0.7764  1.0304
  288MOL    C2135035   1.477   5.015   2.636  0.0818 -0.2984  0.2745
  288MOL    F2235036   1.399   5.118   2.597  0.5407  0.2956 -0.0865
  288MOL    H2335037   1.658   5.101   2.555  0.4198 -3.5356 -0.2375
  288MOL    H2435038   1.679   4.972   2.662  1.3011 -0.8446 -1.3551
  288MOL    H2535039   1.429   5.001   2.733 -0.9144 -0.4332 -0.2240
  288MOL    C2635040   1.456   4.898   2.537  0.1673  0.6288  0.1196
  288MOL    C2735041   1.480   4.759   2.596  0.5261  0.4678  0.1134
  288MOL    F2835042   1.428   4.756   2.721  0.4913  0.1197 -0.0130
  288MOL    H2935043   1.355   4.901   2.495 -0.4560  2.2768  1.6517
  288MOL    H3035044   1.520   4.924   2.453  2.0494 -0.0882  1.2940
  288MOL    H3135045   1.588   4.744   2.601  0.6783  1.2807 -0.7068
  288MOL    C3235046   1.417   4.647   2.518 -0.2893  0.0983  0.0786
  288MOL    C3335047   1.467   4.503   2.545  0.0330 -0.6566 -0.3272
  288MOL    F3435048   1.351   4.431   2.561 -0.0398  0.3463  0.2393
  288MOL    H3535049   1.312   4.653   2.547 -0.1384 -0.6830  0.8197
  288MOL    H3635050   1.430   4.661   2.411  1.8349 -1.9601  0.0244
  288MOL    H3735051   1.514   4.507   2.643 -1.4449  0.9984  0.3500
  288MOL    C3835052   1.563   4.436   2.447 -0.7486 -0.2920 -0.0526
  288MOL    C3935053   1.607   4.290   2.491 -0.0234  0.6570 -0.3689
  288MOL    F4035054   1.663   4.289   2.614  0.1324 -0.1403 -0.0050
  288MOL    H4135055   1.523   4.439   2.346 -1.1793 -2.8607  0.0096
  288MOL    H4235056   1.654   4.494   2.439 -0.6343 -0.3570  0.6955
  288MOL    H4335057   1.694   4.258   2.433  1.7395  1.9515  1.5288
  288MOL    C4435058   1.505   4.183   2.468 -0.7718 -0.2160  0.5267
  288MOL    C4535059   1.572   4.044   2.433  0.1372  0.2666 -0.8755
  288MOL    F4635060   1.649   4.052   2.326  0.1019 -0.6794  0.0305
  288MOL    H4735061   1.443   4.176   2.557 -0.1287  2.2846  1.2277
  288MOL    H4835062   1.457   4.211   2.374 -1.3706  0.1632  0.9455
  288MOL    H4935063   1.492   3.971   2.418  0.1995 -0.1797  0.8665
  288MOL    C5035064   1.647   3.984   2.550 -0.2863  0.1799 -0.3776
  288MOL    C5135065   1.672   3.837   2.548  0.0221  0.2661 -1.1419
  288MOL    F5235066   1.558   3.773   2.525 -0.6523  0.1181  0.0556
  288MOL    H5335067   1.741   4.038   2.559 -0.3112  0.0745  0.5642
  288MOL    H5435068   1.595   4.009   2.642 -0.0434 -0.8850  0.0529
  288MOL    H5535069   1.715   3.802   2.642  0.9056  0.3902 -1.5004
  288MOL    C5635070   1.773   3.794   2.442 -0.4229 -0.9120  0.0712
  288MOL    C5735071   1.893   3.698   2.496 -0.6919  0.0554 -0.3877
  288MOL    F5835072   1.831   3.601   2.570 -0.0658 -0.0758  0.1820
  288MOL    H5935073   1.720   3.748   2.359 -0.5770  1.2702 -1.0824
  288MOL    H6035074   1.828   3.876   2.396 -0.6783 -1.2306 -0.8183
  288MOL    H6135075   1.967   3.750   2.556  0.5165 -0.2951 -1.5607
  288MOL    C6235076   1.968   3.640   2.377 -0.7668 -0.4040 -0.0273
  288MOL    C6335077   2.075   3.542   2.425  0.4987 -0.1514 -0.2673
  288MOL    F6435078   2.112   3.474   2.322  0.5762  0.0335  0.2706
  288MOL    H6535079   1.889   3.594   2.318  0.2330 -0.9304 -0.9853
  288MOL    H6635080   2.004   3.727   2.321 -0.4987  0.7345  1.8735
  288MOL    H6735081   2.026   3.467   2.488  0.0184  0.7761  0.4851
  288MOL    C6835082   2.194   3.611   2.491 -0.0831  0.0682 -0.3906
  288MOL    C6935083   2.321   3.525   2.499 -0.2174  0.4444  0.3438
  288MOL    F7035084   2.380   3.535   2.380  0.3876 -0.0945 -0.0274
  288MOL    H7135085   2.216   3.702   2.436 -0.5502  0.2134 -0.3428
  288MOL    H7235086   2.182   3.668   2.583 -0.3823 -0.4962 -0.0727
  288MOL    H7335087   2.293   3.424   2.526  1.9885 -0.3215 -0.1633
  288MOL    C7435088   2.417   3.569   2.605 -0.3612 -0.0334  0.8082
  288MOL    C7535089   2.535   3.472   2.632 -0.0878  0.3213  0.1404
  288MOL    F7635090   2.622   3.486   2.532 -0.1122 -0.1544 -0.1478
  288MOL    H7735091   2.455   3.660   2.557  0.1234 -1.0401 -0.7801
  288MOL    H7835092   2.364   3.592   2.697  0.4517 -0.6975  1.4445
  288MOL    H7935093   2.506   3.368   2.617  0.0805  0.6196 -2.6116
  288MOL    C8035094   2.591   3.499   2.771 -0.5236 -0.1750 -0.3590
  288MOL    C8135095   2.665   3.377   2.848  0.0332 -0.4501  0.5846
  288MOL    F8235096   2.581   3.271   2.855  0.5316 -0.0802 -0.7601
  288MOL    H8335097   2.657   3.585   2.763  4.2788 -3.5759  0.1491
  288MOL    H8435098   2.514   3.533   2.840  1.1341  0.8527  1.0142
  288MOL    H8535099   2.688   3.408   2.950 -1.2085  1.3904  0.3328
  288MOL    C8635100   2.796   3.330   2.781  0.6948 -0.2486  0.6549
  288MOL    C8735101   2.910   3.435   2.775  0.6527  0.0799  0.1880
  288MOL    F8835102   2.930   3.492   2.894 -0.9447  0.5689  0.0253
  288MOL    H8935103   2.839   3.241   2.826  0.9032 -1.5978 -2.1241
  288MOL    H9035104   2.773   3.304   2.678  0.4662 -1.7345  1.0651
  288MOL    H9135105   2.889   3.512   2.700 -2.9600 -0.5006  0.4969
  288MOL    C9235106   3.035   3.365   2.730  0.7473  0.3379 -1.0522
  288MOL    C9335107   3.160   3.446   2.694 -0.1200 -0.1399 -0.1245
  288MOL    F9435108   3.208   3.506   2.802  0.1178  0.1444 -0.6955
  288MOL    H9535109   3.055   3.293   2.809  0.6266 -2.0518 -3.1360
  288MOL    H9635110   3.006   3.305   2.644 -1.2339 -1.5848  0.8722
  288MOL    H9735111   3.137   3.520   2.618 -1.6432  0.8415  1.2679
  288MOL    C9835112   3.278   3.359   2.638  0.0779  0.2199 -0.8301
  288MOL    C9935113   3.391   3.449   2.582  0.1796  0.3540 -0.5194
  288MOL   F10035114   3.434   3.528   2.678  0.3239  1.1275 -0.1764
  288MOL   H10135115   3.319   3.293   2.714  0.2468 -1.3049 -2.2216
  288MOL   H10235116   3.245   3.286   2.564 -2.7337 -1.1057  1.5947
  288MOL   H10335117   3.338   3.517   2.516  0.3165  0.0046 -0.9953
  288MOL   C10435118   3.504   3.370   2.513 -0.0994 -1.2427  0.1501
  288MOL   C10535119   3.627   3.462   2.461 -0.1354  0.0521 -0.1096
  288MOL   F10635120   3.712   3.379   2.408  0.3493  0.4983 -0.6577
  288MOL   H10735121   3.551   3.306   2.588  0.0083 -0.2385  0.9425
  288MOL   H10835122   3.456   3.312   2.434 -1.6955 -0.3253  0.4300
  288MOL   H10935123   3.673   3.508   2.549 -0.1062 -0.8722  0.3658
  288MOL   C11035124   3.593   3.568   2.360  0.6579 -0.1139 -0.2691
  288MOL   C11135125   3.697   3.672   2.332 -0.1505  0.4836 -0.0775
  288MOL   F11235126   3.647   3.744   2.234  0.0460 -0.3508 -0.6055
  288MOL   H11335127   3.580   3.525   2.260 -0.5396  1.7149 -0.9337
  288MOL   H11435128   3.506   3.630   2.382  1.3530  1.0810 -0.8703
  288MOL   H11535129   3.786   3.622   2.293  0.0977 -0.5664  1.7649
  288MOL   C11635130   3.737   3.764   2.447  0.0441  0.1937  0.8496
  288MOL   C11735131   3.829   3.885   2.408  0.2547 -0.1702  0.1903
  288MOL   F11835132   3.951   3.843   2.383 -0.1719 -0.7403  0.1203
  288MOL   H11935133   3.645   3.815   2.475  0.5399  2.1932 -1.1097
  288MOL   H12035134   3.786   3.713   2.531  0.1350  0.4365  0.9451
  288MOL   H12135135   3.815   3.960   2.486 -1.3036  0.8750 -1.0716
  288MOL   H12235136   3.799   3.923   2.311  0.3772 -0.8272 -0.1058
  289MOL     C135137   3.724   0.094   7.019 -0.1134  0.0649  0.3484
  289MOL     C235138   3.617   7.993   7.049  0.0450  0.6200 -0.5553
  289MOL     F335139   3.523   0.054   7.120 -0.1309  0.0560 -0.2267
  289MOL     H435140   3.694   0.189   6.973  0.3832  0.4988  0.9160
  289MOL     H535141   3.814   0.063   6.965 -0.7234  1.3419 -1.4633
  289MOL     H635142   3.658   7.910   7.106 -0.4760  0.2789 -0.6736
  289MOL     H735143   3.749   0.142   7.113 -0.7063  2.3377 -0.6108
  289MOL     C835144   3.546   7.935   6.927 -0.6525 -0.1986  0.4198
  289MOL     C935145   3.631   7.832   6.850 -0.1500 -0.0819  0.3473
  289MOL    F1035146   3.647   7.714   6.914  0.0651  0.3290  0.2908
  289MOL    H1135147   3.454   7.888   6.962 -0.9820 -0.9991 -1.4571
  289MOL    H1235148   3.510   0.017   6.870 -0.9417  0.9427  2.2582
  289MOL    H1335149   3.728   7.876   6.825 -2.0509  3.1701 -1.7967
  289MOL    C1435150   3.563   7.798   6.716  0.3846 -0.4369 -0.6223
  289MOL    C1535151   3.460   7.681   6.721 -0.3451 -0.0530  0.1170
  289MOL    F1635152   3.359   7.723   6.809  0.1321 -0.2924  0.3079
  289MOL    H1735153   3.501   7.881   6.682  1.9792 -0.4389 -3.7738
  289MOL    H1835154   3.643   7.772   6.647  1.1149  0.1813 -0.0153
  289MOL    H1935155   3.491   7.584   6.761 -1.4076 -0.4775 -0.0585
  289MOL    C2035156   3.382   7.658   6.585 -0.0693  1.1746 -0.3864
  289MOL    C2135157   3.262   7.563   6.594  0.1882 -0.1014  1.2854
  289MOL    F2235158   3.193   7.576   6.480 -0.0143  0.1319  0.1783
  289MOL    H2335159   3.354   7.750   6.533  2.1686  2.0893 -0.0348
  289MOL    H2435160   3.447   7.616   6.508  2.4942 -1.5463  3.0982
  289MOL    H2535161   3.195   7.609   6.667 -0.0091  2.2597 -0.3356
  289MOL    C2635162   3.297   7.414   6.630 -0.8601  0.0818 -0.2151
  289MOL    C2735163   3.175   7.331   6.653  0.0670  0.2378 -0.9167
  289MOL    F2835164   3.219   7.208   6.657  0.1008 -0.2194  0.1267
  289MOL    H2935165   3.368   7.372   6.558 -0.4239 -0.1215  0.3284
  289MOL    H3035166   3.354   7.417   6.722 -1.1661 -0.6354  0.0045
  289MOL    H3135167   3.115   7.322   6.562  3.2861 -0.2490 -3.0761
  289MOL    C3235168   3.087   7.368   6.776 -0.6490  0.0139  0.1867
  289MOL    C3335169   2.997   7.261   6.822 -0.5721  0.1629  0.4289
  289MOL    F3435170   2.928   7.290   6.935  0.3153  0.1737 -0.1814
  289MOL    H3535171   3.156   7.387   6.858 -0.1785  1.5542 -0.5505
  289MOL    H3635172   3.028   7.458   6.760 -0.2996 -0.1594 -2.2230
  289MOL    H3735173   3.063   7.179   6.850  0.8572  0.9520 -0.5655
  289MOL    C3835174   2.896   7.212   6.714  0.2865 -0.0273  0.2299
  289MOL    C3935175   2.798   7.321   6.666  0.0025 -0.2598  0.7433
  289MOL    F4035176   2.847   7.390   6.560  0.6537 -0.0387  0.2332
  289MOL    H4135177   2.944   7.176   6.623 -0.9627  1.4945 -1.0761
  289MOL    H4235178   2.841   7.132   6.762 -0.5511 -0.4280 -1.3518
  289MOL    H4335179   2.784   7.384   6.753 -1.6327  0.1415  0.2141
  289MOL    C4435180   2.661   7.272   6.615  0.7179  0.2242  0.0497
  289MOL    C4535181   2.666   7.179   6.490  0.4120  0.2048  0.0721
  289MOL    F4635182   2.734   7.073   6.538 -0.0614  0.2920 -0.1921
  289MOL    H4735183   2.617   7.213   6.696  0.9342 -0.3779 -0.2669
  289MOL    H4835184   2.599   7.358   6.591 -0.2884  0.2169  2.4163
  289MOL    H4935185   2.717   7.237   6.413  0.3458 -0.4220 -0.4386
  289MOL    C5035186   2.531   7.151   6.426 -0.1452 -0.1602 -0.1163
  289MOL    C5135187   2.536   7.065   6.299  0.1751 -0.7391 -0.1133
  289MOL    F5235188   2.620   7.128   6.218  0.0494 -0.5969  0.6307
  289MOL    H5335189   2.472   7.095   6.498 -1.2825 -0.3031 -1.1392
  289MOL    H5435190   2.485   7.249   6.408 -2.0318 -0.8908  0.6692
  289MOL    H5535191   2.437   7.070   6.254 -1.2108  1.8212  3.0308
  289MOL    C5635192   2.579   6.922   6.316 -0.2568 -0.6013 -0.1070
  289MOL    C5735193   2.558   6.829   6.191 -1.0661 -0.0636 -0.5399
  289MOL    F5835194   2.627   6.854   6.084 -0.2336 -0.5895 -0.3647
  289MOL    H5935195   2.683   6.916   6.347  0.1051  0.4821 -1.0634
  289MOL    H6035196   2.519   6.874   6.393 -0.4786  2.4914  1.7552
  289MOL    H6135197   2.451   6.832   6.168 -1.2241 -1.3874 -0.0343
  289MOL    C6235198   2.583   6.679   6.222  0.6165 -0.1683  0.3866
  289MOL    C6335199   2.471   6.602   6.306  0.4059 -0.1427  0.4970
  289MOL    F6435200   2.366   6.568   6.224  0.1159 -0.2682  0.2174
  289MOL    H6535201   2.614   6.623   6.134  0.3025  0.1060  0.1012
  289MOL    H6635202   2.675   6.660   6.278  1.3151 -0.0196 -0.7058
  289MOL    H6735203   2.439   6.679   6.376  1.3183 -0.5895  1.4296
  289MOL    C6835204   2.514   6.464   6.361 -0.0606  0.1082 -0.1102
  289MOL    C6935205   2.617   6.465   6.474  0.1997 -0.4288  0.8438
  289MOL    F7035206   2.567   6.531   6.581  0.0899 -0.1024  0.0084
  289MOL    H7135207   2.422   6.419   6.398  0.8837 -1.4995  0.3162
  289MOL    H7235208   2.542   6.405   6.273 -1.4342  2.0775 -1.9274
  289MOL    H7335209   2.702   6.529   6.448 -0.6990  1.0524  1.4817
  289MOL    C7435210   2.654   6.324   6.524 -0.1302  0.0935  0.6724
  289MOL    C7535211   2.749   6.255   6.431 -0.6325 -0.2862 -0.2021
  289MOL    F7635212   2.852   6.334   6.413 -0.8931  0.3687 -0.2959
  289MOL    H7735213   2.705   6.342   6.619  0.2258  1.9847  0.1463
  289MOL    H7835214   2.565   6.263   6.537 -0.6616  0.1955 -2.2077
  289MOL    H7935215   2.709   6.246   6.330 -0.0220 -2.0335 -0.2920
  289MOL    C8035216   2.793   6.115   6.478 -0.4013 -0.4234 -0.4121
  289MOL    C8135217   2.897   6.052   6.397 -0.1365 -0.2142  0.0578
  289MOL    F8235218   3.021   6.100   6.428 -0.0290 -0.4579  0.0078
  289MOL    H8335219   2.827   6.124   6.581  1.7989 -0.6217 -1.0934
  289MOL    H8435220   2.699   6.062   6.494 -0.6764  0.8915  2.5677
  289MOL    H8535221   2.884   6.079   6.293 -1.1119 -0.0301  0.2216
  289MOL    C8635222   2.924   5.898   6.417 -0.3389 -0.4225  0.1496
  289MOL    C8735223   3.021   5.836   6.313 -0.4232  0.1237  0.6230
  289MOL    F8835224   3.139   5.843   6.367 -0.4403 -0.2315  0.0562
  289MOL    H8935225   2.959   5.881   6.519  0.3280  1.1042  0.1891
  289MOL    H9035226   2.828   5.847   6.418 -1.1551  1.0506 -0.4383
  289MOL    H9135227   3.016   5.894   6.221  0.7417 -0.3575  0.2544
  289MOL    C9235228   3.007   5.685   6.290  0.1057 -0.2790  0.2493
  289MOL    C9335229   2.869   5.649   6.222 -0.8406 -0.2157 -0.0103
  289MOL    F9435230   2.844   5.728   6.113  0.6102 -0.1851 -0.1857
  289MOL    H9535231   3.087   5.638   6.232  1.7608  0.7828  1.6111
  289MOL    H9635232   3.021   5.631   6.383  2.3587 -1.0626 -0.4948
  289MOL    H9735233   2.786   5.664   6.291 -0.1243 -1.1273  1.0496
  289MOL    C9835234   2.876   5.504   6.158  0.2718  0.5689  0.1581
  289MOL    C9935235   2.873   5.389   6.263 -0.2416  0.1429 -0.1713
  289MOL   F10035236   2.770   5.384   6.344  0.0237 -0.4374  0.0508
  289MOL   H10135237   2.786   5.481   6.100  1.0510 -1.4107 -0.2862
  289MOL   H10235238   2.960   5.498   6.089  0.0315  2.1708 -0.3032
  289MOL   H10335239   2.955   5.410   6.332 -1.4229 -1.1626  1.6692
  289MOL   C10435240   2.910   5.257   6.203  0.4585  0.2771 -0.2365
  289MOL   C10535241   2.892   5.142   6.302  0.3015  0.0514  0.3858
  289MOL   F10635242   2.758   5.129   6.332 -0.3009  0.4046  0.1068
  289MOL   H10735243   2.840   5.231   6.123  0.9536 -1.6309 -0.0752
  289MOL   H10835244   3.010   5.270   6.162  0.0785  2.4023 -0.5445
  289MOL   H10935245   2.931   5.184   6.394 -0.3120 -0.7695  1.0361
  289MOL   C11035246   2.956   5.004   6.266  0.5505  0.4246  0.3463
  289MOL   C11135247   3.110   5.009   6.250  0.2250 -0.0770 -0.8072
  289MOL   F11235248   3.155   5.056   6.370  0.3944 -0.0751  0.3890
  289MOL   H11335249   2.926   4.928   6.339  0.1707  0.0581 -0.1917
  289MOL   H11435250   2.909   4.977   6.172 -1.1047  0.7559  1.0558
  289MOL   H11535251   3.140   5.093   6.187 -2.6691  0.9626 -0.8489
  289MOL   C11635252   3.195   4.875   6.221 -1.1264 -0.0693  0.1381
  289MOL   C11735253   3.338   4.915   6.201  0.0526  0.0904  0.5129
  289MOL   F11835254   3.407   4.800   6.200  0.1645 -0.4348 -0.5296
  289MOL   H11935255   3.180   4.813   6.309 -0.7748  0.8392  0.8421
  289MOL   H12035256   3.164   4.814   6.136  0.8874 -0.3884 -0.3959
  289MOL   H12135257   3.379   4.969   6.287  1.1185  1.3866 -0.7982
  289MOL   H12235258   3.352   4.977   6.113 -0.8196  0.2796  0.5107
  290MOL     C135259   1.643   7.662   7.995  0.4647  0.0527  0.8089
  290MOL     C235260   1.594   7.743   0.114  0.2818  0.8286 -1.0211
  290MOL     F335261   1.707   7.785   0.171 -0.0450 -0.2346 -0.3568
  290MOL     H435262   1.719   7.714   7.936 -1.5985  1.2057 -0.9054
  290MOL     H535263   1.562   7.637   7.927  1.1503 -1.8431  0.6617
  290MOL     H635264   1.537   7.677   0.179  2.0071  1.0248  0.7388
  290MOL     H735265   1.703   7.574   0.012 -0.6956 -0.9070  0.1399
  290MOL     C835266   1.506   7.866   0.065  0.0111 -0.1344  0.4904
  290MOL     C935267   1.360   7.817   0.036  0.2927 -0.1972  0.4361
  290MOL    F1035268   1.301   7.791   0.148  0.1424 -0.1166  0.5645
  290MOL    H1135269   1.507   7.939   0.146  2.9004  1.0204 -0.5336
  290MOL    H1235270   1.545   7.922   7.984 -0.4279  1.9084  1.6303
  290MOL    H1335271   1.357   7.731   7.972  0.9523 -0.6988  1.0488
  290MOL    C1435272   1.266   7.929   7.972  0.8288  0.0582  0.4269
  290MOL    C1535273   1.113   7.891   7.958 -0.2215 -0.0320  0.1654
  290MOL    F1635274   1.048   0.002   7.924  0.1324 -0.3137  0.0140
  290MOL    H1735275   1.282   0.018   0.026  0.4206 -0.5950  1.6178
  290MOL    H1835276   1.285   7.960   7.869  1.7546  1.1521  0.9081
  290MOL    H1935277   1.080   7.877   0.058 -2.3719 -0.1931 -0.5167
  290MOL    C2035278   1.071   7.779   7.854 -0.0858 -0.0747  0.3819
  290MOL    C2135279   0.919   7.793   7.822  0.1285 -0.5208  0.9353
  290MOL    F2235280   0.895   7.701   7.725  0.1047 -0.5757  0.1323
  290MOL    H2335281   1.125   7.797   7.760 -0.1426  2.7792  0.8540
  290MOL    H2435282   1.094   7.681   7.896 -1.7695  0.1919  2.0032
  290MOL    H2535283   0.895   7.894   7.789  0.8681 -0.6656 -0.0704
  290MOL    C2635284   0.832   7.762   7.946  0.8625  0.2979  0.4474
  290MOL    C2735285   0.690   7.813   7.939  0.6622  0.0738 -0.2182
  290MOL    F2835286   0.689   7.942   7.935 -0.1851 -0.4029 -0.0830
  290MOL    H2935287   0.837   7.654   7.962 -4.4266 -0.0057  1.1585
  290MOL    H3035288   0.876   7.810   0.030  0.5583  0.6862  0.3903
  290MOL    H3135289   0.639   7.790   0.030 -0.9741 -0.3763 -1.1778
  290MOL    C3235290   0.598   7.759   7.834 -0.0338 -0.4515  0.2658
  290MOL    C3335291   0.598   7.609   7.823  0.5333  0.4854 -0.3170
  290MOL    F3435292   0.557   7.570   7.938 -0.0580 -0.0221 -0.5411
  290MOL    H3535293   0.499   7.805   7.842  0.5912  1.2298 -1.3944
  290MOL    H3635294   0.634   7.808   7.744 -0.8967 -1.2530 -0.5238
  290MOL    H3735295   0.694   7.568   7.793  0.7901 -0.4361  1.6850
  290MOL    C3835296   0.506   7.567   7.709  0.2267  0.1237  0.3470
  290MOL    C3935297   0.528   7.417   7.665  0.2962 -0.9910 -0.0926
  290MOL    F4035298   0.649   7.399   7.621 -0.4120 -0.3088  0.0670
  290MOL    H4135299   0.399   7.586   7.717  0.3452  0.2706  1.7866
  290MOL    H4235300   0.547   7.615   7.620 -1.5923  3.4967  1.2359
  290MOL    H4335301   0.470   7.406   7.574 -2.6928 -0.8644  1.7449
  290MOL    C4435302   0.503   7.304   7.767  0.9506  0.1557 -0.2181
  290MOL    C4535303   0.354   7.311   7.814 -0.3217 -0.1029  0.2906
  290MOL    F4635304   0.279   7.283   7.708 -0.0658 -0.5001 -0.3813
  290MOL    H4735305   0.522   7.201   7.737 -1.6056 -0.5064  0.3138
  290MOL    H4835306   0.572   7.305   7.852  0.1783 -3.5791  0.5404
  290MOL    H4935307   0.309   7.409   7.834 -1.8143 -0.6733 -0.1418
  290MOL    C5035308   0.316   7.207   7.921  0.6451  0.0416  0.1730
  290MOL    C5135309   0.354   7.248   0.062 -0.3769  0.1519 -0.4165
  290MOL    F5235310   0.266   7.344   0.098  0.1974 -0.0715 -0.0559
  290MOL    H5335311   0.207   7.207   7.921  0.6193 -0.7946 -2.4832
  290MOL    H5435312   0.347   7.108   7.887 -0.3047  0.8776 -3.3475
  290MOL    H5535313   0.451   7.298   0.061 -1.3458  2.0490 -0.7921
  290MOL    C5635314   0.344   7.129   0.163 -0.1023 -0.0988 -0.2374
  290MOL    C5735315   0.429   7.007   0.139 -0.4015  0.3741  0.2430
  290MOL    F5835316   0.383   6.944   0.036  0.0967  0.9121  0.3603
  290MOL    H5935317   0.357   7.162   0.266 -2.0551 -1.9772  0.6459
  290MOL    H6035318   0.241   7.093   0.169 -0.5407  0.6151 -2.6089
  290MOL    H6135319   0.417   6.948   0.230  0.4152 -1.3206 -0.7197
  290MOL    C6235320   0.571   7.034   0.112  0.1417  0.3325 -0.6717
  290MOL    C6335321   0.655   6.913   0.140 -0.7137 -0.1663  0.5618
  290MOL    F6435322   0.628   6.814   0.054  0.5054 -0.0923 -0.0805
  290MOL    H6535323   0.582   7.079   0.014  1.8399  0.9329 -0.2220
  290MOL    H6635324   0.602   7.119   0.172 -1.3920  2.1400 -2.3907
  290MOL    H6735325   0.622   6.865   0.232 -2.2261 -0.2215  0.0055
  290MOL    C6835326   0.806   6.943   0.139  0.3012 -0.2585  0.1388
  290MOL    C6935327   0.893   6.849   0.235  0.0636 -0.3005 -0.0473
  290MOL    F7035328   0.846   6.863   0.359  0.0319  0.0191  0.4913
  290MOL    H7135329   0.847   6.928   0.039 -0.0619 -0.7901  0.0676
  290MOL    H7235330   0.826   7.049   0.151  1.6441 -0.2961 -1.6238
  290MOL    H7335331   0.995   6.888   0.237 -0.6350  1.6021 -0.9300
  290MOL    C7435332   0.908   6.711   0.188  0.1736 -0.1591 -0.7917
  290MOL    C7535333   0.997   6.625   0.286  0.0563 -0.3495 -0.3853
  290MOL    F7635334   0.985   6.499   0.249  0.3801 -0.1294 -0.0547
  290MOL    H7735335   0.813   6.658   0.187 -0.6649  1.3305 -0.9585
  290MOL    H7835336   0.950   6.714   0.088 -0.4687 -0.5321 -1.0758
  290MOL    H7935337   0.947   6.644   0.381 -0.6000 -1.7454 -0.4420
  290MOL    C8035338   1.149   6.661   0.293 -0.7770 -0.2298 -0.4612
  290MOL    C8135339   1.217   6.569   0.401  0.2769  0.4856 -0.5658
  290MOL    F8235340   1.345   6.619   0.376  0.3104  0.1268 -0.4777
  290MOL    H8335341   1.192   6.641   0.195 -1.5506 -1.1925 -0.6108
  290MOL    H8435342   1.165   6.767   0.311 -0.4538 -0.1852 -0.9927
  290MOL    H8535343   1.215   6.468   0.358  2.0495  0.4654 -0.6375
  290MOL    C8635344   1.187   6.598   0.550  0.4628 -0.1045 -0.2325
  290MOL    C8735345   1.282   6.540   0.647  0.8390  0.4704 -0.6184
  290MOL    F8835346   1.252   6.573   0.772 -0.1107 -0.2463  0.4547
  290MOL    H8935347   1.182   6.707   0.553  1.4040  0.0733 -3.6884
  290MOL    H9035348   1.087   6.554   0.558  0.6476 -0.6950 -1.1688
  290MOL    H9135349   1.382   6.581   0.634  0.5968  1.6040  0.9228
  290MOL    C9235350   1.303   6.385   0.650 -0.0151 -0.3472  0.4958
  290MOL    C9335351   1.429   6.330   0.709  0.6015  0.3068 -0.8723
  290MOL    F9435352   1.413   6.203   0.727  0.3165  0.2574  0.0820
  290MOL    H9535353   1.224   6.326   0.697  0.8936 -1.3853  0.7439
  290MOL    H9635354   1.289   6.349   0.548  0.1459 -0.5633  0.5501
  290MOL    H9735355   1.449   6.359   0.812 -0.9014 -1.9097  0.0813
  290MOL    C9835356   1.554   6.345   0.614  0.1073  0.4638 -0.6719
  290MOL    C9935357   1.691   6.334   0.684  0.2970  0.1140  0.4503
  290MOL   F10035358   1.723   6.443   0.740  0.0648  0.0485  0.2060
  290MOL   H10135359   1.551   6.274   0.532  0.1576  0.2184 -0.4637
  290MOL   H10235360   1.542   6.444   0.570  0.0079  0.8691  0.2512
  290MOL   H10335361   1.767   6.322   0.606  0.2245 -0.6877  0.4988
  290MOL   C10435362   1.711   6.212   0.780 -0.1109  0.1379 -0.3048
  290MOL   C10535363   1.859   6.200   0.830  0.8976 -0.5312 -0.6799
  290MOL   F10635364   1.891   6.309   0.900 -0.3680 -0.7421 -0.3883
  290MOL   H10735365   1.638   6.220   0.860  0.6449 -0.9967  0.5247
  290MOL   H10835366   1.697   6.116   0.731 -0.3656 -1.3831  2.6074
  290MOL   H10935367   1.932   6.206   0.749  1.2130  0.8293 -0.3107
  290MOL   C11035368   1.880   6.069   0.912 -0.2270 -0.2141  0.3275
  290MOL   C11135369   2.007   6.072   1.008  0.3132 -0.1955  0.2783
  290MOL   F11235370   2.016   5.965   1.088  0.1089  0.3226 -0.0988
  290MOL   H11335371   1.792   6.044   0.972  0.1216 -1.5975  0.2934
  290MOL   H11435372   1.885   5.983   0.845  0.2791 -0.0399  0.1449
  290MOL   H11535373   2.001   6.150   1.084  1.2882  0.5409 -0.3866
  290MOL   C11635374   2.138   6.085   0.923  0.1034  0.3283  0.1907
  290MOL   C11735375   2.260   6.119   1.007 -0.5516  0.1293  0.2704
  290MOL   F11835376   2.367   6.093   0.929 -0.8801  0.4688  0.3993
  290MOL   H11935377   2.161   5.995   0.867  0.6810 -1.2049  2.8280
  290MOL   H12035378   2.124   6.165   0.849 -2.2342 -0.4008 -0.1944
  290MOL   H12135379   2.277   6.072   1.104 -0.4539  2.2383  1.3011
  290MOL   H12235380   2.236   6.224   1.025 -0.9294  0.1382 -0.2788
  291MOL     C135381   1.506   7.238   2.860  0.1273  0.4987  0.6839
  291MOL     C235382   1.541   7.285   3.005 -0.0180 -0.1128 -0.3590
  291MOL     F335383   1.656   7.348   3.009 -0.5502  0.1512  0.2231
  291MOL     H435384   1.574   7.163   2.821 -1.0784 -0.0792 -0.3586
  291MOL     H535385   1.505   7.316   2.784 -4.0297 -0.2464 -0.1659
  291MOL     H635386   1.543   7.200   3.073 -4.1706 -1.3007 -1.5643
  291MOL     H735387   1.407   7.192   2.847  1.0770 -1.7658  1.1402
  291MOL     C835388   1.438   7.379   3.071  0.4420  0.0370 -0.1514
  291MOL     C935389   1.327   7.295   3.130 -0.4438 -0.1719  0.4255
  291MOL    F1035390   1.367   7.191   3.206  0.5746 -0.1538  0.4019
  291MOL    H1135391   1.474   7.443   3.152  0.8388 -0.3390 -0.0256
  291MOL    H1235392   1.392   7.455   3.008 -0.9179  0.2541  1.0748
  291MOL    H1335393   1.264   7.251   3.052  0.2972  2.5523 -1.7931
  291MOL    C1435394   1.230   7.372   3.223 -0.1513  0.2214  0.4495
  291MOL    C1535395   1.097   7.289   3.250  0.7037 -0.0459  0.6373
  291MOL    F1635396   1.122   7.184   3.335 -0.9248 -0.0147  0.4691
  291MOL    H1735397   1.282   7.397   3.315  0.7974 -0.3596  0.0794
  291MOL    H1835398   1.210   7.466   3.172  0.9433 -0.2067 -0.8163
  291MOL    H1935399   1.054   7.245   3.160  1.6618  3.8526 -1.8516
  291MOL    C2035400   0.984   7.365   3.320 -0.3119  0.7554 -0.8668
  291MOL    C2135401   0.905   7.450   3.222 -0.1829  0.6131 -0.0288
  291MOL    F2235402   0.853   7.380   3.123 -0.7662 -0.0964  0.1458
  291MOL    H2335403   0.909   7.299   3.364  1.9235 -0.0082  1.8757
  291MOL    H2435404   1.032   7.425   3.396 -2.7389 -0.7259  1.9272
  291MOL    H2535405   0.977   7.525   3.191  0.1561 -0.1985 -1.2939
  291MOL    C2635406   0.793   7.523   3.299 -0.3633  0.3401  0.6435
  291MOL    C2735407   0.734   7.645   3.215  0.0585 -0.4877 -0.5780
  291MOL    F2835408   0.662   7.600   3.111 -0.0001 -0.1190  0.5558
  291MOL    H2935409   0.714   7.457   3.336 -0.8470  2.0472  2.8167
  291MOL    H3035410   0.829   7.571   3.390  1.5907  1.7166 -0.8064
  291MOL    H3135411   0.808   7.716   3.179 -1.1714  0.7455 -0.7213
  291MOL    C3235412   0.642   7.722   3.315 -0.3417  0.5358  0.9866
  291MOL    C3335413   0.572   7.853   3.256  0.1777  0.3097  0.1006
  291MOL    F3435414   0.497   7.820   3.150  0.2792 -0.2201  0.0590
  291MOL    H3535415   0.565   7.658   3.358 -1.6405  2.1792  1.1621
  291MOL    H3635416   0.695   7.760   3.402 -0.5311  0.2577  1.2240
  291MOL    H3735417   0.642   7.920   3.205 -2.4617  1.1944 -2.4783
  291MOL    C3835418   0.497   7.931   3.363 -0.6238 -0.2527 -0.1658
  291MOL    C3935419   0.425   0.060   3.318 -0.2924 -0.2336 -0.6225
  291MOL    F4035420   0.332   0.100   3.409  0.5129 -0.3626  0.2080
  291MOL    H4135421   0.419   7.867   3.402 -0.3711  0.0748  0.9184
  291MOL    H4235422   0.563   7.951   3.448  1.1164 -1.1163 -1.2860
  291MOL    H4335423   0.362   0.040   3.231 -1.8256  1.5718  0.0561
  291MOL    C4435424   0.517   0.181   3.283 -0.7940 -0.1205  0.2720
  291MOL    C4535425   0.580   0.249   3.403 -0.6807 -0.0259 -0.3230
  291MOL    F4635426   0.660   0.161   3.463 -0.0384 -0.0017 -0.3881
  291MOL    H4735427   0.596   0.151   3.213 -0.2343 -1.4274  1.4306
  291MOL    H4835428   0.460   0.256   3.229 -0.6113 -1.2515 -1.5234
  291MOL    H4935429   0.502   0.277   3.474  0.9529 -1.2125  2.0217
  291MOL    C5035430   0.653   0.384   3.373 -0.0784 -0.8473  0.1625
  291MOL    C5135431   0.688   0.477   3.487  0.6677  0.5054 -1.1752
  291MOL    F5235432   0.792   0.428   3.546  0.3443 -0.6441  0.5740
  291MOL    H5335433   0.742   0.364   3.313  0.1510  0.2001  0.1380
  291MOL    H5435434   0.584   0.443   3.311  0.1524 -0.5398  0.1964
  291MOL    H5535435   0.619   0.487   3.571  1.7358  3.6816 -0.6033
  291MOL    C5635436   0.718   0.624   3.433 -0.6871  1.0172  0.2172
  291MOL    C5735437   0.711   0.742   3.531 -0.4111  0.2044  0.5477
  291MOL    F5835438   0.784   0.845   3.486  0.1769 -0.7267  0.7189
  291MOL    H5935439   0.822   0.628   3.401 -0.6260  1.4978  0.4721
  291MOL    H6035440   0.661   0.641   3.342  0.2367 -1.7416 -0.9178
  291MOL    H6135441   0.757   0.714   3.626  0.7957  1.1523  0.2438
  291MOL    C6235442   0.568   0.784   3.560  0.0080  0.1969 -0.1767
  291MOL    C6335443   0.554   0.882   3.679 -0.3884 -0.6354  0.1181
  291MOL    F6435444   0.540   1.003   3.626 -0.8260  0.3812 -0.1048
  291MOL    H6535445   0.506   0.804   3.472 -1.3454  0.1912  0.7664
  291MOL    H6635446   0.528   0.690   3.597 -1.0088  1.8741  3.1606
  291MOL    H6735447   0.643   0.887   3.742 -0.5264  1.3528  0.1840
  291MOL    C6835448   0.417   0.877   3.761  0.2702  0.4339  0.3142
  291MOL    C6935449   0.392   0.987   3.873 -0.3669  0.3193  0.8434
  291MOL    F7035450   0.418   1.105   3.826 -0.3131 -0.8926 -0.0817
  291MOL    H7135451   0.337   0.885   3.688  1.3085 -1.8501 -1.1613
  291MOL    H7235452   0.415   0.778   3.807  0.5925 -0.0453 -0.6687
  291MOL    H7335453   0.456   0.950   3.954 -0.8398 -0.9602  0.6522
  291MOL    C7435454   0.249   0.983   3.925  0.3445 -0.0202  0.2394
  291MOL    C7535455   0.200   0.849   3.994  0.0412  0.0792  0.4588
  291MOL    F7635456   0.299   0.817   4.073 -0.2481  0.0253  0.3932
  291MOL    H7735457   0.228   1.068   3.991 -0.2959 -1.0248  1.3529
  291MOL    H7835458   0.174   0.992   3.846  0.2493 -2.2661  0.0430
  291MOL    H7935459   0.181   0.769   3.923 -0.0687  1.1836 -0.7941
  291MOL    C8035460   0.069   0.870   4.082 -0.2093 -0.4588  0.6217
  291MOL    C8135461   7.953   0.920   4.002 -0.3387  0.0677  0.6726
  291MOL    F8235462   7.951   0.843   3.890  0.4431 -0.0753  0.0807
  291MOL    H8335463   0.046   0.774   4.126 -3.6691 -0.2852 -0.6253
  291MOL    H8435464   0.095   0.947   4.154  0.4333 -0.5689  0.5178
  291MOL    H8535465   7.975   1.021   3.970 -2.7444  1.1678  2.3589
  291MOL    C8635466   7.820   0.924   4.074 -0.1606  0.4837  0.5137
  291MOL    C8735467   7.711   1.022   4.024 -0.3639 -0.9209 -0.2690
  291MOL    F8835468   7.700   0.996   3.895  0.4262 -0.4542  0.3398
  291MOL    H8935469   7.772   0.826   4.082  0.8382 -0.1250 -0.8124
  291MOL    H9035470   7.835   0.932   4.182  1.4682  3.3498  0.1241
  291MOL    H9135471   7.739   1.127   4.034 -0.2146 -1.1779  2.2445
  291MOL    C9235472   7.570   1.008   4.086 -0.6785 -0.3409  0.2189
  291MOL    C9335473   7.460   1.118   4.047 -0.1069  0.2175 -0.7305
  291MOL    F9435474   7.448   1.128   3.915 -0.1469  0.1675  0.1758
  291MOL    H9535475   7.526   0.910   4.065 -1.1413  0.0132 -0.5133
  291MOL    H9635476   7.576   1.022   4.194  0.3348  1.1057 -0.0117
  291MOL    H9735477   7.511   1.208   4.081  1.9300 -1.1101 -0.2202
  291MOL    C9835478   7.321   1.109   4.113  0.3135  0.2462  0.7198
  291MOL    C9935479   7.316   1.110   4.261  0.6147 -0.1725 -0.6634
  291MOL   F10035480   7.378   1.224   4.308 -0.0145  0.2498 -0.3240
  291MOL   H10135481   7.269   1.196   4.073  0.4288  0.8812  1.9164
  291MOL   H10235482   7.278   1.015   4.078 -0.6859  1.0378 -0.1954
  291MOL   H10335483   7.378   1.026   4.293  2.6344  1.7701  0.7200
  291MOL   C10435484   7.179   1.098   4.330 -0.0230  0.3803 -0.3485
  291MOL   C10535485   7.165   1.114   4.481 -0.0891 -0.1867  0.1908
  291MOL   F10635486   7.043   1.126   4.521  0.1942  0.4962  0.4046
  291MOL   H10735487   7.111   1.163   4.275 -1.5107 -1.0195 -0.2108
  291MOL   H10835488   7.135   0.999   4.319 -1.4471  0.9630 -0.0133
  291MOL   H10935489   7.217   1.206   4.506 -1.2158  0.6335 -0.4448
  291MOL   C11035490   7.233   0.999   4.557 -0.1572  0.2961 -0.4168
  291MOL   C11135491   7.203   0.999   4.712 -0.4543 -0.4302 -0.1093
  291MOL   F11235492   7.273   0.912   4.778  0.0482 -0.1115  0.2736
  291MOL   H11335493   7.195   0.901   4.528 -0.7621 -0.8893  3.9440
  291MOL   H11435494   7.341   0.994   4.545  0.0042 -0.3413  1.1771
  291MOL   H11535495   7.102   0.977   4.748  0.3950 -3.1273  0.7192
  291MOL   C11635496   7.236   1.129   4.779 -0.0120 -0.1022 -0.6120
  291MOL   C11735497   7.183   1.152   4.920 -0.1130 -0.7118 -0.2806
  291MOL   F11835498   7.045   1.159   4.927  0.1037 -0.0903  0.1729
  291MOL   H11935499   7.345   1.139   4.782  0.0316 -0.5689 -0.5839
  291MOL   H12035500   7.193   1.208   4.718 -0.0146  1.1530  0.9643
  291MOL   H12135501   7.217   1.242   4.971 -1.6403 -0.0644 -0.3701
  291MOL   H12235502   7.207   1.074   4.992 -1.0753 -0.0201  0.8191
  292MOL     C135503   5.632   6.630   4.216 -0.5598 -0.3889 -0.5064
  292MOL     C235504   5.672   6.541   4.328 -0.6607  0.7006 -0.0386
  292MOL     F335505   5.741   6.443   4.266  0.2226 -0.4400 -0.2801
  292MOL     H435506   5.572   6.713   4.254  0.9653  1.3163 -1.7608
  292MOL     H535507   5.563   6.578   4.149 -2.1577 -0.5030  1.1697
  292MOL     H635508   5.585   6.489   4.367  0.1555  0.2448  1.1990
  292MOL     H735509   5.719   6.677   4.171  0.8436 -0.0007  2.4625
  292MOL     C835510   5.749   6.593   4.453 -0.0859  0.1319  0.9298
  292MOL     C935511   5.901   6.581   4.440 -0.4537  0.3414 -0.2871
  292MOL    F1035512   5.936   6.670   4.348 -0.1448  0.2923 -0.2199
  292MOL    H1135513   5.719   6.695   4.477  0.9594  0.6218  0.2363
  292MOL    H1235514   5.721   6.531   4.538 -0.3129 -1.1110 -0.0459
  292MOL    H1335515   5.937   6.486   4.402  3.0340  0.1105  3.2300
  292MOL    C1435516   5.972   6.626   4.561 -0.0332 -0.4260 -0.8117
  292MOL    C1535517   5.980   6.514   4.666  0.2324 -0.0394  0.1897
  292MOL    F1635518   6.052   6.409   4.626  0.3131  0.2610 -0.2489
  292MOL    H1735519   6.071   6.658   4.528  0.1248 -0.8938 -0.7935
  292MOL    H1835520   5.917   6.714   4.594 -1.8398 -1.7065 -0.3136
  292MOL    H1935521   5.879   6.473   4.677 -0.5765  1.6195 -0.7726
  292MOL    C2035522   6.019   6.559   4.812  0.2481  0.3975 -0.2004
  292MOL    C2135523   5.913   6.643   4.880  0.7252 -0.0922 -0.2049
  292MOL    F2235524   5.792   6.593   4.865  0.1545  0.1054  0.0208
  292MOL    H2335525   6.021   6.469   4.873  0.8511 -0.3802 -1.3407
  292MOL    H2435526   6.122   6.595   4.815  1.1445 -2.0413 -0.2099
  292MOL    H2535527   5.896   6.738   4.828  0.3451  0.0679  0.2081
  292MOL    C2635528   5.939   6.664   5.036 -0.0633  0.6520 -0.5143
  292MOL    C2735529   6.074   6.722   5.059 -0.7112 -0.2683  0.2110
  292MOL    F2835530   6.100   6.819   4.972 -0.2918 -0.0384  0.4783
  292MOL    H2935531   5.863   6.736   5.066  1.3125  1.0720  2.0322
  292MOL    H3035532   5.921   6.576   5.097  3.5651  0.5669  0.5145
  292MOL    H3135533   6.147   6.647   5.028  2.5999  2.3247  1.4164
  292MOL    C3235534   6.117   6.770   5.201 -0.6219 -0.9324  0.5442
  292MOL    C3335535   6.268   6.785   5.227  0.1942  0.5133 -0.2498
  292MOL    F3435536   6.323   6.897   5.177  0.1235 -0.1597 -0.1201
  292MOL    H3535537   6.064   6.864   5.217  0.7859 -0.5194  2.9934
  292MOL    H3635538   6.072   6.699   5.270 -0.3018 -1.4775  0.1905
  292MOL    H3735539   6.321   6.706   5.173 -0.6897 -0.7568  0.7188
  292MOL    C3835540   6.292   6.781   5.378 -0.1204 -0.3382  0.1699
  292MOL    C3935541   6.438   6.785   5.432  0.1329  0.0703 -0.0793
  292MOL    F4035542   6.474   6.910   5.436 -0.3658  0.2433  0.3595
  292MOL    H4135543   6.243   6.867   5.424 -0.2372 -0.9301  1.1567
  292MOL    H4235544   6.236   6.695   5.414 -0.5919 -0.0761  0.0705
  292MOL    H4335545   6.491   6.740   5.349 -2.3997 -0.9419 -1.1847
  292MOL    C4435546   6.459   6.723   5.567  1.0140 -0.1456 -0.1070
  292MOL    C4535547   6.387   6.792   5.684  0.0725 -0.5139  0.0446
  292MOL    F4635548   6.259   6.786   5.665 -0.0017 -0.1448 -0.6396
  292MOL    H4735549   6.426   6.619   5.571  1.2444 -0.3039 -2.2224
  292MOL    H4835550   6.566   6.711   5.582  0.7382 -2.9342  0.0673
  292MOL    H4935551   6.423   6.895   5.690  1.0350 -0.9432  2.4991
  292MOL    C5035552   6.419   6.724   5.818  0.0701  0.3583  0.4059
  292MOL    C5135553   6.556   6.747   5.883 -0.1261 -0.7309  0.7168
  292MOL    F5235554   6.570   6.874   5.902  0.4114 -0.1324  0.3768
  292MOL    H5335555   6.354   6.769   5.893 -0.8781 -0.5335  0.1202
  292MOL    H5435556   6.400   6.619   5.800 -0.0849  0.7073 -1.5893
  292MOL    H5535557   6.633   6.731   5.807 -2.0885  1.6559 -1.9067
  292MOL    C5635558   6.562   6.682   6.019 -0.0190  0.5790 -0.4209
  292MOL    C5735559   6.688   6.707   6.101 -0.6701 -0.1142  0.8472
  292MOL    F5835560   6.649   6.666   6.223 -0.7441 -0.3047  0.2800
  292MOL    H5935561   6.476   6.720   6.075  0.8517  1.9974 -0.0436
  292MOL    H6035562   6.556   6.574   6.005 -1.9674  0.5861  0.1805
  292MOL    H6135563   6.712   6.813   6.115  1.7027 -0.8885  3.0928
  292MOL    C6235564   6.804   6.612   6.045  0.3641 -1.0703 -0.6459
  292MOL    C6335565   6.942   6.651   6.102 -0.1492  0.5419 -0.2608
  292MOL    F6435566   6.974   6.778   6.087 -0.1438  0.5987  0.1961
  292MOL    H6535567   6.786   6.505   6.060 -2.0406 -0.4816  0.9842
  292MOL    H6635568   6.804   6.620   5.936  2.1373  1.0877 -0.5157
  292MOL    H6735569   7.021   6.605   6.042 -0.9078  1.7999 -2.2849
  292MOL    C6835570   6.967   6.606   6.255  0.5981 -0.9261  0.1219
  292MOL    C6935571   6.968   6.458   6.286  0.3897  0.3571  0.1083
  292MOL    F7035572   6.858   6.397   6.252  0.3736 -0.2277  0.0817
  292MOL    H7135573   7.055   6.652   6.301 -0.7848  0.4876  1.4227
  292MOL    H7235574   6.890   6.650   6.319 -0.8225 -3.0503 -0.0882
  292MOL    H7335575   6.973   6.443   6.394 -0.3642 -1.0439 -0.0264
  292MOL    C7435576   7.073   6.370   6.216 -0.0365 -0.1866  0.1071
  292MOL    C7535577   7.068   6.226   6.247  0.3944 -0.2241 -0.3458
  292MOL    F7635578   6.968   6.173   6.174 -0.5056  0.5914  0.4197
  292MOL    H7735579   7.059   6.382   6.108  1.6138  1.3174  0.0320
  292MOL    H7835580   7.166   6.409   6.257 -0.7098  1.2270  0.2841
  292MOL    H7935581   7.026   6.215   6.347  0.2677  0.0035 -0.3733
  292MOL    C8035582   7.196   6.156   6.218 -0.3713 -0.3081  0.3641
  292MOL    C8135583   7.227   6.130   6.079  0.1089 -0.1661 -0.9683
  292MOL    F8235584   7.247   6.236   6.003 -0.4588  0.8294 -0.3585
  292MOL    H8335585   7.279   6.212   6.259 -0.4010 -0.8578  1.2015
  292MOL    H8435586   7.215   6.065   6.276  0.1974  0.4687  1.4151
  292MOL    H8535587   7.143   6.082   6.029 -1.7955  3.3324 -1.3444
  292MOL    C8635588   7.343   6.044   6.055 -0.4264 -0.0028  0.3447
  292MOL    C8735589   7.349   5.897   6.104  0.8447 -0.9295  0.5433
  292MOL    F8835590   7.235   5.839   6.063 -0.1214 -0.1671  0.6256
  292MOL    H8935591   7.359   6.053   5.947 -1.5605  3.7888  0.4148
  292MOL    H9035592   7.423   6.102   6.099  0.6947  1.9998 -4.0409
  292MOL    H9135593   7.345   5.904   6.213  0.4939  1.4636  0.4107
  292MOL    C9235594   7.460   5.818   6.041 -0.5566 -0.2560 -0.1929
  292MOL    C9335595   7.596   5.851   6.112 -0.4731  0.5055  0.0076
  292MOL    F9435596   7.589   5.794   6.233 -0.5372 -0.0157 -0.3214
  292MOL    H9535597   7.440   5.712   6.050  1.7767 -0.9220 -2.3980
  292MOL    H9635598   7.468   5.851   5.938  3.1033  1.5569  0.5982
  292MOL    H9735599   7.593   5.958   6.132  0.8604  0.2780  1.4755
  292MOL    C9835600   7.724   5.819   6.028 -0.1133 -0.4767 -0.0408
  292MOL    C9935601   7.737   5.668   6.013  0.3243 -0.0131 -0.1452
  292MOL   F10035602   7.632   5.628   5.940  0.1513 -0.2954  0.3935
  292MOL   H10135603   7.730   5.877   5.935  2.9681  0.5770  0.7636
  292MOL   H10235604   7.807   5.870   6.077  0.7146 -2.3628  0.5448
  292MOL   H10335605   7.730   5.612   6.107  2.8492 -0.6967 -0.3361
  292MOL   C10435606   7.860   5.646   5.923  0.1617  0.0009 -0.3234
  292MOL   C10535607   8.000   5.665   5.991 -0.8535 -0.4048 -0.5405
  292MOL   F10635608   0.013   5.583   6.092  0.2414  0.0818  0.5077
  292MOL   H10735609   7.855   5.542   5.890  2.5716 -0.9004  1.9632
  292MOL   H10835610   7.850   5.713   5.837  0.8127 -0.2932 -0.6375
  292MOL   H10935611   0.004   5.767   6.029 -3.5540 -0.0331 -0.9504
  292MOL   C11035612   0.114   5.648   5.897 -0.4744  0.3205 -0.2276
  292MOL   C11135613   0.142   5.761   5.797 -0.2198 -0.3687  0.0164
  292MOL   F11235614   0.167   5.877   5.879 -0.1627 -0.1688 -0.1400
  292MOL   H11335615   0.208   5.618   5.941  0.0291  1.7179 -0.3126
  292MOL   H11435616   0.086   5.561   5.837 -0.7426  1.0792 -1.2315
  292MOL   H11535617   0.052   5.780   5.737 -0.1524  0.7209  0.2580
  292MOL   C11635618   0.250   5.729   5.700 -0.3326  0.4350  0.5079
  292MOL   C11735619   0.283   5.842   5.601  0.1450  0.5423  0.5829
  292MOL   F11835620   0.373   5.807   5.516 -0.1885 -0.2534 -0.3540
  292MOL   H11935621   0.341   5.714   5.759 -1.5292 -0.1881  2.2541
  292MOL   H12035622   0.243   5.641   5.637  0.6468  0.9150 -0.2794
  292MOL   H12135623   0.322   5.922   5.664 -1.5219  0.5374  1.6567
  292MOL   H12235624   0.192   5.875   5.550 -0.4835  0.2602  1.5092
  293MOL     C135625   4.581   2.952   5.793  0.5608  0.0141 -0.5999
  293MOL     C235626   4.446   2.941   5.851 -0.4345 -0.3336  0.0095
  293MOL     F335627   4.379   3.050   5.803 -0.0947  0.1793  0.2752
  293MOL     H435628   4.640   2.861   5.806 -1.4802 -1.1110  1.0032
  293MOL     H535629   4.618   3.043   5.839 -1.8817 -0.1210  1.7362
  293MOL     H635630   4.458   2.955   5.958 -2.8242  2.6887 -0.0324
  293MOL     H735631   4.589   2.984   5.689  0.4089  0.2682 -0.5320
  293MOL     C835632   4.372   2.819   5.799 -0.7114 -0.7776 -0.4555
  293MOL     C935633   4.243   2.791   5.881 -0.1089  0.9515 -0.0371
  293MOL    F1035634   4.276   2.766   6.007 -0.3992  0.1810  0.0823
  293MOL    H1135635   4.330   2.832   5.699 -0.4336 -0.5515 -0.5436
  293MOL    H1235636   4.433   2.728   5.795 -2.2525 -1.8120 -0.8827
  293MOL    H1335637   4.190   2.702   5.847 -0.8046  1.1182  0.6184
  293MOL    C1435638   4.136   2.904   5.887 -0.6110  0.3667 -0.0065
  293MOL    C1535639   4.074   2.953   5.753  0.1966 -0.4738 -0.1426
  293MOL    F1635640   4.034   2.844   5.695  0.0773 -0.3702 -0.4212
  293MOL    H1735641   4.053   2.862   5.944 -1.0469 -0.2792 -1.1004
  293MOL    H1835642   4.176   2.985   5.947  2.8838 -0.9971 -0.4181
  293MOL    H1935643   4.153   2.991   5.688  0.3772  0.4086  0.5833
  293MOL    C2035644   3.964   3.049   5.772  0.3087 -0.5968  0.8424
  293MOL    C2135645   3.994   3.181   5.852 -0.0189 -0.5984  0.0301
  293MOL    F2235646   4.077   3.255   5.776  0.6284  0.3130  0.2578
  293MOL    H2335647   3.932   3.091   5.676  3.1639  3.0310  1.3326
  293MOL    H2435648   3.877   2.998   5.813 -0.1431 -1.2507 -0.8791
  293MOL    H2535649   4.046   3.166   5.947 -1.3010 -1.2523  0.6445
  293MOL    C2635650   3.867   3.263   5.887  0.1238 -0.8633  0.1672
  293MOL    C2735651   3.915   3.403   5.921 -0.8577 -0.7775 -0.0395
  293MOL    F2835652   3.806   3.470   5.920 -0.2926 -0.1445 -0.4684
  293MOL    H2935653   3.798   3.264   5.802  0.3557  0.0191 -0.0162
  293MOL    H3035654   3.820   3.211   5.970 -3.8134  0.1251 -1.3278
  293MOL    H3135655   3.983   3.444   5.847 -2.0085 -1.1115 -1.3065
  293MOL    C3235656   3.994   3.422   6.060  0.3769  0.2459  0.2498
  293MOL    C3335657   4.031   3.567   6.105  0.1476  0.3070 -0.5725
  293MOL    F3435658   3.915   3.631   6.134 -0.1183  0.0600 -0.0512
  293MOL    H3535659   3.945   3.371   6.142  1.6491 -1.2093  0.1207
  293MOL    H3635660   4.091   3.374   6.050  1.1562  1.4766  1.7680
  293MOL    H3735661   4.082   3.613   6.020 -0.4809  0.2304 -0.9979
  293MOL    C3835662   4.120   3.551   6.230  0.8291  0.2370 -0.4225
  293MOL    C3935663   4.143   3.683   6.309  0.6302  0.4266 -0.4699
  293MOL    F4035664   4.196   3.642   6.429 -0.4912  0.5820  0.2896
  293MOL    H4135665   4.073   3.486   6.303  0.1735  2.5758  1.3179
  293MOL    H4235666   4.217   3.511   6.203  0.3953 -1.1266  0.0365
  293MOL    H4335667   4.049   3.728   6.338  0.1274 -0.6935 -0.3601
  293MOL    C4435668   4.223   3.799   6.246 -0.9921 -0.2276 -1.2474
  293MOL    C4535669   4.374   3.759   6.234  0.4742 -0.1585 -0.2209
  293MOL    F4635670   4.383   3.659   6.157 -0.3060 -0.0091 -0.3129
  293MOL    H4735671   4.178   3.823   6.150 -3.9680  1.8388  0.5696
  293MOL    H4835672   4.212   3.894   6.299  2.6472  0.6190 -1.8435
  293MOL    H4935673   4.422   3.720   6.323  0.2929  1.4833  0.6263
  293MOL    C5035674   4.471   3.861   6.179  0.1204 -0.0490  0.0186
  293MOL    C5135675   4.622   3.821   6.169 -0.8616  0.0020 -0.6074
  293MOL    F5235676   4.670   3.894   6.070  0.2532  0.1694  0.0921
  293MOL    H5335677   4.441   3.884   6.077  1.1563 -0.0807 -0.2987
  293MOL    H5435678   4.454   3.953   6.235 -0.8477 -1.0030  1.3234
  293MOL    H5535679   4.648   3.721   6.136 -2.2721 -0.6207  0.1433
  293MOL    C5635680   4.703   3.859   6.292  0.7161 -0.7399  0.2030
  293MOL    C5735681   4.855   3.819   6.283  0.0002 -0.2402 -0.5165
  293MOL    F5835682   4.922   3.893   6.184  0.2591 -0.6043 -0.3204
  293MOL    H5935683   4.692   3.967   6.291 -2.0498 -0.9853  1.0545
  293MOL    H6035684   4.652   3.822   6.381 -2.7652 -0.2850 -1.5420
  293MOL    H6135685   4.864   3.713   6.260  0.4536 -0.2442 -0.3229
  293MOL    C6235686   4.929   3.828   6.414 -0.2222  0.1549 -0.5944
  293MOL    C6335687   5.061   3.752   6.425  0.2430  0.3660  0.6607
  293MOL    F6435688   5.044   3.627   6.370 -0.0692 -0.2372 -0.0791
  293MOL    H6535689   4.939   3.931   6.446 -2.8030  0.9426 -2.2798
  293MOL    H6635690   4.868   3.777   6.489 -1.7735  0.1706 -1.8400
  293MOL    H6735691   5.085   3.733   6.530  1.6013 -1.5628  0.0516
  293MOL    C6835692   5.184   3.823   6.357 -0.3895 -1.4282  0.1363
  293MOL    C6935693   5.313   3.748   6.361  0.1882  0.3560  0.8834
  293MOL    F7035694   5.289   3.630   6.294 -0.3603 -0.0233 -0.6154
  293MOL    H7135695   5.169   3.854   6.253 -2.6237  1.1554  1.1639
  293MOL    H7235696   5.191   3.912   6.420 -0.4767 -1.2307 -0.1295
  293MOL    H7335697   5.340   3.716   6.462  0.9141  0.9202  0.8694
  293MOL    C7435698   5.429   3.821   6.292 -0.4223 -0.1037 -0.0320
  293MOL    C7535699   5.454   3.970   6.342  0.1681  0.0663 -0.1896
  293MOL    F7635700   5.430   3.967   6.477 -0.0004 -0.7700  0.4957
  293MOL    H7735701   5.520   3.762   6.304 -0.2027  0.5726  1.8430
  293MOL    H7835702   5.410   3.818   6.185  0.7210 -0.7681 -0.2282
  293MOL    H7935703   5.389   4.043   6.293  1.6378  0.9070 -0.9216
  293MOL    C8035704   5.592   4.035   6.323  0.5647 -0.4811 -0.4847
  293MOL    C8135705   5.621   4.052   6.169 -0.3371 -0.3152  0.0631
  293MOL    F8235706   5.527   4.125   6.104 -0.5965 -0.1391 -0.4995
  293MOL    H8335707   5.585   4.134   6.369  1.3971 -0.7504  0.2333
  293MOL    H8435708   5.681   3.982   6.356  0.0008 -1.1779 -0.0855
  293MOL    H8535709   5.630   3.952   6.128 -1.0929 -0.7953  1.0434
  293MOL    C8635710   5.758   4.113   6.144 -0.5301 -0.3574 -0.3949
  293MOL    C8735711   5.834   4.086   6.018 -0.3232  0.1373  0.4806
  293MOL    F8835712   5.848   3.953   6.019 -0.0451 -0.2548  0.3119
  293MOL    H8935713   5.743   4.221   6.155  0.8643 -0.1615 -0.2689
  293MOL    H9035714   5.816   4.083   6.231  1.5339  0.5172 -1.4218
  293MOL    H9135715   5.935   4.128   6.022  0.9725 -3.0119  1.9802
  293MOL    C9235716   5.767   4.137   5.883  0.5576 -0.3661  0.4499
  293MOL    C9335717   5.737   4.286   5.871 -0.3023  0.3130 -0.8076
  293MOL    F9435718   5.843   4.353   5.895  0.3883  0.6305 -0.2425
  293MOL    H9535719   5.834   4.109   5.801  1.6714 -0.7763  1.4652
  293MOL    H9635720   5.680   4.078   5.855  0.5631 -0.3213  0.3392
  293MOL    H9735721   5.658   4.311   5.942  1.1250  0.0546  0.9074
  293MOL    C9835722   5.673   4.333   5.739 -1.2185 -0.4272  0.0370
  293MOL    C9935723   5.547   4.264   5.696 -0.4605  0.1644  0.7221
  293MOL   F10035724   5.451   4.277   5.788 -0.7641  0.6044 -0.6731
  293MOL   H10135725   5.683   4.440   5.719  0.7891 -1.1759 -3.4169
  293MOL   H10235726   5.745   4.292   5.668 -0.2534  1.1455  0.0811
  293MOL   H10335727   5.560   4.156   5.692 -0.0101  0.2547 -0.3598
  293MOL   C10435728   5.478   4.314   5.569  0.7880  0.2587  0.1933
  293MOL   C10535729   5.557   4.311   5.443  0.3295  0.6965  0.4755
  293MOL   F10635730   5.593   4.190   5.410 -0.0557 -0.2634  0.0359
  293MOL   H10735731   5.397   4.242   5.560  0.5930  0.7561 -2.2492
  293MOL   H10835732   5.443   4.414   5.593  1.4700  0.0287  2.2380
  293MOL   H10935733   5.644   4.374   5.459  2.1277 -1.9414  1.3382
  293MOL   C11035734   5.488   4.374   5.317  0.0648  0.4600 -0.6733
  293MOL   C11135735   5.437   4.523   5.341 -0.1735  0.3431  0.8925
  293MOL   F11235736   5.514   4.592   5.423 -0.4223  0.4555  0.5964
  293MOL   H11335737   5.568   4.381   5.243  0.0370  0.4310 -0.7057
  293MOL   H11435738   5.423   4.306   5.262  0.6669  0.2329 -1.1004
  293MOL   H11535739   5.336   4.521   5.381 -0.9360 -1.6150 -1.0325
  293MOL   C11635740   5.427   4.613   5.223  0.0905 -0.2920  0.0217
  293MOL   C11735741   5.367   4.753   5.251  0.1382  0.5668  0.2522
  293MOL   F11835742   5.242   4.737   5.296  0.6766 -0.1771 -0.5124
  293MOL   H11935743   5.523   4.629   5.174  0.1196  2.4744  0.9023
  293MOL   H12035744   5.373   4.557   5.147 -1.0119  1.6937 -0.6684
  293MOL   H12135745   5.370   4.814   5.161  1.0526  2.0621  1.2617
  293MOL   H12235746   5.419   4.792   5.338  0.4035 -0.0081  0.3564
  294MOL     C135747   6.791   4.198   0.551  0.4055 -0.3328  0.0546
  294MOL     C235748   6.844   4.340   0.508 -0.5062  0.8253 -0.7122
  294MOL     F335749   6.840   4.348   0.383 -0.5477 -0.3005  0.3060
  294MOL     H435750   6.866   4.121   0.538  0.2713 -0.0774 -2.5684
  294MOL     H535751   6.713   4.166   0.481  0.9650  0.1910 -0.8193
  294MOL     H635752   6.942   4.348   0.555 -0.6770 -0.1673 -0.1499
  294MOL     H735753   6.755   4.202   0.654 -1.1911 -0.3881 -0.4921
  294MOL     C835754   6.771   4.463   0.568  0.2191  0.7899  0.0843
  294MOL     C935755   6.801   4.583   0.483  0.3802 -0.8027  0.1298
  294MOL    F1035756   6.707   4.591   0.382 -0.4258 -0.0324  0.6260
  294MOL    H1135757   6.664   4.445   0.578  0.4137  0.3661  1.5289
  294MOL    H1235758   6.807   4.490   0.667 -0.0552  1.3976  0.0174
  294MOL    H1335759   6.898   4.579   0.433 -0.7214  0.4161 -2.2200
  294MOL    C1435760   6.783   4.712   0.565 -0.2064  0.1368  0.6037
  294MOL    C1535761   6.833   4.837   0.482 -0.0713 -0.3504  0.2781
  294MOL    F1635762   6.793   4.944   0.550  0.5045 -0.3521  0.2525
  294MOL    H1735763   6.679   4.724   0.596 -1.1637 -0.6454 -2.1524
  294MOL    H1835764   6.833   4.698   0.661  4.9788 -0.1796 -2.0020
  294MOL    H1935765   6.784   4.844   0.385 -1.2101  1.4322  0.9612
  294MOL    C2035766   6.987   4.858   0.458  1.1878  0.5637  0.1734
  294MOL    C2135767   7.078   4.846   0.579  0.1292 -0.1256  0.2809
  294MOL    F2235768   7.082   4.719   0.616  0.4843 -0.1771  0.3420
  294MOL    H2335769   7.022   4.799   0.373  1.2580 -0.7714  1.1066
  294MOL    H2435770   7.003   4.956   0.413  1.3398  0.5181  0.1269
  294MOL    H2535771   7.022   4.894   0.660  0.0540  0.3904 -0.0761
  294MOL    C2635772   7.213   4.917   0.574  0.3857 -0.3160  0.0800
  294MOL    C2735773   7.305   4.936   0.695  0.3274 -0.2958  0.0694
  294MOL    F2835774   7.423   4.995   0.656  0.3370 -0.4892  0.4613
  294MOL    H2935775   7.276   4.877   0.495  1.4864  0.5566  0.5168
  294MOL    H3035776   7.193   5.022   0.553  3.3239  0.2289 -0.1152
  294MOL    H3135777   7.333   4.837   0.730  1.1759 -0.4617 -1.0519
  294MOL    C3235778   7.230   5.012   0.810 -0.2411  0.3085 -0.2595
  294MOL    C3335779   7.316   5.035   0.937  0.2021  0.2820 -0.0895
  294MOL    F3435780   7.386   4.931   0.984 -0.2150 -0.3463  0.8810
  294MOL    H3535781   7.195   5.110   0.776 -0.1788  0.7494  0.9489
  294MOL    H3635782   7.143   4.952   0.837  1.7517 -1.7989  1.5935
  294MOL    H3735783   7.243   5.072   1.009  0.0345  0.7132 -0.4765
  294MOL    C3835784   7.418   5.157   0.944  0.8489  0.3666  0.0114
  294MOL    C3935785   7.362   5.300   0.929  0.1300  0.4907  0.7426
  294MOL    F4035786   7.299   5.329   1.039 -0.2064 -0.0112 -0.1158
  294MOL    H4135787   7.469   5.145   1.039 -2.1458 -1.9235  1.4113
  294MOL    H4235788   7.494   5.132   0.870 -1.0862 -1.3222 -1.4602
  294MOL    H4335789   7.297   5.307   0.842  1.2412  0.3083 -0.1091
  294MOL    C4435790   7.482   5.400   0.910 -0.2244  0.2966 -0.2574
  294MOL    C4535791   7.548   5.390   0.769  0.4048  0.7123  0.3503
  294MOL    F4635792   7.458   5.431   0.682 -0.1290  0.5390  0.5772
  294MOL    H4735793   7.454   5.505   0.925  0.3778  0.1379  2.0420
  294MOL    H4835794   7.563   5.386   0.981 -0.6850  2.6395  0.7697
  294MOL    H4935795   7.553   5.286   0.736  1.5598  0.8160  0.1875
  294MOL    C5035796   7.679   5.462   0.749  0.3213  0.0509 -0.2489
  294MOL    C5135797   7.758   5.450   0.618  0.2264  0.2777 -0.2315
  294MOL    F5235798   7.710   5.524   0.522  0.8129  0.3025 -0.0507
  294MOL    H5335799   7.658   5.567   0.771 -0.5233 -0.4250  1.2148
  294MOL    H5435800   7.746   5.424   0.826  1.6988 -0.8332 -1.8410
  294MOL    H5535801   7.767   5.347   0.584  1.9842  0.8763 -1.6685
  294MOL    C5635802   7.906   5.489   0.635 -0.5322 -0.0577 -0.3061
  294MOL    C5735803   7.986   5.485   0.498  0.0543  0.3635  0.6494
  294MOL    F5835804   7.942   5.578   0.415  0.4751 -0.0195  0.0483
  294MOL    H5935805   7.902   5.591   0.672  0.4058  0.1324 -0.7172
  294MOL    H6035806   7.955   5.433   0.714  0.4250  1.6210  0.3145
  294MOL    H6135807   7.969   5.388   0.452  1.4687  0.5432 -0.2561
  294MOL    C6235808   0.132   5.500   0.527  0.4663 -0.1554 -0.1838
  294MOL    C6335809   0.221   5.488   0.402  0.4404  0.1600 -0.0266
  294MOL    F6435810   0.334   5.565   0.408 -0.1153  0.2506 -0.1218
  294MOL    H6535811   0.137   5.602   0.566 -0.4312  0.6135 -2.0246
  294MOL    H6635812   0.163   5.423   0.597 -0.9165 -0.0562  0.5470
  294MOL    H6735813   0.170   5.516   0.310 -0.1894 -1.5116 -0.2193
  294MOL    C6835814   0.268   5.340   0.373  0.8830  0.1643  0.8204
  294MOL    C6935815   0.292   5.315   0.226  0.2653 -0.1469  0.1176
  294MOL    F7035816   0.171   5.318   0.167 -0.0725  0.6782 -0.2511
  294MOL    H7135817   0.357   5.313   0.431  0.0427 -1.1785  1.5210
  294MOL    H7235818   0.184   5.275   0.396 -0.6797  2.1404  0.8411
  294MOL    H7335819   0.326   5.212   0.215  1.5466  0.2275  0.4916
  294MOL    C7435820   0.384   5.422   0.158  0.1344  0.0238 -0.4420
  294MOL    C7535821   0.530   5.419   0.225  0.4239 -0.0302  0.1555
  294MOL    F7635822   0.565   5.295   0.208 -0.4644  0.1940 -0.4407
  294MOL    H7735823   0.403   5.405   0.052 -3.1410  1.2192 -1.2700
  294MOL    H7835824   0.335   5.519   0.165  0.6890  0.2419  0.4968
  294MOL    H7935825   0.526   5.432   0.333 -0.9269 -0.1413  0.1256
  294MOL    C8035826   0.619   5.524   0.166  0.0464 -0.1211 -1.0980
  294MOL    C8135827   0.586   5.674   0.207 -0.1222 -0.4782  0.5841
  294MOL    F8235828   0.594   5.693   0.338 -0.5039 -0.3122 -0.1882
  294MOL    H8335829   0.716   5.492   0.203  0.9171 -0.0789 -3.3043
  294MOL    H8435830   0.614   5.502   0.060 -2.0227 -0.4464 -0.9527
  294MOL    H8535831   0.481   5.692   0.183  0.5382  2.1721 -0.5371
  294MOL    C8635832   0.670   5.777   0.141 -0.0850  0.0223  0.1595
  294MOL    C8735833   0.822   5.750   0.137 -0.0919  0.3338  0.6948
  294MOL    F8835834   0.870   5.814   0.036  0.2759  0.3238  0.3788
  294MOL    H8935835   0.646   5.787   0.036  0.4890 -1.3396 -0.1142
  294MOL    H9035836   0.656   5.876   0.185  0.2255 -1.2441  3.2928
  294MOL    H9135837   0.840   5.649   0.103  0.1366  0.4277  0.5341
  294MOL    C9235838   0.915   5.785   0.257 -0.3751  0.1695 -0.5061
  294MOL    C9335839   1.055   5.722   0.251  1.0969  0.0097 -0.6955
  294MOL    F9435840   1.134   5.781   0.340 -0.6230 -0.3510 -0.0956
  294MOL    H9535841   0.916   5.890   0.287  2.7473  0.2658 -0.7894
  294MOL    H9635842   0.864   5.755   0.348 -0.6885  2.2835  0.0368
  294MOL    H9735843   1.091   5.757   0.155  1.8611  1.4660  0.1125
  294MOL    C9835844   1.068   5.566   0.266  0.5062  0.1110 -0.0975
  294MOL    C9935845   1.193   5.502   0.190 -0.0071 -0.3710  0.6268
  294MOL   F10035846   1.217   5.391   0.264 -0.0198 -0.5332  0.0150
  294MOL   H10135847   1.071   5.541   0.372 -0.1868 -1.3860 -0.4172
  294MOL   H10235848   0.977   5.515   0.236 -0.2694  1.3167  0.1774
  294MOL   H10335849   1.278   5.571   0.189 -0.7959  0.5999  0.5668
  294MOL   C10435850   1.176   5.459   0.045 -0.2190 -0.6222  0.6466
  294MOL   C10535851   1.165   5.566   7.942 -0.4761 -0.2955 -0.3229
  294MOL   F10635852   1.261   5.645   7.974  0.7996 -0.6036  0.0084
  294MOL   H10735853   1.266   5.400   0.027 -0.6719 -0.9090 -0.6946
  294MOL   H10835854   1.083   5.404   0.039 -1.3732  1.3558 -0.2159
  294MOL   H10935855   1.080   5.632   7.955 -0.5379 -0.6695  1.2782
  294MOL   C11035856   1.189   5.532   7.793 -0.1660 -0.0044  0.6357
  294MOL   C11135857   1.086   5.424   7.738  0.1410 -1.0664 -0.2554
  294MOL   F11235858   0.963   5.460   7.760  0.1186 -0.0968  0.0313
  294MOL   H11335859   1.180   5.630   7.746 -1.9502 -0.5431 -0.1890
  294MOL   H11435860   1.289   5.496   7.769 -1.0813 -1.7449 -0.6952
  294MOL   H11535861   1.104   5.336   7.800 -1.2248 -0.0288  1.6387
  294MOL   C11635862   1.111   5.394   7.588  0.3656  0.1568  0.1610
  294MOL   C11735863   1.071   5.251   7.546 -0.0317  0.2450 -0.0093
  294MOL   F11835864   1.080   5.241   7.410  0.1015 -0.1989 -0.4237
  294MOL   H11935865   1.060   5.466   7.525 -1.5434 -1.1192  0.2137
  294MOL   H12035866   1.216   5.411   7.566 -0.1726  0.4460 -2.2521
  294MOL   H12135867   0.970   5.221   7.574 -0.1801  0.7873  0.0536
  294MOL   H12235868   1.141   5.174   7.575 -0.7095  0.0580  1.1629
  295MOL     C135869   2.701   6.565   3.212 -0.1160  0.0061  0.2722
  295MOL     C235870   2.852   6.579   3.208  0.2134  0.0746 -0.1739
  295MOL     F335871   2.890   6.597   3.083  0.7173  0.1215 -0.3658
  295MOL     H435872   2.660   6.540   3.310 -0.4119  0.5125  0.2830
  295MOL     H535873   2.666   6.492   3.139 -0.1672  0.6243 -0.3256
  295MOL     H635874   2.907   6.495   3.251  0.2737  0.5210  0.6234
  295MOL     H735875   2.646   6.657   3.189 -0.8732 -0.7567 -1.0626
  295MOL     C835876   2.897   6.704   3.283  0.0568 -0.5928  0.1470
  295MOL     C935877   3.048   6.737   3.281  0.6429 -0.2019 -0.4679
  295MOL    F1035878   3.069   6.864   3.265 -0.1170 -0.0795 -0.0014
  295MOL    H1135879   2.849   6.793   3.243  1.3896 -0.1242 -0.4529
  295MOL    H1235880   2.872   6.694   3.389  0.2680 -1.0368  0.1543
  295MOL    H1335881   3.086   6.678   3.197 -0.8707 -0.4302 -1.0158
  295MOL    C1435882   3.126   6.704   3.408 -0.8006 -0.7016  0.1964
  295MOL    C1535883   3.098   6.788   3.525  0.4522 -0.6189  0.0560
  295MOL    F1635884   2.982   6.759   3.584 -0.0972 -0.1000  0.2051
  295MOL    H1735885   3.119   6.596   3.425 -1.6810 -0.5231  0.9861
  295MOL    H1835886   3.231   6.720   3.384 -1.8878  2.0168 -3.1395
  295MOL    H1935887   3.104   6.895   3.503  1.5194 -0.7913 -0.5283
  295MOL    C2035888   3.195   6.751   3.639  0.0300  0.4753 -0.4091
  295MOL    C2135889   3.182   6.830   3.765 -0.7162  0.3559  0.4914
  295MOL    F2235890   3.263   6.777   3.854 -0.1951 -0.4197 -0.0902
  295MOL    H2335891   3.185   6.644   3.659  0.6085  0.7287  1.2722
  295MOL    H2435892   3.296   6.758   3.599 -0.0715  2.7054 -0.3451
  295MOL    H2535893   3.079   6.816   3.799 -0.4217 -0.0560  1.2203
  295MOL    C2635894   3.233   6.985   3.747 -0.5360 -0.1565  0.2159
  295MOL    C2735895   3.240   7.087   3.870 -0.4045  0.5120  0.5622
  295MOL    F2835896   3.115   7.104   3.909 -0.1407 -0.1580 -0.5409
  295MOL    H2935897   3.333   6.985   3.703  0.7995  3.0734  3.0001
  295MOL    H3035898   3.178   7.027   3.663  1.0766  1.9457  0.1760
  295MOL    H3135899   3.274   7.184   3.834  1.4039  0.5842  2.4238
  295MOL    C3235900   3.336   7.051   3.991  0.3552  0.0196  0.2085
  295MOL    C3335901   3.478   7.017   3.942  0.2690  1.7547  0.2430
  295MOL    F3435902   3.547   7.130   3.920 -0.3174  0.3697 -0.2982
  295MOL    H3535903   3.336   7.127   4.070  0.1717  0.3724 -0.1322
  295MOL    H3635904   3.300   6.962   4.044  0.2165  0.5241  0.9824
  295MOL    H3735905   3.480   6.970   3.844  0.5453 -2.3174  2.1158
  295MOL    C3835906   3.554   6.936   4.050 -0.3955 -0.1731  0.4819
  295MOL    C3935907   3.546   6.784   4.046 -0.3036  0.1192  0.1163
  295MOL    F4035908   3.611   6.753   3.933  0.0330  1.0472  0.0305
  295MOL    H4135909   3.660   6.963   4.053 -0.4359  0.0555 -0.0572
  295MOL    H4235910   3.519   6.972   4.147  3.4901 -0.7545  2.1983
  295MOL    H4335911   3.443   6.749   4.039 -1.0732  1.8633  2.1597
  295MOL    C4435912   3.625   6.693   4.149 -0.1786 -0.5689 -0.1301
  295MOL    C4535913   3.539   6.668   4.270 -0.3441 -0.7345  0.1671
  295MOL    F4635914   3.447   6.578   4.242 -0.2254 -0.6812 -0.1011
  295MOL    H4735915   3.657   6.597   4.109 -1.3105 -1.0824  0.1998
  295MOL    H4835916   3.720   6.739   4.177 -0.3353 -0.1324 -0.3049
  295MOL    H4935917   3.484   6.757   4.297  0.6371 -0.0414 -0.1077
  295MOL    C5035918   3.615   6.619   4.394  0.2627  0.4401  0.7594
  295MOL    C5135919   3.516   6.596   4.508  1.0036 -0.3009 -0.6689
  295MOL    F5235920   3.562   6.498   4.592  0.7229  0.3635  0.1217
  295MOL    H5335921   3.676   6.532   4.370  1.4369  1.8707 -1.5885
  295MOL    H5435922   3.693   6.689   4.424  2.5426 -1.3573 -0.7837
  295MOL    H5535923   3.418   6.560   4.475  0.7451  1.6998 -2.1300
  295MOL    C5635924   3.495   6.722   4.600 -0.2347 -0.0268  0.3981
  295MOL    C5735925   3.375   6.722   4.694  0.4344 -0.1306 -0.2892
  295MOL    F5835926   3.394   6.826   4.771 -0.2413 -0.3966 -0.0845
  295MOL    H5935927   3.589   6.738   4.653 -0.4435 -0.5433  0.9386
  295MOL    H6035928   3.483   6.811   4.538 -1.4087 -0.0882  0.5155
  295MOL    H6135929   3.382   6.633   4.757  1.6901 -0.3046 -0.6468
  295MOL    C6235930   3.226   6.720   4.635  0.0823 -0.5058  0.4284
  295MOL    C6335931   3.114   6.721   4.730 -0.1885 -0.4523 -0.0258
  295MOL    F6435932   2.996   6.763   4.684 -0.0425 -0.2241  0.2679
  295MOL    H6535933   3.220   6.818   4.588  2.1406  0.7706  2.7246
  295MOL    H6635934   3.209   6.654   4.549  0.2623  1.7791 -1.4191
  295MOL    H6735935   3.146   6.782   4.815 -0.1440  0.0648 -0.4087
  295MOL    C6835936   3.099   6.590   4.813 -0.2695  0.2992 -0.6150
  295MOL    C6935937   3.037   6.474   4.736 -0.5135  0.3259  0.6140
  295MOL    F7035938   3.118   6.446   4.632 -0.7938 -0.6517 -0.0431
  295MOL    H7135939   3.195   6.561   4.855 -0.1221 -0.7698 -1.6548
  295MOL    H7235940   3.042   6.606   4.904  0.3748 -1.8334  0.2106
  295MOL    H7335941   2.938   6.504   4.701 -0.1343  0.5828 -0.2591
  295MOL    C7435942   3.031   6.342   4.814 -0.3769  0.0339 -0.0271
  295MOL    C7535943   2.914   6.340   4.914 -0.6474 -0.0615 -0.3649
  295MOL    F7635944   2.798   6.334   4.841  0.2636  0.0786 -0.0666
  295MOL    H7735945   3.016   6.266   4.737 -1.6279 -1.2769  1.4969
  295MOL    H7835946   3.131   6.323   4.853 -0.0823  3.0251  0.8097
  295MOL    H7935947   2.901   6.429   4.976 -2.2524  0.3373 -1.2422
  295MOL    C8035948   2.924   6.209   4.996 -0.4368  0.1496 -0.8256
  295MOL    C8135949   3.027   6.219   5.105 -0.6837 -0.2969 -1.1518
  295MOL    F8235950   3.009   6.331   5.170  0.0349 -0.5076 -0.0915
  295MOL    H8335951   2.827   6.187   5.040 -0.3817 -1.4934 -1.5032
  295MOL    H8435952   2.941   6.120   4.936 -1.1633 -0.4128 -0.2089
  295MOL    H8535953   3.128   6.214   5.066 -0.5456 -1.2384 -0.6778
  295MOL    C8635954   3.019   6.101   5.202 -0.0718  0.1918 -0.1553
  295MOL    C8735955   3.147   6.079   5.285 -0.2488  0.1011  0.3343
  295MOL    F8835956   3.251   6.035   5.200 -0.4425 -0.7793  0.1914
  295MOL    H8935957   2.931   6.121   5.263  2.7539  1.7539  3.6358
  295MOL    H9035958   2.999   6.008   5.150  0.2471  0.7412 -1.2817
  295MOL    H9135959   3.141   5.999   5.360  0.9370 -1.4900 -1.2271
  295MOL    C9235960   3.195   6.197   5.364 -0.1396 -0.2701 -0.4192
  295MOL    C9335961   3.100   6.245   5.473  0.6994 -0.8590  0.3787
  295MOL    F9435962   3.082   6.144   5.561 -0.2551  0.1307  0.4183
  295MOL    H9535963   3.290   6.174   5.412 -0.7596 -1.8890  0.0505
  295MOL    H9635964   3.211   6.288   5.305 -1.3761  0.3518  0.1923
  295MOL    H9735965   2.999   6.263   5.434  1.1512  1.2218  0.0832
  295MOL    C9835966   3.148   6.371   5.551 -0.1449  0.2935 -0.3574
  295MOL    C9935967   3.102   6.500   5.481  0.7612 -0.5185  0.2350
  295MOL   F10035968   2.972   6.508   5.501  0.8540  0.3267 -0.4709
  295MOL   H10135969   3.116   6.363   5.655 -0.8220 -1.7328 -0.6971
  295MOL   H10235970   3.256   6.377   5.559 -0.1905  1.3911 -0.4950
  295MOL   H10335971   3.124   6.495   5.374 -1.0288  1.6659 -0.2568
  295MOL   C10435972   3.167   6.630   5.540  0.4179 -0.3868 -0.0060
  295MOL   C10535973   3.316   6.660   5.508 -0.4350  0.5833 -0.2300
  295MOL   F10635974   3.324   6.667   5.373  0.0855  0.4177  0.1712
  295MOL   H10735975   3.109   6.720   5.522  2.4453  0.2334 -4.0145
  295MOL   H10835976   3.158   6.631   5.649 -2.6539 -2.8263 -0.1718
  295MOL   H10935977   3.377   6.572   5.527  0.8275  1.1017 -1.7369
  295MOL   C11035978   3.375   6.791   5.566 -0.0428  0.1677  0.4747
  295MOL   C11135979   3.379   6.806   5.720 -0.0692 -0.4864  0.2116
  295MOL   F11235980   3.471   6.727   5.767 -0.4402  0.1713  0.0519
  295MOL   H11335981   3.478   6.791   5.531 -0.4813  1.2851 -0.8631
  295MOL   H11435982   3.320   6.877   5.528 -2.5212 -1.2654  0.6669
  295MOL   H11535983   3.282   6.783   5.765  0.0586 -0.1035  0.6936
  295MOL   C11635984   3.412   6.945   5.767 -0.5566 -0.2467 -0.0270
  295MOL   C11735985   3.388   6.972   5.910 -0.5225 -0.2941 -0.8918
  295MOL   F11835986   3.448   7.082   5.952  0.3434 -0.4030 -0.1956
  295MOL   H11935987   3.515   6.971   5.741 -0.4589  0.1312  0.7203
  295MOL   H12035988   3.348   7.018   5.718 -0.1601  0.5732  0.6582
  295MOL   H12135989   3.420   6.887   5.971 -1.4974  0.0058  0.0569
  295MOL   H12235990   3.282   6.987   5.928 -0.5448 -0.1858 -1.1183
  296MOL     C135991   1.439   5.223   7.876  0.1031  0.2952 -0.3229
  296MOL     C235992   1.325   5.123   7.897 -0.1363 -0.2518  0.3488
  296MOL     F335993   1.289   5.071   7.776  0.1101  0.2114 -0.9206
  296MOL     H435994   1.450   5.279   7.968  2.9738 -0.8112  0.0503
  296MOL     H535995   1.412   5.291   7.795 -2.3186  0.2953  0.4547
  296MOL     H635996   1.235   5.177   7.928  0.8259  0.4240  2.0134
  296MOL     H735997   1.527   5.168   7.841 -0.9415 -2.6680  1.5615
  296MOL     C835998   1.369   5.009   7.994 -0.2650  1.1530 -0.4477
  296MOL     C935999   1.358   5.034   0.137  0.2393 -1.0527 -0.6887
  296MOL    F1036000   1.236   5.081   0.152  0.3547  0.5034  0.2193
  296MOL    H1136001   1.310   4.922   7.968  0.5389  1.0368 -1.9120
  296MOL    H1236002   1.466   4.966   7.969  0.8253  1.7278  2.5143
  296MOL    H1336003   1.416   5.121   0.164 -0.2222 -0.4933 -1.4839
  296MOL    C1436004   1.378   4.917   0.239 -0.1178  0.4015  0.0991
  296MOL    C1536005   1.519   4.863   0.233 -0.0199  0.2066 -0.5734
  296MOL    F1636006   1.595   4.964   0.270 -0.0805  0.2121  0.3835
  296MOL    H1736007   1.351   4.957   0.336  0.1565 -0.5840  0.5910
  296MOL    H1836008   1.303   4.838   0.230  0.2655 -0.0868  1.1300
  296MOL    H1936009   1.551   4.822   0.137 -0.6788  0.0589 -0.7336
  296MOL    C2036010   1.542   4.751   0.340 -0.5160 -0.0898  0.6009
  296MOL    C2136011   1.436   4.638   0.345  0.1128 -0.6019  0.6289
  296MOL    F2236012   1.396   4.605   0.224 -0.3710  0.7358 -0.4923
  296MOL    H2336013   1.638   4.701   0.328  0.9198  2.7509 -0.1164
  296MOL    H2436014   1.539   4.804   0.435  0.1149  0.2958  0.4086
  296MOL    H2536015   1.344   4.675   0.390  0.9924 -0.5879  2.4491
  296MOL    C2636016   1.466   4.524   0.434  0.5806  0.2258  0.5431
  296MOL    C2736017   1.340   4.452   0.496 -0.7486 -0.1849  0.3872
  296MOL    F2836018   1.257   4.543   0.553 -0.2760  0.1238  0.5564
  296MOL    H2936019   1.525   4.460   0.369 -0.9198 -0.8953  0.2741
  296MOL    H3036020   1.531   4.553   0.517 -0.3392 -0.1900  1.4328
  296MOL    H3136021   1.361   4.391   0.584 -0.9066 -1.4761 -0.4554
  296MOL    C3236022   1.270   4.372   0.402  0.2975  0.5583 -0.3421
  296MOL    C3336023   1.353   4.260   0.329  0.1660 -0.0288  0.4331
  296MOL    F3436024   1.424   4.198   0.418  0.0960  0.1292  0.1048
  296MOL    H3536025   1.180   4.338   0.452  0.5454 -0.8771 -0.8389
  296MOL    H3636026   1.241   4.440   0.322  0.9245 -1.7098 -2.6008
  296MOL    H3736027   1.415   4.308   0.253  0.1499 -0.3628  0.2038
  296MOL    C3836028   1.269   4.144   0.269  0.6566 -0.3867 -0.3241
  296MOL    C3936029   1.340   4.059   0.162 -0.5804  0.5527 -0.6160
  296MOL    F4036030   1.266   3.951   0.143 -0.4096  0.3014  0.3663
  296MOL    H4136031   1.240   4.078   0.351 -2.1857  0.6570 -0.4103
  296MOL    H4236032   1.167   4.170   0.241 -0.4386 -1.3768  2.4606
  296MOL    H4336033   1.439   4.028   0.194 -0.4847  0.6027 -0.8626
  296MOL    C4436034   1.345   4.135   0.020  0.4556  0.0563  0.5472
  296MOL    C4536035   1.433   4.067   7.913 -0.8256  0.1669  1.1111
  296MOL    F4636036   1.384   3.956   7.852 -0.0350 -0.6025 -0.0897
  296MOL    H4736037   1.248   4.153   7.976  0.8785 -0.2519 -0.4518
  296MOL    H4836038   1.379   4.237   0.041  2.1704 -0.0859 -1.3565
  296MOL    H4936039   1.523   4.035   7.967 -0.5725  0.1622  0.6899
  296MOL    C5036040   1.475   4.163   7.805  0.2123  0.3715  0.3323
  296MOL    C5136041   1.624   4.156   7.758  0.0090  0.2227 -0.0765
  296MOL    F5236042   1.627   4.033   7.705  0.0953 -0.7377 -0.6728
  296MOL    H5336043   1.413   4.146   7.717  0.4694  1.1098  0.0060
  296MOL    H5436044   1.466   4.267   7.837  1.1961  1.0180 -1.4396
  296MOL    H5536045   1.705   4.161   7.830 -0.3154 -0.5785  0.3491
  296MOL    C5636046   1.654   4.258   7.649 -0.4168 -0.2058 -0.8520
  296MOL    C5736047   1.688   4.406   7.702  0.4803  0.1017 -0.3594
  296MOL    F5836048   1.786   4.396   7.795  0.1868 -0.0290  0.2592
  296MOL    H5936049   1.743   4.231   7.591 -0.5395  0.3169 -1.2938
  296MOL    H6036050   1.572   4.255   7.577 -2.3147 -0.4852  1.2848
  296MOL    H6136051   1.594   4.444   7.741 -0.6030 -0.5315 -2.3078
  296MOL    C6236052   1.737   4.496   7.591 -0.4999 -0.3146 -0.2067
  296MOL    C6336053   1.746   4.640   7.648  0.1485 -0.2435 -0.5289
  296MOL    F6436054   1.813   4.712   7.558 -0.4231 -0.1201  0.4415
  296MOL    H6536055   1.840   4.475   7.565  0.2983  1.9469  1.0161
  296MOL    H6636056   1.673   4.492   7.503 -0.5198  0.6187 -0.2321
  296MOL    H6736057   1.811   4.645   7.736  0.9576  0.4555 -1.1652
  296MOL    C6836058   1.606   4.713   7.674 -0.1337  0.5883  0.0010
  296MOL    C6936059   1.523   4.754   7.544  0.9355 -0.2180 -0.2130
  296MOL    F7036060   1.488   4.646   7.472  0.5138  0.2260 -0.2120
  296MOL    H7136061   1.546   4.666   7.753 -2.6406  0.7924 -1.7204
  296MOL    H7236062   1.645   4.807   7.712  0.2527  1.6205 -2.8899
  296MOL    H7336063   1.583   4.814   7.476 -0.5556  0.4274 -1.0043
  296MOL    C7436064   1.393   4.826   7.575 -0.5273 -0.7638 -0.2409
  296MOL    C7536065   1.313   4.879   7.450  0.2874 -0.4780 -0.2990
  296MOL    F7636066   1.206   4.951   7.489 -0.1988  0.6948  0.3709
  296MOL    H7736067   1.329   4.766   7.639 -1.2315 -0.7579 -0.9410
  296MOL    H7836068   1.428   4.910   7.637  0.8937 -2.2256  0.9946
  296MOL    H7936069   1.274   4.797   7.390 -0.4037  0.2755 -0.8811
  296MOL    C8036070   1.399   4.974   7.360 -0.0792 -0.2328 -0.1229
  296MOL    C8136071   1.458   5.106   7.430  0.0300 -0.2263 -0.3354
  296MOL    F8236072   1.587   5.076   7.463  0.1073  0.1589 -0.4688
  296MOL    H8336073   1.484   4.928   7.310  0.2702  2.6952 -2.3622
  296MOL    H8436074   1.329   5.001   7.282  0.7315 -1.5492 -1.3330
  296MOL    H8536075   1.402   5.114   7.523 -0.5750  0.3223 -0.7477
  296MOL    C8636076   1.457   5.240   7.354  0.5503  0.1836 -0.0045
  296MOL    C8736077   1.493   5.372   7.424  0.2829 -0.0874 -0.0186
  296MOL    F8836078   1.624   5.367   7.452 -0.2542  0.4408  0.3012
  296MOL    H8936079   1.528   5.235   7.271  1.7020 -0.3941  1.0031
  296MOL    H9036080   1.357   5.253   7.312  0.6923  2.1724  0.2239
  296MOL    H9136081   1.450   5.365   7.523  2.0061 -0.6422  0.7173
  296MOL    C9236082   1.445   5.483   7.335 -0.0089 -0.0965  0.0456
  296MOL    C9336083   1.469   5.628   7.389  0.2279 -0.6871 -0.3323
  296MOL    F9436084   1.439   5.705   7.284  0.2466 -0.0904  0.0078
  296MOL    H9536085   1.486   5.472   7.235  1.6661 -0.9008  0.8080
  296MOL    H9636086   1.337   5.469   7.325  0.2655 -1.8488 -0.7169
  296MOL    H9736087   1.573   5.641   7.419  0.3204 -2.1147 -0.0077
  296MOL    C9836088   1.376   5.671   7.497  0.3506  0.1424 -0.1115
  296MOL    C9936089   1.388   5.819   7.548 -0.2406 -0.8679  0.2101
  296MOL   F10036090   1.302   5.858   7.639  0.4333  0.3283 -0.2519
  296MOL   H10136091   1.275   5.637   7.474  0.3957 -0.6237  0.7707
  296MOL   H10236092   1.406   5.615   7.586 -0.9254  0.7118  0.7088
  296MOL   H10336093   1.376   5.887   7.463  2.1339  1.2216  1.4794
  296MOL   C10436094   1.530   5.839   7.614 -0.5760 -0.5467 -0.1865
  296MOL   C10536095   1.569   5.972   7.678 -0.0153  0.1477  0.2593
  296MOL   F10636096   1.688   5.954   7.727 -0.1072  0.1884 -0.2586
  296MOL   H10736097   1.541   5.756   7.684 -0.7579 -1.3490 -1.0876
  296MOL   H10836098   1.611   5.824   7.542 -1.0950  0.3404 -0.9695
  296MOL   H10936099   1.504   5.990   7.763  0.7964  1.3334  0.6272
  296MOL   C11036100   1.559   6.096   7.594 -0.0892  0.3574 -0.0127
  296MOL   C11136101   1.577   6.228   7.673 -0.0125  0.3478  0.3454
  296MOL   F11236102   1.474   6.237   7.756 -0.3687 -0.4317 -0.6610
  296MOL   H11336103   1.622   6.082   7.506  0.9356  2.6951  0.2865
  296MOL   H11436104   1.465   6.109   7.541  0.4496  2.8722 -0.4234
  296MOL   H11536105   1.555   6.308   7.602  1.1983  0.1992 -0.2027
  296MOL   C11636106   1.701   6.255   7.750 -0.3905  0.0525  0.2480
  296MOL   C11736107   1.713   6.388   7.829  0.2093  0.3252  0.5743
  296MOL   F11836108   1.715   6.491   7.746  0.1832 -0.0340 -0.2929
  296MOL   H11936109   1.710   6.181   7.830 -0.5715  0.2961  0.4982
  296MOL   H12036110   1.786   6.231   7.686 -0.9070  0.0646 -0.4408
  296MOL   H12136111   1.809   6.386   7.880  0.8215 -1.6156 -0.6205
  296MOL   H12236112   1.629   6.400   7.897  0.6929 -0.7794  1.3774
  297MOL     C136113   0.877   2.521   4.319 -0.1040  0.4058  0.3118
  297MOL     C236114   1.018   2.570   4.354 -0.2604  0.4688 -0.0584
  297MOL     F336115   1.054   2.520   4.468 -0.5067 -0.0937  0.2325
  297MOL     H436116   0.846   2.593   4.243  2.2835  0.2000 -0.9144
  297MOL     H536117   0.816   2.538   4.407  0.2536  0.7241  0.5000
  297MOL     H636118   1.015   2.677   4.374  0.1485  0.8206 -1.7999
  297MOL     H736119   0.865   2.416   4.293  2.2661 -0.0816  1.0402
  297MOL     C836120   1.117   2.533   4.245  0.6551 -0.5051 -0.3770
  297MOL     C936121   1.255   2.594   4.262 -0.2630  0.3944  0.5102
  297MOL    F1036122   1.309   2.532   4.364 -0.1097  0.0944  0.7916
  297MOL    H1136123   1.125   2.425   4.234  3.1330 -0.3520 -0.4928
  297MOL    H1236124   1.080   2.572   4.150  1.7765  0.1060 -0.5747
  297MOL    H1336125   1.247   2.688   4.317 -1.1173  1.0029 -0.6312
  297MOL    C1436126   1.355   2.598   4.144  0.4474  0.9381 -0.1711
  297MOL    C1536127   1.489   2.646   4.182 -0.8366  0.4495 -0.0007
  297MOL    F1636128   1.561   2.629   4.066 -0.2526 -0.0694 -0.0250
  297MOL    H1736129   1.371   2.497   4.108 -0.8189  0.8113 -0.3993
  297MOL    H1836130   1.333   2.656   4.054  0.5829  1.5189  0.1664
  297MOL    H1936131   1.538   2.578   4.251  0.0925 -0.2109 -1.2889
  297MOL    C2036132   1.496   2.788   4.233 -0.3546  0.3307  0.4495
  297MOL    C2136133   1.633   2.818   4.286 -0.4147 -0.7856  0.5049
  297MOL    F2236134   1.720   2.834   4.188  0.1843 -0.6658  0.1571
  297MOL    H2336135   1.460   2.862   4.162  0.9170  1.0336  0.5213
  297MOL    H2436136   1.429   2.817   4.314 -2.7491  0.9921 -1.7430
  297MOL    H2536137   1.679   2.732   4.335 -0.7638 -2.3688 -1.8839
  297MOL    C2636138   1.654   2.948   4.365  0.6098  0.3412 -0.2055
  297MOL    C2736139   1.793   2.963   4.426  0.1052  0.4168 -0.1400
  297MOL    F2836140   1.801   3.088   4.469 -0.6203 -0.0998 -0.1057
  297MOL    H2936141   1.633   3.042   4.313 -1.4924  0.7208  1.2493
  297MOL    H3036142   1.581   2.941   4.446  0.3559 -1.7246 -0.5933
  297MOL    H3136143   1.873   2.959   4.353  1.0308  1.6313  0.7826
  297MOL    C3236144   1.818   2.859   4.543  0.0090 -0.0134  0.1145
  297MOL    C3336145   1.949   2.889   4.611 -0.5252 -0.5625 -0.6285
  297MOL    F3436146   1.936   2.998   4.677 -0.5944 -0.3182 -0.3268
  297MOL    H3536147   1.735   2.846   4.612  0.2343  0.1334  0.4157
  297MOL    H3636148   1.826   2.765   4.489  3.1973 -0.2076  0.8041
  297MOL    H3736149   2.026   2.912   4.538  0.1437 -0.7140  0.0242
  297MOL    C3836150   2.001   2.770   4.718 -0.1149  0.1670 -0.1959
  297MOL    C3936151   2.152   2.755   4.735  0.9998 -0.3025 -0.2197
  297MOL    F4036152   2.156   2.676   4.846 -0.7153 -0.2284  1.3362
  297MOL    H4136153   1.947   2.770   4.812 -0.1149 -1.7111 -0.1750
  297MOL    H4236154   1.971   2.675   4.674  3.1983 -0.3082 -1.5995
  297MOL    H4336155   2.202   2.845   4.770  0.8155 -0.6930  1.0993
  297MOL    C4436156   2.213   2.689   4.621 -0.6389  0.3544 -0.7984
  297MOL    C4536157   2.367   2.668   4.632 -0.3500  0.5022 -0.3558
  297MOL    F4636158   2.411   2.564   4.543 -0.3385  0.2657 -0.0525
  297MOL    H4736159   2.166   2.592   4.603 -2.4722  0.4577  2.9699
  297MOL    H4836160   2.181   2.734   4.527 -3.6984 -1.1204 -0.5234
  297MOL    H4936161   2.386   2.636   4.735 -1.8529 -2.1462 -0.8349
  297MOL    C5036162   2.461   2.791   4.609 -0.0348  0.2258 -0.7970
  297MOL    C5136163   2.440   2.857   4.464 -0.1569 -0.0673  0.5610
  297MOL    F5236164   2.326   2.925   4.471 -0.1923  0.1943 -0.0069
  297MOL    H5336165   2.440   2.867   4.685  0.6204  1.2840 -1.6543
  297MOL    H5436166   2.562   2.753   4.618  0.4046  0.9107 -2.7848
  297MOL    H5536167   2.429   2.794   4.375 -1.2745  0.6406  0.1922
  297MOL    C5636168   2.556   2.942   4.430 -0.3908  0.5920  0.1135
  297MOL    C5736169   2.584   3.057   4.531 -0.8302  0.0916 -0.5036
  297MOL    F5836170   2.649   3.015   4.638 -0.3524 -0.6111 -0.1867
  297MOL    H5936171   2.650   2.886   4.433  0.9964  2.4882 -3.6617
  297MOL    H6036172   2.549   2.976   4.326  0.1657  0.1995 -0.0568
  297MOL    H6136173   2.490   3.104   4.558  0.1212  1.8626 -0.1524
  297MOL    C6236174   2.680   3.164   4.475 -0.5487  0.2284  0.0014
  297MOL    C6336175   2.705   3.295   4.564  0.8915  0.0842  0.5503
  297MOL    F6436176   2.796   3.367   4.506 -0.4065 -0.2194  0.2158
  297MOL    H6536177   2.773   3.107   4.475  0.8927  2.5240  0.0306
  297MOL    H6636178   2.655   3.189   4.372  0.4987 -3.7112 -1.2942
  297MOL    H6736179   2.763   3.254   4.647 -0.6722  1.4927  2.4057
  297MOL    C6836180   2.584   3.376   4.619  0.3890 -0.0005 -0.0712
  297MOL    C6936181   2.495   3.436   4.511 -0.1257 -0.0310 -0.0787
  297MOL    F7036182   2.441   3.350   4.422  0.2817  0.1793 -0.1226
  297MOL    H7136183   2.508   3.325   4.679 -0.4944  0.9493 -0.3603
  297MOL    H7236184   2.618   3.462   4.677 -0.4487 -0.7516  1.5771
  297MOL    H7336185   2.563   3.487   4.442 -1.7051  0.6979 -1.1043
  297MOL    C7436186   2.396   3.544   4.565  0.2183  0.6799 -0.2890
  297MOL    C7536187   2.341   3.635   4.454 -0.2592 -0.9510  1.1152
  297MOL    F7636188   2.230   3.681   4.501 -0.4357  0.1199 -0.1825
  297MOL    H7736189   2.312   3.488   4.608 -0.2001  1.1714 -0.4713
  297MOL    H7836190   2.435   3.594   4.654 -2.7544  0.2324  1.3650
  297MOL    H7936191   2.317   3.586   4.360  1.2678  0.8233 -0.2470
  297MOL    C8036192   2.427   3.751   4.411 -1.0231  0.1918 -0.9742
  297MOL    C8136193   2.484   3.846   4.522  0.6268  0.0475  0.2975
  297MOL    F8236194   2.580   3.781   4.593 -0.2463 -0.4669 -0.3976
  297MOL    H8336195   2.514   3.709   4.361  1.5029  1.9920  1.7169
  297MOL    H8436196   2.375   3.811   4.335 -1.4834  2.5138  1.1050
  297MOL    H8536197   2.409   3.869   4.598  0.5463 -1.9149  0.8374
  297MOL    C8636198   2.538   3.974   4.467 -0.0249 -0.5694  0.3003
  297MOL    C8736199   2.568   4.089   4.571  0.2826 -0.3945 -0.0682
  297MOL    F8836200   2.667   4.050   4.657 -0.2200  0.0952 -0.1442
  297MOL    H8936201   2.633   3.964   4.414  0.3405 -1.7364  1.1760
  297MOL    H9036202   2.464   4.005   4.393  0.8258  0.1766 -0.2630
  297MOL    H9136203   2.473   4.102   4.622 -0.1548 -0.1629 -0.9380
  297MOL    C9236204   2.598   4.225   4.511 -0.4124  0.4270 -0.3092
  297MOL    C9336205   2.560   4.348   4.584  0.0703  0.2266 -0.6351
  297MOL    F9436206   2.610   4.449   4.516 -0.5406 -0.1566  0.0531
  297MOL    H9536207   2.705   4.230   4.487 -0.9137  1.7229 -2.4028
  297MOL    H9636208   2.545   4.224   4.416  0.9050 -0.9814 -1.0518
  297MOL    H9736209   2.613   4.336   4.678 -1.1907 -1.0717 -0.0792
  297MOL    C9836210   2.409   4.358   4.597 -0.0449 -0.5116  0.0138
  297MOL    C9936211   2.355   4.472   4.682 -0.8559 -0.2011  0.4821
  297MOL   F10036212   2.240   4.501   4.633  0.1368  0.3351 -0.2619
  297MOL   H10136213   2.376   4.376   4.495 -0.1002  0.5896  0.2150
  297MOL   H10236214   2.358   4.266   4.624 -0.1362  0.3301  2.9298
  297MOL   H10336215   2.425   4.555   4.667 -0.1858 -1.0082 -0.9559
  297MOL   C10436216   2.325   4.428   4.829 -0.0432 -0.2452  0.0828
  297MOL   C10536217   2.446   4.411   4.934 -0.1568  0.2348 -0.5736
  297MOL   F10636218   2.518   4.522   4.904 -0.3508 -0.2328  0.2332
  297MOL   H10736219   2.263   4.499   4.884 -0.5649  0.0664 -0.9058
  297MOL   H10836220   2.259   4.342   4.831  0.7007 -0.8553 -1.3164
  297MOL   H10936221   2.486   4.310   4.922  1.0780  0.5066  1.1201
  297MOL   C11036222   2.398   4.419   5.079  0.0199  0.3676 -0.2742
  297MOL   C11136223   2.301   4.308   5.128 -0.1946  0.4321 -0.2723
  297MOL   F11236224   2.347   4.184   5.098  0.5968 -0.2724 -0.6666
  297MOL   H11336225   2.491   4.405   5.133  0.6867  0.3231 -1.4279
  297MOL   H11436226   2.364   4.519   5.107 -2.0165 -0.4897  0.4492
  297MOL   H11536227   2.212   4.318   5.066  0.1845 -2.2639 -1.3078
  297MOL   C11636228   2.258   4.324   5.273 -0.8244 -0.0175  0.0658
  297MOL   C11736229   2.372   4.295   5.375  0.2612 -0.1094 -0.7045
  297MOL   F11836230   2.333   4.311   5.498 -0.2218  0.1374  0.5393
  297MOL   H11936231   2.209   4.420   5.281 -1.5704 -0.2776 -1.2731
  297MOL   H12036232   2.178   4.252   5.288  0.1211 -0.9820  0.6072
  297MOL   H12136233   2.457   4.362   5.357 -1.0667  2.1646  1.2724
  297MOL   H12236234   2.405   4.193   5.358 -1.4767 -0.6411 -0.9749
  298MOL     C136235   2.755   1.248   7.245 -0.4250 -0.7003 -0.3221
  298MOL     C236236   2.704   1.192   7.386 -0.1064  0.1854  0.5147
  298MOL     F336237   2.589   1.125   7.360 -0.1973  0.3781 -0.1996
  298MOL     H436238   2.830   1.327   7.258 -1.7936  0.4525  0.8548
  298MOL     H536239   2.672   1.274   7.179 -1.7731 -3.4118  0.2461
  298MOL     H636240   2.668   1.275   7.446 -1.7190  0.4797 -0.8377
  298MOL     H736241   2.788   1.170   7.177 -0.6213  0.1241 -1.3751
  298MOL     C836242   2.800   1.106   7.458 -0.3235  0.3831  0.0824
  298MOL     C936243   2.929   1.176   7.492 -1.1283 -0.6674 -0.6812
  298MOL    F1036244   2.883   1.283   7.549 -0.0497 -0.1452  0.0365
  298MOL    H1136245   2.757   1.063   7.548 -2.9266 -0.7409 -1.6630
  298MOL    H1236246   2.832   1.019   7.401 -0.1844  0.4260  0.0948
  298MOL    H1336247   2.995   1.201   7.409 -2.2375  1.7776 -0.8652
  298MOL    C1436248   3.028   1.099   7.591  0.4826 -0.5088  0.4520
  298MOL    C1536249   2.959   1.062   7.727 -0.4493  0.3161  0.0549
  298MOL    F1636250   2.891   0.953   7.717 -0.2160  0.2717 -0.2631
  298MOL    H1736251   3.072   1.019   7.533  0.3715  0.0698 -0.4310
  298MOL    H1836252   3.112   1.164   7.613  0.3479 -0.2075  0.0821
  298MOL    H1936253   2.888   1.140   7.755 -1.4199  0.7561 -3.3793
  298MOL    C2036254   3.057   1.054   7.845  0.7115  0.2122  0.1628
  298MOL    C2136255   2.986   1.050   7.982 -0.4350  0.8378  0.1475
  298MOL    F2236256   3.079   1.008   0.070 -0.4192  0.0233  0.4807
  298MOL    H2336257   3.115   0.962   7.842  1.1585  0.4659  0.8483
  298MOL    H2436258   3.135   1.131   7.842  1.3694 -0.3869  1.2335
  298MOL    H2536259   2.913   0.969   7.982  0.0536  0.3781  2.0909
  298MOL    C2636260   2.924   1.182   0.029  0.1196 -0.2027  0.1787
  298MOL    C2736261   3.016   1.314   0.026  0.2646 -0.3113 -0.3601
  298MOL    F2836262   3.029   1.360   7.900  0.0908  0.0039  0.5295
  298MOL    H2936263   2.830   1.204   7.981  1.6264  2.3274 -1.5850
  298MOL    H3036264   2.879   1.161   0.126  0.7602 -0.8481  0.3348
  298MOL    H3136265   3.114   1.291   0.068  1.0982  0.4724 -1.8174
  298MOL    C3236266   2.958   1.424   0.122  0.3171  0.0882  0.3470
  298MOL    C3336267   3.029   1.555   0.116 -0.3742  0.3804  0.0672
  298MOL    F3436268   2.977   1.634   0.214 -0.0642  0.5337  0.0982
  298MOL    H3536269   2.858   1.446   0.084 -0.0183 -0.7788  0.7007
  298MOL    H3636270   2.941   1.388   0.224 -1.5942  0.3474  0.1428
  298MOL    H3736271   3.008   1.608   0.023 -0.4263 -0.5989 -0.4818
  298MOL    C3836272   3.186   1.551   0.137 -0.1206 -0.3130 -1.0645
  298MOL    C3936273   3.264   1.682   0.123  0.4937 -0.2039  0.5557
  298MOL    F4036274   3.253   1.729   8.003  0.2086  0.3423  0.1843
  298MOL    H4136275   3.210   1.508   0.234  1.3354  0.3392 -1.1283
  298MOL    H4236276   3.231   1.479   0.069  0.0815  1.2326 -2.6096
  298MOL    H4336277   3.366   1.645   0.134  0.3370 -0.5188  0.9846
  298MOL    C4436278   3.224   1.790   0.219 -0.8683 -0.2465  0.1642
  298MOL    C4536279   3.236   1.760   0.370 -0.0106 -0.3085 -0.7218
  298MOL    F4636280   3.363   1.739   0.384 -0.2029 -0.2505  0.0609
  298MOL    H4736281   3.280   1.881   0.198  0.9501 -1.3282  0.2017
  298MOL    H4836282   3.119   1.811   0.198 -0.8209 -0.1467  0.0328
  298MOL    H4936283   3.195   1.663   0.397  1.5801 -0.9042 -0.3875
  298MOL    C5036284   3.185   1.873   0.463  0.0285  0.0322 -0.2778
  298MOL    C5136285   3.054   1.823   0.528 -0.2000  0.0812 -0.0637
  298MOL    F5236286   3.092   1.728   0.615 -0.9832  0.1637 -0.3686
  298MOL    H5336287   3.247   1.889   0.551 -1.0765  1.1517  0.3047
  298MOL    H5436288   3.180   1.968   0.410  1.3868  0.9148  1.1274
  298MOL    H5536289   2.987   1.778   0.454 -0.2544  0.3659 -0.1887
  298MOL    C5636290   2.974   1.930   0.612 -0.3026  0.1802  0.0729
  298MOL    C5736291   2.889   1.867   0.723 -0.3916 -0.3027  0.0153
  298MOL    F5836292   2.835   1.979   0.777  0.0534 -0.4870  0.0767
  298MOL    H5936293   3.039   1.996   0.670 -1.8869  0.0215  2.1088
  298MOL    H6036294   2.930   1.996   0.537  0.7955 -0.2145 -0.9309
  298MOL    H6136295   2.949   1.825   0.804  0.3812  1.4919  0.4014
  298MOL    C6236296   2.773   1.783   0.655 -0.5346 -0.4226  0.0579
  298MOL    C6336297   2.788   1.628   0.648 -0.4443 -0.5552  0.0282
  298MOL    F6436298   2.787   1.577   0.766  0.0318 -0.0834 -0.1444
  298MOL    H6536299   2.687   1.789   0.722 -0.1120 -0.4957  0.6100
  298MOL    H6636300   2.739   1.832   0.564  0.1566 -0.8812 -0.4492
  298MOL    H6736301   2.883   1.603   0.600 -0.0578  1.9320 -0.5860
  298MOL    C6836302   2.666   1.553   0.582 -0.4460  0.0877 -0.0217
  298MOL    C6936303   2.644   1.588   0.438  0.1800 -0.0646 -0.2726
  298MOL    F7036304   2.751   1.588   0.363  0.6430  0.5163 -0.0043
  298MOL    H7136305   2.677   1.444   0.585 -1.4750 -0.0023  0.7340
  298MOL    H7236306   2.580   1.564   0.649 -0.7812  1.2754 -0.6340
  298MOL    H7336307   2.618   1.694   0.440 -0.7715 -0.2856 -0.3598
  298MOL    C7436308   2.527   1.513   0.368 -0.4624  0.1578 -0.0883
  298MOL    C7536309   2.556   1.366   0.329  0.0528 -0.0026 -0.6341
  298MOL    F7636310   2.568   1.294   0.437  0.1795  0.7807 -0.6689
  298MOL    H7736311   2.437   1.521   0.430 -0.3021  1.3635 -0.0130
  298MOL    H7836312   2.501   1.563   0.275 -1.5607  1.8562  1.0880
  298MOL    H7936313   2.654   1.357   0.281  0.1597 -1.3047 -0.1880
  298MOL    C8036314   2.437   1.319   0.250  0.0179  0.4475  0.2063
  298MOL    C8136315   2.451   1.170   0.195  0.0329  0.1835 -0.3724
  298MOL    F8236316   2.324   1.127   0.175 -1.0240 -0.1498  0.2380
  298MOL    H8336317   2.354   1.327   0.320  0.0119  0.0637  0.2459
  298MOL    H8436318   2.412   1.386   0.167 -1.5978 -2.0492 -1.3906
  298MOL    H8536319   2.496   1.104   0.270 -1.9280 -0.7796  0.0107
  298MOL    C8636320   2.522   1.159   0.062 -0.0134 -0.2302  0.1558
  298MOL    C8736321   2.504   1.019   0.000  0.5472  0.2708  0.2349
  298MOL    F8836322   2.577   1.002   7.895 -1.0554 -0.0409  0.4012
  298MOL    H8936323   2.489   1.239   7.999  0.7575  0.1784  0.2600
  298MOL    H9036324   2.626   1.187   0.074 -0.6754  1.8629  1.2436
  298MOL    H9136325   2.401   1.011   7.969  1.1528 -2.5224 -1.0880
  298MOL    C9236326   2.537   0.879   0.072  0.3690  0.5958 -0.0277
  298MOL    C9336327   2.688   0.830   0.085  0.5958  0.6662  0.1851
  298MOL    F9436328   2.755   0.891   0.183 -0.0902 -0.1614 -0.0388
  298MOL    H9536329   2.497   0.879   0.173 -0.0431  0.0212 -0.1877
  298MOL    H9636330   2.482   0.802   0.017 -1.2158  0.8833  1.1050
  298MOL    H9736331   2.735   0.839   7.990 -0.3428 -1.0005 -0.4522
  298MOL    C9836332   2.687   0.675   0.113 -0.5515  0.4789 -0.2407
  298MOL    C9936333   2.830   0.599   0.106  0.0274 -0.6650  0.0730
  298MOL   F10036334   2.810   0.478   0.132  0.2007  0.1092 -0.8703
  298MOL   H10136335   2.645   0.671   0.214 -2.4539 -1.2474 -1.0584
  298MOL   H10236336   2.614   0.627   0.049 -0.0246  0.7850 -1.0742
  298MOL   H10336337   2.904   0.630   0.180 -0.7596 -1.0498  1.0360
  298MOL   C10436338   2.890   0.589   7.973  0.4761  0.1376  0.8719
  298MOL   C10536339   3.032   0.520   7.975  0.6945 -0.3125  0.1075
  298MOL   F10636340   3.028   0.397   0.031 -0.2939  0.2965  0.1697
  298MOL   H10736341   2.821   0.526   7.916 -0.6919  1.6456  0.5825
  298MOL   H10836342   2.889   0.683   7.917  0.9982  0.2173  0.9989
  298MOL   H10936343   3.100   0.582   0.030  2.0821 -0.5272 -1.2387
  298MOL   C11036344   3.101   0.507   7.834 -0.0925  0.6191 -0.3606
  298MOL   C11136345   3.116   0.644   7.764 -0.0898 -0.5648  0.5048
  298MOL   F11236346   3.173   0.731   7.845  0.1785 -0.1761  0.1826
  298MOL   H11336347   3.197   0.457   7.848 -1.8470 -2.2809  1.9722
  298MOL   H11436348   3.035   0.448   7.770  0.8712  0.0211 -0.8225
  298MOL   H11536349   3.018   0.692   7.753  0.9435  1.4690 -0.1365
  298MOL   C11636350   3.178   0.640   7.627 -0.0543 -0.5980  0.3656
  298MOL   C11736351   3.159   0.761   7.533  0.1258  0.1869  0.2864
  298MOL   F11836352   3.032   0.772   7.504  0.3239 -0.1056  0.0240
  298MOL   H11936353   3.283   0.621   7.652  0.5031 -0.4825 -1.8100
  298MOL   H12036354   3.142   0.547   7.584 -3.4128  0.0353  1.6520
  298MOL   H12136355   3.218   0.742   7.443 -1.2294 -1.3215 -0.3048
  298MOL   H12236356   3.195   0.856   7.574 -2.1098 -0.0140  2.8563
  299MOL     C136357   5.664   7.529   3.374 -0.3295 -0.0274  0.5102
  299MOL     C236358   5.758   7.438   3.452 -0.2163  0.0135  0.3015
  299MOL     F336359   5.787   7.498   3.572 -0.1522 -0.0328 -0.1358
  299MOL     H436360   5.708   7.611   3.317  0.8359 -0.8299  0.2353
  299MOL     H536361   5.581   7.564   3.435  0.1370  1.4021  0.3516
  299MOL     H636362   5.847   7.425   3.391 -1.8457 -1.4315 -1.8107
  299MOL     H736363   5.624   7.473   3.289 -1.5574 -0.2344  1.2206
  299MOL     C836364   5.699   7.299   3.470 -0.2651  0.1529 -0.0325
  299MOL     C936365   5.572   7.285   3.559  0.0842 -0.1990  0.0947
  299MOL    F1036366   5.455   7.311   3.500 -0.2587 -0.3751 -0.0648
  299MOL    H1136367   5.683   7.247   3.375  0.7927 -0.3013  0.0335
  299MOL    H1236368   5.780   7.236   3.507 -0.3900 -0.6871 -1.1384
  299MOL    H1336369   5.565   7.369   3.628 -0.8307  0.2100 -0.4797
  299MOL    C1436370   5.551   7.152   3.626 -0.5720  0.5831 -0.1927
  299MOL    C1536371   5.455   7.151   3.747  0.0445  0.2800 -0.3283
  299MOL    F1636372   5.334   7.161   3.705 -0.2360 -0.1202  0.4452
  299MOL    H1736373   5.511   7.080   3.554 -3.0069  2.0199 -0.3589
  299MOL    H1836374   5.648   7.111   3.654 -0.7179 -0.5140 -1.2507
  299MOL    H1936375   5.473   7.237   3.811 -1.2509  0.5840 -0.3567
  299MOL    C2036376   5.474   7.031   3.843  0.3591  0.4237 -0.6606
  299MOL    C2136377   5.372   7.030   3.958  0.6865 -0.0079  0.4628
  299MOL    F2236378   5.255   7.009   3.899 -0.2005  0.0547 -0.1441
  299MOL    H2336379   5.463   6.941   3.782  2.1045 -0.2646  0.0084
  299MOL    H2436380   5.580   7.035   3.870  0.6648 -2.3711 -1.3065
  299MOL    H2536381   5.373   7.125   4.012  0.6261  0.3573 -0.1750
  299MOL    C2636382   5.396   6.930   4.069  0.7675  0.0561 -0.6689
  299MOL    C2736383   5.284   6.903   4.169 -0.2266  0.0389  0.1900
  299MOL    F2836384   5.300   6.779   4.225 -0.0708  0.1985  0.1676
  299MOL    H2936385   5.403   6.837   4.013 -0.3223 -0.1963 -0.3977
  299MOL    H3036386   5.485   6.947   4.129 -0.7022  1.4792  1.1976
  299MOL    H3136387   5.184   6.908   4.126 -0.2926  1.6003  0.4979
  299MOL    C3236388   5.292   7.003   4.291  0.3465  0.3295 -0.5124
  299MOL    C3336389   5.164   7.002   4.386 -0.3805  0.9499 -0.3922
  299MOL    F3436390   5.197   7.078   4.493 -0.0631  0.3896 -0.4182
  299MOL    H3536391   5.379   6.971   4.349 -1.3353 -0.5976  1.5669
  299MOL    H3636392   5.309   7.102   4.249  0.8031  0.2161 -0.5972
  299MOL    H3736393   5.159   6.902   4.430 -1.3040  1.5980  1.0253
  299MOL    C3836394   5.039   7.059   4.322 -0.5525  0.2699  0.0094
  299MOL    C3936395   4.916   7.038   4.410  0.4442  0.4679 -0.0685
  299MOL    F4036396   4.816   7.102   4.349  0.0204 -0.2290 -0.1956
  299MOL    H4136397   5.043   7.168   4.317  1.8922  0.1587 -1.3106
  299MOL    H4236398   5.017   7.010   4.227  1.4945 -2.7876  1.0160
  299MOL    H4336399   4.934   7.080   4.509 -2.0833  0.9496  0.2276
  299MOL    C4436400   4.878   6.887   4.443  0.3771 -0.0233 -0.0413
  299MOL    C4536401   4.844   6.809   4.315  0.0567  0.6990 -0.2029
  299MOL    F4636402   4.962   6.779   4.251 -0.0972 -0.5441  0.5340
  299MOL    H4736403   4.958   6.832   4.492 -0.2130 -2.3731 -1.6638
  299MOL    H4836404   4.798   6.880   4.517  0.5090  2.5541  0.4056
  299MOL    H4936405   4.775   6.862   4.248 -0.4132  0.2512 -0.0725
  299MOL    C5036406   4.786   6.672   4.350  0.9590  0.0665  1.1841
  299MOL    C5136407   4.695   6.624   4.233 -0.3779 -0.1426  0.0742
  299MOL    F5236408   4.773   6.570   4.142 -0.3434  0.3129 -0.3617
  299MOL    H5336409   4.864   6.602   4.378  1.5908  0.7466  1.1356
  299MOL    H5436410   4.722   6.688   4.437  0.6826 -0.1418  1.0185
  299MOL    H5536411   4.641   6.706   4.185 -1.1585 -2.2096 -2.7058
  299MOL    C5636412   4.588   6.522   4.280 -0.5012  0.1191  0.2773
  299MOL    C5736413   4.640   6.394   4.350 -0.6054  0.4701  0.0771
  299MOL    F5836414   4.687   6.422   4.473  0.2872  0.5074 -0.2977
  299MOL    H5936415   4.509   6.562   4.343 -0.3371  0.2171  0.4201
  299MOL    H6036416   4.523   6.498   4.196 -0.4796 -1.6701  0.7530
  299MOL    H6136417   4.723   6.348   4.296  0.9943 -1.1187  3.7222
  299MOL    C6236418   4.530   6.293   4.372 -0.9318  0.1057 -0.2128
  299MOL    C6336419   4.566   6.175   4.457  0.5967  0.5291  0.6593
  299MOL    F6436420   4.455   6.100   4.471 -0.5062 -0.3886  0.0023
  299MOL    H6536421   4.449   6.347   4.421 -1.6469 -0.2627 -0.9829
  299MOL    H6636422   4.488   6.258   4.278 -0.4303  1.4655 -0.9569
  299MOL    H6736423   4.580   6.216   4.557 -1.5626 -0.9811  1.6411
  299MOL    C6836424   4.675   6.086   4.396  0.2593 -0.1192  0.4143
  299MOL    C6936425   4.714   5.965   4.484 -0.0777 -0.2650 -0.3706
  299MOL    F7036426   4.612   5.889   4.521  0.0023 -0.2095  0.1059
  299MOL    H7136427   4.647   6.037   4.302  1.6740 -2.0672  0.9809
  299MOL    H7236428   4.759   6.154   4.389  0.0930  0.0737  0.2998
  299MOL    H7336429   4.768   5.989   4.577 -1.7100 -1.5748  0.9332
  299MOL    C7436430   4.818   5.871   4.424  0.3931 -0.0015  0.2705
  299MOL    C7536431   4.824   5.847   4.269 -0.3102 -0.0700  0.2813
  299MOL    F7636432   4.880   5.955   4.211 -0.3050 -0.2526 -0.7195
  299MOL    H7736433   4.918   5.911   4.444  0.5043  1.9188 -3.5956
  299MOL    H7836434   4.821   5.771   4.466  1.0319  0.0302  0.3110
  299MOL    H7936435   4.727   5.838   4.220  0.2955  0.3446 -0.9989
  299MOL    C8036436   4.901   5.721   4.229 -0.1418 -0.0031  0.2014
  299MOL    C8136437   5.045   5.721   4.270  0.1659 -0.7647  0.0268
  299MOL    F8236438   5.062   5.652   4.382  0.4596  0.0082  0.3588
  299MOL    H8336439   4.850   5.628   4.253 -0.1384 -0.0399  0.0629
  299MOL    H8436440   4.895   5.721   4.120 -0.9851 -1.4988  0.2331
  299MOL    H8536441   5.073   5.826   4.277  0.9058 -0.9803  0.3423
  299MOL    C8636442   5.141   5.646   4.167  0.2644  0.2108 -0.0935
  299MOL    C8736443   5.294   5.626   4.203  1.2484  0.6146  0.2532
  299MOL    F8836444   5.328   5.517   4.134  0.0836 -0.2307 -0.2694
  299MOL    H8936445   5.102   5.548   4.139 -0.1311  0.3468 -0.0061
  299MOL    H9036446   5.133   5.700   4.073 -1.4334 -0.2348 -0.2175
  299MOL    H9136447   5.296   5.597   4.308  0.3505 -1.2708 -0.2204
  299MOL    C9236448   5.385   5.747   4.165 -0.1621  0.2111 -0.1426
  299MOL    C9336449   5.360   5.875   4.242 -0.1322  0.0155  0.1835
  299MOL    F9436450   5.346   5.853   4.372 -0.6851  0.1419 -0.3796
  299MOL    H9536451   5.492   5.730   4.172 -0.3223 -0.1219  1.5908
  299MOL    H9636452   5.358   5.789   4.068  0.8393  0.8204 -0.1645
  299MOL    H9736453   5.261   5.909   4.212 -0.1624 -1.1222 -1.1098
  299MOL    C9836454   5.466   5.980   4.221  0.6760 -0.3832  0.4928
  299MOL    C9936455   5.478   6.039   4.082 -0.1116 -0.2385  0.1175
  299MOL   F10036456   5.356   6.073   4.045 -0.0092 -0.0805 -0.0653
  299MOL   H10136457   5.450   6.068   4.283  3.1082  0.4632 -0.0133
  299MOL   H10236458   5.564   5.938   4.246  0.9876  0.0091 -0.0435
  299MOL   H10336459   5.499   5.957   4.013  0.6976 -0.0143  0.0902
  299MOL   C10436460   5.570   6.160   4.075  0.0662  0.2889 -0.7254
  299MOL   C10536461   5.611   6.188   3.932 -0.5991  0.0322 -0.1005
  299MOL   F10636462   5.712   6.105   3.888 -0.2028 -0.2590  0.3551
  299MOL   H10736463   5.522   6.244   4.124  0.7208  1.3857 -1.9558
  299MOL   H10836464   5.658   6.152   4.138 -0.3246 -0.4064 -0.2607
  299MOL   H10936465   5.649   6.290   3.933  1.6423 -0.7582 -1.1106
  299MOL   C11036466   5.499   6.183   3.817  0.2157  0.7065  0.4552
  299MOL   C11136467   5.391   6.295   3.831  0.3076  0.8546 -0.6469
  299MOL   F11236468   5.450   6.416   3.850 -0.1809 -0.0744 -0.0513
  299MOL   H11336469   5.555   6.199   3.725 -2.7929 -0.4990 -1.6655
  299MOL   H11436470   5.453   6.085   3.805 -1.3187  1.5103 -0.3786
  299MOL   H11536471   5.325   6.283   3.917 -1.1707  2.0352 -1.5811
  299MOL   C11636472   5.292   6.299   3.711  0.0187 -0.1413  0.4142
  299MOL   C11736473   5.204   6.421   3.709  0.1135  0.9540  1.2337
  299MOL   F11836474   5.126   6.407   3.813 -0.2619 -0.2977 -0.5403
  299MOL   H11936475   5.332   6.292   3.611 -0.7513  0.2505  0.0711
  299MOL   H12036476   5.223   6.214   3.710 -1.2392  0.8463  1.0919
  299MOL   H12136477   5.146   6.420   3.617  1.7001 -0.0111  0.2264
  299MOL   H12236478   5.252   6.518   3.709 -0.2506  1.1361  1.4773
  300MOL     C136479   1.422   7.347   4.298 -0.3999 -0.4650 -0.0202
  300MOL     C236480   1.514   7.379   4.417  0.4736  0.0518  0.1565
  300MOL     F336481   1.497   7.513   4.433 -0.1694 -0.1654 -0.1184
  300MOL     H436482   1.321   7.388   4.310  0.2931  1.5677 -1.0030
  300MOL     H536483   1.402   7.240   4.293 -1.7356 -0.1389 -2.3146
  300MOL     H636484   1.618   7.361   4.390  0.6959  2.1286 -0.4585
  300MOL     H736485   1.467   7.368   4.201 -1.5745 -1.6315 -0.8422
  300MOL     C836486   1.480   7.306   4.548  0.0628  0.2998 -0.2963
  300MOL     C936487   1.560   7.344   4.674 -0.0103  1.0119 -0.2529
  300MOL    F1036488   1.479   7.312   4.777  0.7514  0.4503  0.1644
  300MOL    H1136489   1.375   7.316   4.572  0.4307 -0.2280  1.6471
  300MOL    H1236490   1.499   7.203   4.519 -1.5771  0.3116 -1.4799
  300MOL    H1336491   1.587   7.449   4.683  1.0061  0.7131  0.3270
  300MOL    C1436492   1.680   7.257   4.684  0.1127  0.2915  0.1523
  300MOL    C1536493   1.737   7.237   4.824 -0.3773  0.7282  1.0979
  300MOL    F1636494   1.824   7.139   4.814  0.6836 -0.0053  0.5737
  300MOL    H1736495   1.660   7.154   4.653  1.3549  0.3223 -0.7793
  300MOL    H1836496   1.750   7.300   4.613 -0.0350  1.1448  0.5172
  300MOL    H1936497   1.663   7.194   4.891  0.2555 -1.0624  0.6594
  300MOL    C2036498   1.795   7.366   4.881  0.3624  0.8141  0.1346
  300MOL    C2136499   1.884   7.350   5.008  0.1265 -0.5863  0.4381
  300MOL    F2236500   1.943   7.476   5.034  0.1030 -0.1114 -0.3960
  300MOL    H2336501   1.867   7.405   4.809  1.3065 -1.9583 -0.4911
  300MOL    H2436502   1.716   7.442   4.885 -0.0406  0.7478 -3.7746
  300MOL    H2536503   1.971   7.289   4.986 -0.1573 -0.5326 -0.8658
  300MOL    C2636504   1.810   7.301   5.137  0.6940 -0.2228 -0.3562
  300MOL    C2736505   1.705   7.402   5.188 -0.3099  0.8345  0.2416
  300MOL    F2836506   1.610   7.405   5.092  0.0758  0.0741  0.0480
  300MOL    H2936507   1.763   7.204   5.122  1.1373 -0.6674  1.0923
  300MOL    H3036508   1.874   7.292   5.224 -1.0864  1.5198  1.1866
  300MOL    H3136509   1.746   7.503   5.182 -1.1022  1.0986 -0.9696
  300MOL    C3236510   1.633   7.382   5.321  0.1640 -0.4193  0.2329
  300MOL    C3336511   1.528   7.269   5.328  0.2985 -0.3089 -0.4278
  300MOL    F3436512   1.599   7.155   5.335  0.1178  0.2133 -0.2863
  300MOL    H3536513   1.703   7.369   5.403 -0.2077 -2.4677  0.2439
  300MOL    H3636514   1.577   7.475   5.330  1.5155  0.3677  0.6432
  300MOL    H3736515   1.475   7.258   5.234 -0.4232 -1.1156  0.0726
  300MOL    C3836516   1.429   7.284   5.447 -1.1364  0.8292 -0.1285
  300MOL    C3936517   1.318   7.173   5.468 -0.0287 -0.3518 -0.8440
  300MOL    F4036518   1.377   7.058   5.472 -0.3818  0.3966  0.8292
  300MOL    H4136519   1.491   7.295   5.536  0.5977 -1.3318 -1.0328
  300MOL    H4236520   1.391   7.386   5.452 -0.6128  0.9850  0.8709
  300MOL    H4336521   1.260   7.163   5.376  0.3216  0.0660 -1.1086
  300MOL    C4436522   1.233   7.208   5.602  0.2148 -0.0429  1.1510
  300MOL    C4536523   1.095   7.126   5.606  0.1627  0.0906  0.3990
  300MOL    F4636524   1.018   7.152   5.711 -0.3680  0.3451 -0.2010
  300MOL    H4736525   1.290   7.180   5.690  0.0588  0.5962  1.4538
  300MOL    H4836526   1.221   7.315   5.589  0.9544 -0.2659 -1.6651
  300MOL    H4936527   1.127   7.022   5.614 -1.9513 -0.5320  0.8801
  300MOL    C5036528   1.003   7.144   5.480  0.0386 -0.4133 -0.6638
  300MOL    C5136529   0.933   7.272   5.467 -0.4483 -0.0528  0.6036
  300MOL    F5236530   1.012   7.369   5.411 -0.1678 -0.3133 -0.4234
  300MOL    H5336531   1.052   7.123   5.385  1.7159 -0.7268  0.2578
  300MOL    H5436532   0.932   7.062   5.488  0.0542 -0.2748  1.0766
  300MOL    H5536533   0.898   7.315   5.560 -0.5777  0.1553  0.4594
  300MOL    C5636534   0.804   7.263   5.397  0.0712 -0.3355 -0.1829
  300MOL    C5736535   0.814   7.221   5.245  0.2257  0.2622  0.6893
  300MOL    F5836536   0.851   7.093   5.239  0.4423 -0.0533  0.0548
  300MOL    H5936537   0.737   7.198   5.453  1.1909 -1.0787  0.3166
  300MOL    H6036538   0.748   7.356   5.405 -0.8682 -0.6695 -2.6094
  300MOL    H6136539   0.891   7.281   5.197  0.6333 -0.3768  0.5543
  300MOL    C6236540   0.679   7.244   5.174  0.3310 -0.2817  0.4024
  300MOL    C6336541   0.683   7.209   5.030  0.4019 -0.2681 -0.1187
  300MOL    F6436542   0.558   7.248   4.987  0.0909 -0.4785  0.5643
  300MOL    H6536543   0.603   7.193   5.234  0.8826 -0.5031  0.9122
  300MOL    H6636544   0.650   7.349   5.182 -1.4363 -0.6161 -1.3043
  300MOL    H6736545   0.698   7.101   5.025  2.4131 -0.0542  0.5918
  300MOL    C6836546   0.798   7.266   4.938 -0.5923 -0.1457  0.2144
  300MOL    C6936547   0.798   7.426   4.925  0.6437  0.2833  0.6802
  300MOL    F7036548   0.868   7.470   5.025 -1.0131 -0.1470  0.4223
  300MOL    H7136549   0.887   7.214   4.973 -0.1609 -1.4520 -2.6990
  300MOL    H7236550   0.776   7.221   4.841 -2.9975  0.5415  0.4147
  300MOL    H7336551   0.697   7.463   4.940 -0.0498 -1.4300  0.3993
  300MOL    C7436552   0.843   7.468   4.786  0.2772 -0.5256  0.2552
  300MOL    C7536553   0.737   7.440   4.675  0.3348  0.2218 -0.1912
  300MOL    F7636554   0.619   7.506   4.687 -0.2195 -0.2438  0.2856
  300MOL    H7736555   0.867   7.574   4.777  0.3568 -0.6448 -1.1668
  300MOL    H7836556   0.936   7.417   4.761 -0.4618 -0.1396 -3.6522
  300MOL    H7936557   0.707   7.335   4.677 -0.6038  0.5006  0.5297
  300MOL    C8036558   0.791   7.482   4.540  0.1799 -0.4178  0.6159
  300MOL    C8136559   0.915   7.416   4.477 -0.3862  0.3986  0.4445
  300MOL    F8236560   0.898   7.287   4.480 -0.2375 -0.1458  0.1004
  300MOL    H8336561   0.709   7.457   4.472 -2.5996  3.4101  2.3138
  300MOL    H8436562   0.796   7.591   4.532  2.5126 -0.3386  2.4710
  300MOL    H8536563   1.001   7.416   4.543  0.2652  1.1335 -0.4058
  300MOL    C8636564   0.960   7.462   4.342 -0.0000  0.3665 -0.3756
  300MOL    C8736565   0.860   7.444   4.223 -0.0881  0.3612  0.5314
  300MOL    F8836566   0.766   7.538   4.248  0.1989  0.0650  0.2872
  300MOL    H8936567   0.994   7.566   4.347 -1.2262  0.6895  1.6278
  300MOL    H9036568   1.047   7.402   4.317 -1.3370 -1.8178  0.1440
  300MOL    H9136569   0.814   7.346   4.226 -0.8267  0.5783 -2.4353
  300MOL    C9236570   0.930   7.461   4.082  0.3703  0.3289  0.5384
  300MOL    C9336571   0.829   7.431   3.975  1.2456  1.0307 -0.4380
  300MOL    F9436572   0.724   7.512   3.987  0.1858 -0.2312  0.0303
  300MOL    H9536573   0.975   7.559   4.072  1.6941 -0.1617  1.4837
  300MOL    H9636574   1.023   7.406   4.067 -0.7355 -1.3869 -0.1379
  300MOL    H9736575   0.801   7.327   3.985  1.2852  0.9856 -0.7832
  300MOL    C9836576   0.877   7.430   3.826  0.1451 -0.5779 -0.5294
  300MOL    C9936577   1.003   7.335   3.810 -0.8407 -0.5563 -0.3422
  300MOL   F10036578   0.978   7.209   3.843  0.2034 -0.0773  0.0582
  300MOL   H10136579   0.803   7.387   3.759 -1.1906  2.0103 -0.7512
  300MOL   H10236580   0.904   7.533   3.802  1.2613 -0.6396  0.3703
  300MOL   H10336581   1.085   7.375   3.870 -1.6052  0.2436  0.1828
  300MOL   C10436582   1.058   7.336   3.668 -0.7303 -0.4957 -0.3901
  300MOL   C10536583   1.199   7.272   3.649  0.8179 -0.1437  1.3284
  300MOL   F10636584   1.282   7.329   3.732  0.0538 -0.4046 -0.6546
  300MOL   H10736585   0.985   7.298   3.597 -2.0689  0.6226  0.3638
  300MOL   H10836586   1.068   7.443   3.654  1.0419 -0.5394  0.3307
  300MOL   H10936587   1.233   7.302   3.549  1.0570 -3.1044  0.4721
  300MOL   C11036588   1.224   7.120   3.642  0.3710 -0.2748 -0.0679
  300MOL   C11136589   1.360   7.076   3.580 -0.0065  0.4531 -0.2355
  300MOL   F11236590   1.456   7.115   3.659  0.7432 -0.1054 -0.3531
  300MOL   H11336591   1.208   7.089   3.745  1.3630  0.5891  0.3480
  300MOL   H11436592   1.142   7.074   3.585  1.2735  0.0274 -1.6306
  300MOL   H11536593   1.377   7.135   3.491  0.1001  0.4653 -0.2062
  300MOL   C11636594   1.379   6.931   3.548  0.7429  0.1711 -0.2703
  300MOL   C11736595   1.364   6.843   3.672  0.0233 -0.6267  0.0385
  300MOL   F11836596   1.357   6.714   3.630  0.0671 -0.1761 -0.7290
  300MOL   H11936597   1.290   6.905   3.489  0.7671  0.7333 -0.5627
  300MOL   H12036598   1.473   6.924   3.493  1.5454  0.0852  1.1127
  300MOL   H12136599   1.277   6.866   3.732  0.6149  1.4026  0.1320
  300MOL   H12236600   1.455   6.861   3.730  0.3774 -0.1231 -0.6631
  301MOL     C136601   2.518   4.984   6.474  0.5077 -0.0049 -0.5383
  301MOL     C236602   2.519   4.861   6.383  0.1658  0.1838 -0.1548
  301MOL     F336603   2.573   4.899   6.265 -0.8827 -0.1332 -0.1573
  301MOL     H436604   2.458   5.066   6.433 -0.2994 -0.5025 -0.3535
  301MOL     H536605   2.621   5.019   6.487  0.4014  0.1919 -0.2045
  301MOL     H636606   2.424   4.816   6.352  0.0739  0.7048 -0.6319
  301MOL     H736607   2.470   4.960   6.569 -0.3778  1.3468 -0.6271
  301MOL     C836608   2.604   4.748   6.440 -0.0362 -0.0443 -0.1518
  301MOL     C936609   2.543   4.684   6.565 -0.0644 -0.2231 -0.2115
  301MOL    F1036610   2.422   4.643   6.549  0.2814 -0.6264  0.7301
  301MOL    H1136611   2.624   4.668   6.369 -1.3366  1.6402 -2.5067
  301MOL    H1236612   2.705   4.784   6.459  0.4259 -0.7582 -1.2234
  301MOL    H1336613   2.550   4.759   6.643 -2.6126  1.4150 -1.4593
  301MOL    C1436614   2.605   4.552   6.611 -0.2409  1.0638 -0.0907
  301MOL    C1536615   2.749   4.574   6.657  1.0127  0.0111 -0.8913
  301MOL    F1636616   2.750   4.647   6.772  0.0252 -0.1637  0.2807
  301MOL    H1736617   2.547   4.514   6.695  0.8994  2.0143  1.1677
  301MOL    H1836618   2.601   4.477   6.532  3.3239  0.7280 -0.0500
  301MOL    H1936619   2.806   4.625   6.580  0.8243  2.1305  0.3461
  301MOL    C2036620   2.812   4.439   6.688  0.0021  0.1618  0.0289
  301MOL    C2136621   2.968   4.456   6.691  0.9576  0.7229  0.7296
  301MOL    F2236622   3.003   4.550   6.766  0.1249 -0.2262  0.0398
  301MOL    H2336623   2.767   4.408   6.783 -0.7419  0.2137 -0.3025
  301MOL    H2436624   2.774   4.366   6.616 -0.2091  0.3024 -0.0017
  301MOL    H2536625   2.997   4.489   6.591 -2.7589  1.8599 -0.0411
  301MOL    C2636626   3.051   4.335   6.732 -0.5858  0.5503 -0.0045
  301MOL    C2736627   3.193   4.349   6.674 -0.0007 -0.2418 -0.5924
  301MOL    F2836628   3.253   4.450   6.728  0.0151  0.0460  0.3250
  301MOL    H2936629   3.055   4.340   6.841  2.0185 -2.3557  0.0776
  301MOL    H3036630   3.001   4.239   6.718 -0.8396  0.7901 -0.7339
  301MOL    H3136631   3.189   4.368   6.567  3.3178  0.4165 -0.6278
  301MOL    C3236632   3.267   4.217   6.699 -0.9615  0.1090  0.0863
  301MOL    C3336633   3.419   4.227   6.666 -0.8831 -0.0040  0.5648
  301MOL    F3436634   3.474   4.111   6.694 -0.3107 -0.4106 -0.5044
  301MOL    H3536635   3.254   4.187   6.803  0.1841 -1.1041 -0.1076
  301MOL    H3636636   3.225   4.142   6.633  1.0330  0.5619 -1.7739
  301MOL    H3736637   3.464   4.298   6.734  1.3248  0.5841 -1.4346
  301MOL    C3836638   3.445   4.260   6.514 -0.4077  0.1259 -0.2811
  301MOL    C3936639   3.596   4.276   6.476  0.6403  0.0128 -0.1247
  301MOL    F4036640   3.633   4.162   6.418 -0.0318 -0.3352 -0.1635
  301MOL    H4136641   3.408   4.173   6.460 -0.7404 -0.4387  0.8400
  301MOL    H4236642   3.376   4.338   6.483  0.9522  0.8213 -1.6366
  301MOL    H4336643   3.665   4.289   6.560 -1.0725 -1.0193  1.5021
  301MOL    C4436644   3.617   4.392   6.371  0.6171  0.1674  0.2464
  301MOL    C4536645   3.624   4.543   6.432 -0.1046 -0.2492 -0.2412
  301MOL    F4636646   3.629   4.616   6.323 -0.0459 -0.5218 -0.4522
  301MOL    H4736647   3.703   4.371   6.307 -0.4637 -2.2748 -0.4786
  301MOL    H4836648   3.534   4.389   6.301  0.5856 -3.7395  0.3461
  301MOL    H4936649   3.723   4.540   6.476  0.0726 -0.7239 -0.6557
  301MOL    C5036650   3.505   4.588   6.519 -0.1689  0.3907 -0.1773
  301MOL    C5136651   3.511   4.736   6.551  1.0843  0.0083  0.0276
  301MOL    F5236652   3.395   4.758   6.624 -0.3109 -0.3462  0.2218
  301MOL    H5336653   3.412   4.570   6.466 -0.1849  1.4104 -0.5120
  301MOL    H5436654   3.512   4.529   6.611 -2.5027 -0.2170 -0.3751
  301MOL    H5536655   3.497   4.781   6.453  2.2990 -2.2686 -1.2594
  301MOL    C5636656   3.628   4.794   6.629 -0.4816 -0.2014 -0.3038
  301MOL    C5736657   3.639   4.941   6.630  0.0531 -0.3497  0.2497
  301MOL    F5836658   3.734   4.966   6.715  0.0632 -0.3814  0.5530
  301MOL    H5936659   3.628   4.753   6.730  1.9465 -2.0198 -0.9962
  301MOL    H6036660   3.720   4.750   6.589 -0.5014 -1.8929  1.4128
  301MOL    H6136661   3.544   4.986   6.660 -1.5966 -3.7854  0.4196
  301MOL    C6236662   3.681   4.993   6.488  0.1693  0.5928  0.7632
  301MOL    C6336663   3.665   5.145   6.469  0.2599 -0.3830 -0.2158
  301MOL    F6436664   3.740   5.213   6.551 -0.1004  0.0124  0.2820
  301MOL    H6536665   3.785   4.964   6.472 -0.0112  1.9389 -3.5086
  301MOL    H6636666   3.630   4.936   6.410 -2.2939  0.9166  2.1018
  301MOL    H6736667   3.567   5.182   6.500  0.5898 -0.4231  0.9069
  301MOL    C6836668   3.712   5.190   6.337  0.0969  0.2383  0.1477
  301MOL    C6936669   3.632   5.131   6.222 -0.0368  0.8233  0.5118
  301MOL    F7036670   3.503   5.156   6.235 -0.5367 -0.4686  0.4377
  301MOL    H7136671   3.691   5.296   6.330 -0.3706  0.0520 -1.3725
  301MOL    H7236672   3.820   5.175   6.325  0.0733  1.2346 -1.4466
  301MOL    H7336673   3.630   5.022   6.223  2.5469  0.7505  0.9495
  301MOL    C7436674   3.686   5.176   6.080 -0.0785 -0.5990  0.4492
  301MOL    C7536675   3.809   5.100   6.023  1.2027 -0.3677  0.5407
  301MOL    F7636676   3.922   5.126   6.088 -0.4384  0.3686  0.4032
  301MOL    H7736677   3.606   5.178   6.007 -0.8607  0.7468  1.3089
  301MOL    H7836678   3.716   5.281   6.078  2.3073 -1.2771 -0.8763
  301MOL    H7936679   3.830   5.149   5.928 -1.9736 -0.6910 -0.3950
  301MOL    C8036680   3.801   4.946   6.005  0.4587 -0.3447 -0.2635
  301MOL    C8136681   3.674   4.884   5.942  0.9042 -0.2595 -0.4932
  301MOL    F8236682   3.653   4.948   5.826 -0.9965  0.8401  0.3057
  301MOL    H8336683   3.886   4.913   5.946  1.0235 -2.3767  1.6237
  301MOL    H8436684   3.819   4.906   6.105 -1.2208  1.3698  0.7656
  301MOL    H8536685   3.592   4.901   6.012  0.6031 -1.0996 -0.6428
  301MOL    C8636686   3.687   4.731   5.925  0.2844  0.1531 -0.3625
  301MOL    C8736687   3.563   4.659   5.866 -0.4014 -0.7173  0.2155
  301MOL    F8836688   3.530   4.709   5.746 -0.6493  0.2051  0.1148
  301MOL    H8936689   3.766   4.706   5.855  1.0443 -1.4212  1.0227
  301MOL    H9036690   3.714   4.669   6.011 -0.8042 -0.4769 -0.4630
  301MOL    H9136691   3.477   4.686   5.927 -0.1426  1.2174 -0.2380
  301MOL    C9236692   3.565   4.504   5.858 -0.1518  0.2134 -0.2169
  301MOL    C9336693   3.682   4.452   5.772  0.3444 -0.4397 -0.0247
  301MOL    F9436694   3.792   4.481   5.842 -0.2819  0.0753 -0.7982
  301MOL    H9536695   3.572   4.458   5.957 -3.5463  1.8714  0.8699
  301MOL    H9636696   3.467   4.476   5.819 -0.1405 -1.8700  1.2048
  301MOL    H9736697   3.695   4.516   5.685  1.5920  0.7370  1.0302
  301MOL    C9836698   3.682   4.299   5.736  0.2509  0.5644  0.5945
  301MOL    C9936699   3.596   4.259   5.614 -0.5157 -0.4958  0.7530
  301MOL   F10036700   3.657   4.303   5.505  0.3506  0.2282  0.3592
  301MOL   H10136701   3.786   4.284   5.708 -0.5603  0.3902 -2.5350
  301MOL   H10236702   3.658   4.239   5.824  3.8555  1.0183  1.9568
  301MOL   H10336703   3.498   4.306   5.621 -0.2969 -0.4319  4.0264
  301MOL   C10436704   3.586   4.110   5.588  0.3680  0.3809 -0.0629
  301MOL   C10536705   3.515   4.040   5.706  0.4104  0.8370  0.3832
  301MOL   F10636706   3.408   4.107   5.739  0.0783 -0.3057 -0.3144
  301MOL   H10736707   3.534   4.075   5.499 -1.3205 -2.1703  1.8603
  301MOL   H10836708   3.687   4.072   5.576  0.1835 -0.5472  1.2093
  301MOL   H10936709   3.588   4.039   5.787  1.6745 -3.9917 -0.6728
  301MOL   C11036710   3.471   3.896   5.678 -0.0879 -0.2939 -0.2631
  301MOL   C11136711   3.580   3.799   5.626 -0.1464  0.3709  0.3139
  301MOL   F11236712   3.688   3.812   5.706 -0.0937  0.1126 -0.2708
  301MOL   H11336713   3.433   3.861   5.773 -0.2850  2.6899  0.7810
  301MOL   H11436714   3.392   3.902   5.603 -1.9118  1.2288  1.7627
  301MOL   H11536715   3.592   3.812   5.519 -3.4491  0.7504 -0.0835
  301MOL   C11636716   3.523   3.656   5.624 -0.2597  0.4247 -0.1473
  301MOL   C11736717   3.504   3.590   5.761  0.6380 -0.7461  0.7282
  301MOL   F11836718   3.485   3.459   5.754  0.2422  0.2734  0.2069
  301MOL   H11936719   3.428   3.653   5.571 -0.6675  3.1738  0.4065
  301MOL   H12036720   3.593   3.591   5.570  0.9902  0.8086  0.9802
  301MOL   H12136721   3.413   3.633   5.804  1.4156  2.4145 -0.5941
  301MOL   H12236722   3.589   3.609   5.827 -1.5161 -0.8496  3.6374
  302MOL     C136723   3.293   4.625   1.141  0.5860 -0.3705 -0.0291
  302MOL     C236724   3.386   4.676   1.252 -0.7070 -0.0018  0.5714
  302MOL     F336725   3.329   4.771   1.323 -0.7711  0.1184  0.3343
  302MOL     H436726   3.342   4.559   1.070  1.1655  0.4899 -0.4260
  302MOL     H536727   3.261   4.709   1.079 -2.0064 -0.0336  1.6856
  302MOL     H636728   3.473   4.725   1.209 -0.5478 -0.5190  0.3064
  302MOL     H736729   3.200   4.575   1.169 -0.1404 -0.4318 -2.4404
  302MOL     C836730   3.434   4.559   1.346  0.5097 -0.6116  0.6206
  302MOL     C936731   3.525   4.601   1.462  0.0017  0.8824  0.0070
  302MOL    F1036732   3.529   4.492   1.536  0.3730  0.2058  0.0378
  302MOL    H1136733   3.345   4.514   1.391 -0.4397 -0.9451 -1.5205
  302MOL    H1236734   3.485   4.483   1.287  0.4021 -1.0572  1.1074
  302MOL    H1336735   3.496   4.684   1.526 -0.8209  0.2473  0.4592
  302MOL    C1436736   3.659   4.640   1.413 -0.2660 -0.0034  0.5513
  302MOL    C1536737   3.766   4.629   1.516 -0.0063 -0.3108  0.0835
  302MOL    F1636738   3.880   4.624   1.451  0.6622 -0.0561  0.0587
  302MOL    H1736739   3.681   4.571   1.331 -1.4237  1.2642 -0.8602
  302MOL    H1836740   3.666   4.741   1.373 -0.3175 -0.8123 -1.6039
  302MOL    H1936741   3.765   4.529   1.560 -1.8931  0.7550  2.5986
  302MOL    C2036742   3.760   4.738   1.625  0.6303 -0.3006 -0.1025
  302MOL    C2136743   3.887   4.729   1.720 -0.0188 -0.1785  0.2887
  302MOL    F2236744   3.906   4.842   1.788  0.3230 -0.1922  0.1553
  302MOL    H2336745   3.753   4.838   1.584  0.4222 -0.0688  0.4944
  302MOL    H2436746   3.674   4.708   1.684  0.8798 -1.4513 -0.2982
  302MOL    H2536747   3.981   4.723   1.665  0.0718  1.3304  0.2545
  302MOL    C2636748   3.877   4.616   1.827  0.5535  0.1255  0.1675
  302MOL    C2736749   4.002   4.595   1.913 -0.3158  0.3424  0.1663
  302MOL    F2836750   3.974   4.518   2.016 -0.2910 -0.0263 -0.0152
  302MOL    H2936751   3.796   4.639   1.896  0.6498 -1.4394  0.8235
  302MOL    H3036752   3.853   4.523   1.776 -0.2371  0.8812 -0.8654
  302MOL    H3136753   4.048   4.683   1.957  2.0123 -0.8485  0.1572
  302MOL    C3236754   4.109   4.521   1.842 -0.2637 -0.7552  0.1410
  302MOL    C3336755   4.247   4.517   1.920 -0.2828  0.3006  0.2552
  302MOL    F3436756   4.333   4.449   1.840  0.4939 -0.0959 -0.2674
  302MOL    H3536757   4.074   4.424   1.807  0.2342  0.7954 -5.1850
  302MOL    H3636758   4.124   4.563   1.742  1.8252  0.2039  0.8353
  302MOL    H3736759   4.231   4.444   2.000  1.6584  0.7249  1.0604
  302MOL    C3836760   4.300   4.650   1.957  0.3918  1.0483 -0.1171
  302MOL    C3936761   4.446   4.631   2.012  0.3049  0.4931  0.1070
  302MOL    F4036762   4.501   4.753   2.037  0.3579  0.2063  0.2609
  302MOL    H4136763   4.287   4.717   1.872  0.5485  0.5135 -0.5615
  302MOL    H4236764   4.244   4.680   2.046 -1.8369  0.8287 -1.4308
  302MOL    H4336765   4.512   4.574   1.946 -1.1117 -1.3380  0.2129
  302MOL    C4436766   4.458   4.549   2.148  0.8912  0.0729 -1.0239
  302MOL    C4536767   4.604   4.522   2.194  0.1446  0.1052  0.4912
  302MOL    F4636768   4.657   4.638   2.198  0.0313  0.3863  0.0050
  302MOL    H4736769   4.409   4.608   2.226  1.9231 -2.4053  1.5664
  302MOL    H4836770   4.402   4.456   2.133 -1.3977  1.9346 -4.9223
  302MOL    H4936771   4.667   4.469   2.122  1.8454 -1.6227  3.1456
  302MOL    C5036772   4.622   4.447   2.326  0.0959 -0.5193  0.1442
  302MOL    C5136773   4.753   4.365   2.341  0.0834 -0.4401  0.2384
  302MOL    F5236774   4.749   4.270   2.250  0.2175  0.4279  0.1089
  302MOL    H5336775   4.618   4.511   2.414  1.3922 -1.5038  0.9594
  302MOL    H5436776   4.541   4.376   2.342 -0.9494  0.0713 -2.2982
  302MOL    H5536777   4.750   4.312   2.436 -0.8227 -0.8980 -0.0370
  302MOL    C5636778   4.891   4.442   2.323  0.4978 -0.8329 -0.6241
  302MOL    C5736779   5.013   4.344   2.296  1.1581 -0.8360  0.0328
  302MOL    F5836780   5.116   4.419   2.259  1.0848  0.1880 -0.5663
  302MOL    H5936781   4.881   4.527   2.255  0.7372  0.3105  0.7554
  302MOL    H6036782   4.915   4.503   2.410  0.7697  0.8873 -1.8769
  302MOL    H6136783   4.992   4.280   2.210  0.1153 -0.9949  0.4010
  302MOL    C6236784   5.049   4.255   2.413 -0.2170 -0.5905  0.5876
  302MOL    C6336785   5.157   4.155   2.398 -0.3007  0.0564  0.8825
  302MOL    F6436786   5.196   4.113   2.520  0.5357 -0.2325  0.3156
  302MOL    H6536787   5.079   4.330   2.486 -3.0957  0.5288  0.7005
  302MOL    H6636788   4.964   4.201   2.455 -1.7998  0.8770 -0.6770
  302MOL    H6736789   5.244   4.208   2.359 -0.5671  1.0147  1.5952
  302MOL    C6836790   5.116   4.041   2.309  0.0320  0.3784  0.2527
  302MOL    C6936791   5.208   3.921   2.305  0.5382  0.0832  0.3791
  302MOL    F7036792   5.157   3.827   2.226  0.0797 -0.2547 -0.2148
  302MOL    H7136793   5.023   3.991   2.337  1.5271 -0.6800  3.5754
  302MOL    H7236794   5.100   4.086   2.211 -0.8259  1.0989  0.7161
  302MOL    H7336795   5.201   3.879   2.405  0.7523  0.9291  0.7499
  302MOL    C7436796   5.351   3.944   2.260  0.3086 -0.1759 -0.0606
  302MOL    C7536797   5.434   3.815   2.282  0.0628 -0.0572  0.4899
  302MOL    F7636798   5.560   3.846   2.242 -0.0624 -0.2168 -0.2539
  302MOL    H7736799   5.375   3.979   2.160  3.1332 -1.2032  0.2253
  302MOL    H7836800   5.391   4.022   2.325  1.9244  0.5734 -1.8915
  302MOL    H7936801   5.402   3.731   2.221  0.9690  0.8588 -1.2727
  302MOL    C8036802   5.444   3.765   2.424 -0.7529 -0.4724 -0.4176
  302MOL    C8136803   5.528   3.640   2.436 -0.2270 -0.0901 -0.7969
  302MOL    F8236804   5.528   3.604   2.564  0.1245  0.5163  0.1726
  302MOL    H8336805   5.495   3.839   2.486 -2.8723 -0.8352  1.8383
  302MOL    H8436806   5.344   3.745   2.462 -0.2690  0.0323  1.1478
  302MOL    H8536807   5.633   3.666   2.420  0.2093 -1.0324  0.5151
  302MOL    C8636808   5.489   3.516   2.352 -0.7308 -0.2678 -0.3734
  302MOL    C8736809   5.343   3.464   2.352 -0.3110 -0.6481  0.2301
  302MOL    F8836810   5.274   3.563   2.302  0.3114  0.1313  0.1606
  302MOL    H8936811   5.514   3.535   2.248 -0.4512  0.7471 -0.1280
  302MOL    H9036812   5.547   3.428   2.377  1.2778  1.8179  2.6312
  302MOL    H9136813   5.317   3.464   2.458  2.3757  1.0583  0.9308
  302MOL    C9236814   5.324   3.331   2.285  0.1025  0.1818  0.1612
  302MOL    C9336815   5.178   3.295   2.260 -0.3967  0.1758 -0.1942
  302MOL    F9436816   5.187   3.197   2.174 -0.7389  0.1361  0.0131
  302MOL    H9536817   5.371   3.326   2.187  0.6094  0.2386  0.3995
  302MOL    H9636818   5.382   3.258   2.342 -1.0955 -1.1139 -0.2401
  302MOL    H9736819   5.122   3.369   2.203 -0.6723 -1.1419 -1.6850
  302MOL    C9836820   5.085   3.270   2.379 -0.4535 -0.3275 -0.1291
  302MOL    C9936821   4.932   3.282   2.346 -0.1466  0.1991  0.7052
  302MOL   F10036822   4.867   3.190   2.416  0.0715 -0.3035 -0.3576
  302MOL   H10136823   5.107   3.168   2.412  0.1978 -0.2356 -0.2711
  302MOL   H10236824   5.096   3.337   2.465 -0.5743 -0.1317 -0.2654
  302MOL   H10336825   4.921   3.266   2.239  1.0469 -0.4028  0.6696
  302MOL   C10436826   4.869   3.420   2.367 -0.3718  0.0880 -0.8510
  302MOL   C10536827   4.821   3.452   2.514  0.0492 -0.2405 -0.2877
  302MOL   F10636828   4.906   3.405   2.605 -0.6971  0.1864  0.0159
  302MOL   H10736829   4.950   3.490   2.349  1.7581 -2.2016 -0.5337
  302MOL   H10836830   4.785   3.441   2.302 -0.1908 -0.0227 -1.1208
  302MOL   H10936831   4.727   3.402   2.538  0.8497 -1.2645  0.7404
  302MOL   C11036832   4.815   3.602   2.543  0.7746 -0.2608  1.0570
  302MOL   C11136833   4.740   3.631   2.675  0.3511 -0.1881 -0.1302
  302MOL   F11236834   4.770   3.761   2.685 -0.2662  0.4038 -0.4974
  302MOL   H11336835   4.914   3.646   2.533  0.0856  1.0388 -0.3902
  302MOL   H11436836   4.757   3.653   2.465 -1.0977 -3.4467  0.2672
  302MOL   H11536837   4.789   3.574   2.753  0.8075 -0.6463 -0.7411
  302MOL   C11636838   4.597   3.606   2.649 -0.3564 -0.2802 -0.0493
  302MOL   C11736839   4.516   3.640   2.772 -0.5180 -0.1905 -0.2092
  302MOL   F11836840   4.386   3.606   2.746  0.0252 -0.8925 -0.2693
  302MOL   H11936841   4.576   3.673   2.566  4.6399  1.8272  0.1824
  302MOL   H12036842   4.563   3.505   2.627  1.1991 -1.1229  1.2778
  302MOL   H12136843   4.520   3.748   2.785 -1.9457 -0.1549 -0.0412
  302MOL   H12236844   4.559   3.591   2.859  0.7348  0.2320 -0.5658
  303MOL     C136845   2.590   4.855   4.803  0.0069 -0.1935 -0.0668
  303MOL     C236846   2.440   4.892   4.789 -0.4544  0.0917 -0.1034
  303MOL     F336847   2.417   4.883   4.664  0.2173  0.0819  0.0061
  303MOL     H436848   2.630   4.879   4.901  0.2969 -1.1861  0.0681
  303MOL     H536849   2.643   4.908   4.724 -1.1030  1.4653  0.2817
  303MOL     H636850   2.425   4.996   4.816 -1.2583 -0.0288 -0.0833
  303MOL     H736851   2.598   4.746   4.793  0.6275 -0.3314  1.9100
  303MOL     C836852   2.341   4.806   4.875  0.0925 -0.9525  0.2514
  303MOL     C936853   2.355   4.838   5.028 -0.1488 -0.1162 -0.4108
  303MOL    F1036854   2.370   4.965   5.059 -0.2364  0.9813  0.4147
  303MOL    H1136855   2.243   4.839   4.843  0.0919 -1.5403 -0.3598
  303MOL    H1236856   2.358   4.699   4.861  1.3304 -0.8821  1.1210
  303MOL    H1336857   2.445   4.790   5.065  0.4858  0.1083 -1.6105
  303MOL    C1436858   2.247   4.776   5.118 -0.4858  0.9059  0.2347
  303MOL    C1536859   2.272   4.780   5.270 -0.4642 -0.2619  0.4796
  303MOL    F1636860   2.399   4.742   5.273 -0.3798  0.5790 -0.2404
  303MOL    H1736861   2.150   4.822   5.101 -0.4795  0.9092  0.2064
  303MOL    H1836862   2.232   4.671   5.091 -0.6628  0.1623  3.0387
  303MOL    H1936863   2.214   4.709   5.330 -1.3973 -1.0961 -1.3753
  303MOL    C2036864   2.257   4.920   5.346 -0.7411 -0.1426  0.2805
  303MOL    C2136865   2.275   4.914   5.497  0.4878 -0.0444 -0.3455
  303MOL    F2236866   2.376   4.835   5.531 -0.4784 -0.3439 -0.8021
  303MOL    H2336867   2.339   4.979   5.306 -0.3529 -0.8499  0.0177
  303MOL    H2436868   2.165   4.967   5.311  1.4426  4.0349 -0.0524
  303MOL    H2536869   2.181   4.866   5.525  1.0750 -1.0925 -0.1522
  303MOL    C2636870   2.274   5.052   5.572  0.4201  0.2921 -0.1297
  303MOL    C2736871   2.143   5.126   5.552 -0.2833 -0.1702  0.1144
  303MOL    F2836872   2.038   5.053   5.581  0.1882  0.1658 -0.0468
  303MOL    H2936873   2.290   5.028   5.678 -1.5224 -0.2422  0.0589
  303MOL    H3036874   2.356   5.116   5.541  0.8778 -0.8487 -1.3538
  303MOL    H3136875   2.128   5.152   5.447  2.8742 -1.4996 -0.7250
  303MOL    C3236876   2.124   5.251   5.645  0.6565  0.0497  0.4239
  303MOL    C3336877   2.236   5.354   5.625 -0.6424  0.5435  0.2168
  303MOL    F3436878   2.235   5.394   5.501  0.1892 -0.1660  0.6556
  303MOL    H3536879   2.033   5.300   5.609  0.1367  0.0700  1.7394
  303MOL    H3636880   2.087   5.227   5.744 -1.1605 -0.3186 -0.3317
  303MOL    H3736881   2.335   5.308   5.633 -0.9604 -0.3977 -1.1258
  303MOL    C3836882   2.227   5.464   5.726  0.2916 -0.6571 -0.9174
  303MOL    C3936883   2.350   5.553   5.726  0.5068  0.0680 -0.5370
  303MOL    F4036884   2.347   5.630   5.617 -0.2273  0.2211 -0.4111
  303MOL    H4136885   2.138   5.526   5.716 -1.3490 -2.8622 -0.3818
  303MOL    H4236886   2.210   5.409   5.819 -2.5000  1.0846 -0.3502
  303MOL    H4336887   2.437   5.488   5.726  0.4629 -0.0951  2.4117
  303MOL    C4436888   2.363   5.650   5.842 -0.1861 -0.6235 -0.4745
  303MOL    C4536889   2.389   5.574   5.969 -0.0199  0.0261 -0.0659
  303MOL    F4636890   2.493   5.491   5.965 -0.1624 -0.3027 -0.7658
  303MOL    H4736891   2.457   5.703   5.825 -0.4065 -1.1650 -3.7093
  303MOL    H4836892   2.288   5.722   5.873  0.1676 -0.8286  0.8827
  303MOL    H4936893   2.308   5.506   5.994  0.7717 -0.2515  1.7785
  303MOL    C5036894   2.414   5.670   6.088 -0.0586  0.6139 -0.4742
  303MOL    C5136895   2.406   5.593   6.224  0.1412 -0.0199  0.3146
  303MOL    F5236896   2.437   5.680   6.318  0.1405 -0.1939  0.6012
  303MOL    H5336897   2.507   5.724   6.078  0.3643  0.0336  0.3001
  303MOL    H5436898   2.334   5.743   6.090 -1.1782 -0.5541 -1.3295
  303MOL    H5536899   2.483   5.517   6.233  0.3478  0.1897  0.3299
  303MOL    C5636900   2.268   5.519   6.264  0.4691  0.1601  0.5309
  303MOL    C5736901   2.152   5.613   6.316 -0.0294  0.2211 -0.3375
  303MOL    F5836902   2.038   5.544   6.327  0.5004 -0.3302  0.1505
  303MOL    H5936903   2.222   5.455   6.189  1.5076  0.4441 -0.3448
  303MOL    H6036904   2.299   5.454   6.346 -1.4539  1.0276  2.0054
  303MOL    H6136905   2.122   5.685   6.240  0.3783  0.9416  0.1661
  303MOL    C6236906   2.190   5.674   6.453 -0.1484  0.3903 -0.3048
  303MOL    C6336907   2.086   5.779   6.502 -0.0228 -0.5351  0.0442
  303MOL    F6436908   1.966   5.725   6.519  0.0980  0.1179 -0.5802
  303MOL    H6536909   2.190   5.594   6.527 -2.1016  0.3568 -0.3205
  303MOL    H6636910   2.285   5.727   6.450 -0.3007  0.6474 -0.7827
  303MOL    H6736911   2.076   5.860   6.429  0.5121 -1.0678 -0.6281
  303MOL    C6836912   2.122   5.842   6.633 -0.1333  0.0682 -0.8214
  303MOL    C6936913   2.249   5.928   6.628  0.1853 -0.3697 -0.3671
  303MOL    F7036914   2.236   6.019   6.535 -0.1842 -0.1393  0.0752
  303MOL    H7136915   2.046   5.911   6.670 -0.7626 -0.6252 -0.8330
  303MOL    H7236916   2.124   5.759   6.703 -3.4926  1.8424  1.4926
  303MOL    H7336917   2.342   5.874   6.609  0.0466 -0.8185  0.2457
  303MOL    C7436918   2.264   6.003   6.762 -0.1943  0.0396 -1.6370
  303MOL    C7536919   2.390   6.097   6.773  0.6276 -0.0990 -0.3972
  303MOL    F7636920   2.389   6.207   6.697 -0.2918 -0.6277 -0.0771
  303MOL    H7736921   2.175   6.063   6.778 -0.0493 -0.3393  0.7945
  303MOL    H7836922   2.263   5.925   6.839  2.3802  1.6489  0.1049
  303MOL    H7936923   2.473   6.036   6.738  1.0307  0.6380 -0.7352
  303MOL    C8036924   2.409   6.146   6.916  0.1414 -0.4232  0.6589
  303MOL    C8136925   2.308   6.256   6.957  0.3119 -0.0837 -0.5183
  303MOL    F8236926   2.209   6.200   7.027  0.2207  0.2448  0.2546
  303MOL    H8336927   2.393   6.072   6.994  0.0395 -0.1082  0.9400
  303MOL    H8436928   2.513   6.178   6.914 -0.0396  0.1356 -0.8479
  303MOL    H8536929   2.269   6.309   6.870  2.1108 -2.5274 -2.9241
  303MOL    C8636930   2.372   6.366   7.051 -0.2410  0.0109  0.2223
  303MOL    C8736931   2.291   6.501   7.058 -0.0483 -0.5305 -0.0903
  303MOL    F8836932   2.357   6.569   7.158  0.4658  0.3645 -0.0090
  303MOL    H8936933   2.379   6.329   7.153 -2.8627  1.0208  0.8050
  303MOL    H9036934   2.473   6.399   7.025 -1.0580  1.3213 -1.4493
  303MOL    H9136935   2.195   6.470   7.100 -0.1733 -1.0419 -0.7430
  303MOL    C9236936   2.283   6.564   6.926  0.0685  0.6959 -0.8407
  303MOL    C9336937   2.244   6.708   6.915 -0.4842 -0.2453  0.4464
  303MOL    F9436938   2.114   6.727   6.919  0.3334  0.4305 -0.6606
  303MOL    H9536939   2.374   6.557   6.866  1.6929  3.2208  1.1747
  303MOL    H9636940   2.220   6.506   6.859  0.4011 -1.4589  0.6804
  303MOL    H9736941   2.268   6.730   6.811  1.7950 -0.0849  0.9610
  303MOL    C9836942   2.315   6.812   7.010  0.7282  0.5186  0.8194
  303MOL    C9936943   2.465   6.809   7.016  0.6762  0.5031 -0.4171
  303MOL   F10036944   2.512   6.810   6.887  0.2166  0.2510 -0.4255
  303MOL   H10136945   2.287   6.913   6.980  0.2498 -0.2546 -1.4258
  303MOL   H10236946   2.278   6.789   7.110 -0.0844  1.2877  0.6975
  303MOL   H10336947   2.503   6.714   7.054  1.2329  0.9708  0.2146
  303MOL   C10436948   2.542   6.920   7.090 -0.2865  0.3250  0.1553
  303MOL   C10536949   2.673   6.867   7.145 -0.1163 -0.3309  0.2804
  303MOL   F10636950   2.649   6.780   7.242 -0.6579  0.2159  0.8448
  303MOL   H10736951   2.544   7.005   7.022  0.6564 -0.2413 -0.5397
  303MOL   H10836952   2.479   6.949   7.173 -0.1179 -0.1823  0.4628
  303MOL   H10936953   2.728   6.948   7.193  0.0247  0.2914 -0.9122
  303MOL   C11036954   2.763   6.789   7.051 -1.0553 -0.1718 -1.0290
  303MOL   C11136955   2.821   6.873   6.931 -0.0522  0.2748 -0.1875
  303MOL   F11236956   2.891   6.976   6.984 -0.3421  0.2410  0.1089
  303MOL   H11336957   2.849   6.759   7.111 -2.2094 -1.2841  0.0968
  303MOL   H11436958   2.723   6.694   7.019  0.6157 -1.7532  1.3629
  303MOL   H11536959   2.746   6.932   6.878 -0.1100  1.1852  0.8879
  303MOL   C11636960   2.897   6.796   6.821 -0.4212 -0.6747 -0.3224
  303MOL   C11736961   2.808   6.700   6.733 -0.0884  0.2882 -0.5142
  303MOL   F11836962   2.704   6.773   6.692 -0.5578  0.6079  0.0401
  303MOL   H11936963   2.954   6.868   6.762 -0.1153 -2.1697 -1.9010
  303MOL   H12036964   2.980   6.739   6.862  1.0107  0.8338 -1.0591
  303MOL   H12136965   2.778   6.605   6.779 -0.1071  0.0954 -0.9201
  303MOL   H12236966   2.874   6.666   6.653 -1.2304 -1.2959 -0.8166
  304MOL     C136967   5.087   7.010   0.436 -0.6614  0.2408  0.2162
  304MOL     C236968   5.229   6.974   0.464 -0.2396  0.5684 -0.1791
  304MOL     F336969   5.299   7.078   0.431 -0.2108 -0.3334 -0.1083
  304MOL     H436970   5.024   6.922   0.449 -0.8736  0.2888 -0.4734
  304MOL     H536971   5.082   7.043   0.332 -3.4525  2.0054  0.8736
  304MOL     H636972   5.276   6.898   0.401  0.8388  0.1579  1.0720
  304MOL     H736973   5.040   7.092   0.490 -2.6782 -1.5950  1.3138
  304MOL     C836974   5.267   6.961   0.617 -0.0196  0.2913  0.5396
  304MOL     C936975   5.212   6.838   0.686 -0.3633 -0.0107 -0.0343
  304MOL    F1036976   5.244   6.734   0.621  0.3100  0.2310 -0.0953
  304MOL    H1136977   5.376   6.961   0.622 -0.0169  1.8401  0.4737
  304MOL    H1236978   5.228   7.049   0.668  0.9853  1.4278 -0.6193
  304MOL    H1336979   5.106   6.855   0.668 -0.2975 -0.3938 -0.7747
  304MOL    C1436980   5.247   6.827   0.840 -0.5451 -0.2626  0.1452
  304MOL    C1536981   5.165   6.708   0.908 -0.0893  0.0976 -0.3532
  304MOL    F1636982   5.034   6.723   0.876 -0.4558  0.1603 -0.2331
  304MOL    H1736983   5.352   6.806   0.861 -0.8307  0.0341  1.8946
  304MOL    H1836984   5.224   6.923   0.886  4.8918  1.2097  0.1698
  304MOL    H1936985   5.176   6.730   1.014  1.1375  0.2612 -0.5081
  304MOL    C2036986   5.207   6.565   0.874 -0.5736 -0.6327  0.5545
  304MOL    C2136987   5.345   6.516   0.911 -0.0303 -0.0880 -0.3564
  304MOL    F2236988   5.380   6.570   1.029  0.4190 -0.4045  0.1977
  304MOL    H2336989   5.141   6.512   0.943 -2.3706  0.6390 -0.1300
  304MOL    H2436990   5.182   6.543   0.770  0.1557  2.3556 -0.3035
  304MOL    H2536991   5.430   6.550   0.851  1.7308 -1.4948  1.2590
  304MOL    C2636992   5.344   6.363   0.935 -0.4307  0.9010  0.5534
  304MOL    C2736993   5.474   6.311   1.002 -0.4323 -0.1912 -0.1998
  304MOL    F2836994   5.446   6.203   1.071  0.2601 -0.2653 -0.5074
  304MOL    H2936995   5.256   6.334   0.992 -0.7772  2.5394  0.8925
  304MOL    H3036996   5.334   6.317   0.837  4.1429 -1.0458  0.8434
  304MOL    H3136997   5.496   6.385   1.079 -1.8751 -0.6581  0.6835
  304MOL    C3236998   5.579   6.284   0.898 -0.0759  0.4177 -0.2608
  304MOL    C3336999   5.696   6.203   0.950  0.6685 -0.5248 -0.7396
  304MOL    F3437000   5.762   6.174   0.838  0.0268 -0.1920  0.3792
  304MOL    H3537001   5.537   6.226   0.816  0.3512 -0.8292  0.3899
  304MOL    H3637002   5.614   6.377   0.854  0.0359  0.1746 -0.6797
  304MOL    H3737003   5.665   6.110   0.998  2.1632  0.3502  2.0782
  304MOL    C3837004   5.780   6.289   1.048 -0.5448  0.3042 -0.1087
  304MOL    C3937005   5.904   6.215   1.100 -0.0142 -0.9052  0.0807
  304MOL    F4037006   6.000   6.214   1.003 -0.1552 -0.2190  0.2634
  304MOL    H4137007   5.813   6.372   0.985  0.4147 -0.6202 -0.8532
  304MOL    H4237008   5.718   6.314   1.134 -0.6709  0.1632 -0.1568
  304MOL    H4337009   5.884   6.108   1.110 -0.2625 -0.9671 -1.0523
  304MOL    C4437010   5.961   6.275   1.233  0.8281 -0.0351 -0.0635
  304MOL    C4537011   5.867   6.234   1.354  0.8218 -0.2533  0.2473
  304MOL    F4637012   5.830   6.105   1.360 -0.1824  0.4476  0.5951
  304MOL    H4737013   6.057   6.230   1.261  0.3795  0.4178  2.3662
  304MOL    H4837014   5.961   6.384   1.223  1.6791 -0.1978 -2.1582
  304MOL    H4937015   5.770   6.284   1.345  0.3648 -0.8111  1.9087
  304MOL    C5037016   5.924   6.280   1.489 -0.2976  0.2329  0.1178
  304MOL    C5137017   5.862   6.212   1.616 -0.0963 -0.2297 -0.2912
  304MOL    F5237018   5.938   6.250   1.715  0.2403 -0.2208  0.2879
  304MOL    H5337019   6.030   6.258   1.495 -0.2110  0.1670 -1.3816
  304MOL    H5437020   5.928   6.389   1.480  1.1071  0.1795 -0.0180
  304MOL    H5537021   5.875   6.105   1.603  1.7001  0.0640 -1.0785
  304MOL    C5637022   5.723   6.247   1.674 -0.0611  0.2312  0.3459
  304MOL    C5737023   5.691   6.397   1.683  0.0325  0.4710 -0.6199
  304MOL    F5837024   5.690   6.452   1.561 -0.2969  0.4605 -0.8695
  304MOL    H5937025   5.647   6.203   1.609  1.2242 -0.4849 -0.7008
  304MOL    H6037026   5.709   6.198   1.770  0.0327 -1.3119 -0.4190
  304MOL    H6137027   5.783   6.444   1.718 -0.1075  0.7633 -0.6435
  304MOL    C6237028   5.562   6.430   1.749  0.4352  0.2325 -0.3766
  304MOL    C6337029   5.542   6.581   1.786 -0.7481 -0.1286  0.6634
  304MOL    F6437030   5.423   6.575   1.846 -0.2054  0.1916 -0.3677
  304MOL    H6537031   5.488   6.384   1.684 -0.2795 -1.6409  1.7286
  304MOL    H6637032   5.548   6.387   1.848 -0.3907  0.3434 -0.4380
  304MOL    H6737033   5.532   6.641   1.696  0.1249  0.9006  1.2446
  304MOL    C6837034   5.647   6.642   1.884  0.4670  0.4216 -0.8076
  304MOL    C6937035   5.629   6.777   1.940 -0.0373 -0.0559 -0.0409
  304MOL    F7037036   5.742   6.809   2.005  0.0581 -0.6777 -0.0756
  304MOL    H7137037   5.657   6.571   1.966  0.5376 -1.3565 -2.3059
  304MOL    H7237038   5.744   6.651   1.835  0.8853  0.4305  0.0152
  304MOL    H7337039   5.547   6.772   2.012  0.2560 -2.6060  0.1539
  304MOL    C7437040   5.611   6.883   1.836  0.3221  0.3786  0.2056
  304MOL    C7537041   5.577   7.022   1.890 -0.9255  0.6336 -0.6966
  304MOL    F7637042   5.581   7.106   1.788 -0.2751 -0.2732  0.3060
  304MOL    H7737043   5.708   6.904   1.789  1.4381  1.2605  2.8159
  304MOL    H7837044   5.547   6.860   1.752  2.0005  3.0681 -1.9221
  304MOL    H7937045   5.654   7.061   1.956 -0.0342  0.8356 -1.8486
  304MOL    C8037046   5.435   7.028   1.945  0.1631 -0.5137  0.1309
  304MOL    C8137047   5.402   7.162   2.006  0.2192  0.4456 -0.4494
  304MOL    F8237048   5.497   7.197   2.085  0.1243  0.1741 -0.4241
  304MOL    H8337049   5.353   6.997   1.881  0.9848 -3.0825  0.2560
  304MOL    H8437050   5.425   6.955   2.026  0.0949  0.5747  1.1177
  304MOL    H8537051   5.313   7.150   2.068  1.2731 -0.4368  0.9356
  304MOL    C8637052   5.361   7.272   1.904 -0.0284 -0.0101  0.6952
  304MOL    C8737053   5.258   7.222   1.802 -0.1831  0.1958  0.4204
  304MOL    F8837054   5.170   7.139   1.855  0.4713 -0.1870  0.1340
  304MOL    H8937055   5.313   7.355   1.957 -0.1763  0.6635 -0.4799
  304MOL    H9037056   5.442   7.306   1.839 -2.0337  2.2179 -0.7637
  304MOL    H9137057   5.304   7.165   1.721 -1.7166 -1.1961  0.5131
  304MOL    C9237058   5.165   7.338   1.752  0.7953  0.4036  0.5470
  304MOL    C9337059   5.232   7.410   1.634 -1.1224  0.0906 -0.7978
  304MOL    F9437060   5.258   7.316   1.540  0.6415  0.1640  0.1263
  304MOL    H9537061   5.069   7.295   1.724  1.0590 -1.8230  2.8437
  304MOL    H9637062   5.135   7.408   1.830  0.0263  1.1319 -0.3891
  304MOL    H9737063   5.333   7.426   1.672 -0.6058 -2.1063 -1.1197
  304MOL    C9837064   5.153   7.534   1.590  0.0780  0.4696  0.1707
  304MOL    C9937065   5.206   7.673   1.642  0.6449  0.0122  0.0403
  304MOL   F10037066   5.160   7.778   1.562  0.1243  0.0785 -0.9192
  304MOL   H10137067   5.145   7.538   1.481 -0.4674 -1.6964  0.1158
  304MOL   H10237068   5.049   7.516   1.616  0.3406  0.8788  1.5284
  304MOL   H10337069   5.313   7.671   1.620  0.1916 -0.1613 -2.2797
  304MOL   C10437070   5.181   7.707   1.796  0.4887  0.2646  0.1087
  304MOL   C10537071   5.241   7.844   1.842 -0.3080  0.3139 -0.5747
  304MOL   F10637072   5.217   7.851   1.978 -0.9538  0.0189 -0.0434
  304MOL   H10737073   5.072   7.708   1.802  0.4961 -0.7123  0.5219
  304MOL   H10837074   5.220   7.625   1.856  0.1413  0.7693  1.0240
  304MOL   H10937075   5.189   7.930   1.801 -1.0887 -0.0690 -0.3956
  304MOL   C11037076   5.386   7.883   1.799  0.2368 -0.2502 -0.4070
  304MOL   C11137077   5.433   0.007   1.865 -0.5331  0.0687  0.7184
  304MOL   F11237078   5.565   0.009   1.851 -0.4536 -0.0169 -0.0202
  304MOL   H11337079   5.464   7.807   1.808 -0.8891 -1.4227 -0.5592
  304MOL   H11437080   5.383   7.881   1.690 -0.8180 -4.9199 -0.3642
  304MOL   H11537081   5.420   8.000   1.972  0.8761  0.2243  0.9112
  304MOL   C11637082   5.371   0.137   1.810 -0.7766  0.6333  0.0988
  304MOL   C11737083   5.421   0.259   1.900  0.5560  0.4154  0.3738
  304MOL   F11837084   5.358   0.375   1.859 -0.0835 -0.1854 -0.3715
  304MOL   H11937085   5.390   0.153   1.704  0.7212  1.9791  0.5555
  304MOL   H12037086   5.263   0.127   1.814 -0.5844 -1.2258  1.4489
  304MOL   H12137087   5.527   0.280   1.914  0.5852 -0.2471  1.1728
  304MOL   H12237088   5.388   0.242   2.003 -1.2971  2.3878  0.1441
  305MOL     C137089   6.479   3.867   6.983  0.6472  0.1546  0.3915
  305MOL     C237090   6.618   3.804   6.980 -0.7545 -0.3384 -0.1450
  305MOL     F337091   6.606   3.689   6.918 -0.3406  0.4401 -0.1123
  305MOL     H437092   6.404   3.797   7.020 -0.8465  0.1584 -2.5198
  305MOL     H537093   6.434   3.895   6.888  0.2719 -2.3516 -0.2125
  305MOL     H637094   6.653   3.765   7.076  0.0566 -0.6139 -0.5452
  305MOL     H737095   6.487   3.961   7.038  1.2461  2.5234 -3.5199
  305MOL     C837096   6.732   3.880   6.910 -0.3785  0.1779 -0.4723
  305MOL     C937097   6.791   3.989   6.997  0.2661  0.6989 -0.5581
  305MOL    F1037098   6.831   3.923   7.107 -0.0482  0.2583 -0.2277
  305MOL    H1137099   6.809   3.809   6.881  0.2105  0.3944  0.5224
  305MOL    H1237100   6.698   3.938   6.825 -3.0760  0.3707  0.6915
  305MOL    H1337101   6.717   4.059   7.037  0.6779  0.6167  0.3703
  305MOL    C1437102   6.905   4.070   6.929  0.3012  1.1041 -0.1622
  305MOL    C1537103   6.854   4.151   6.804  0.3229 -0.0969  0.4491
  305MOL    F1637104   6.738   4.203   6.830 -0.2473 -0.3929  0.0451
  305MOL    H1737105   6.956   4.131   7.005  2.6940 -1.6707  0.5599
  305MOL    H1837106   6.980   4.000   6.894 -0.9755 -0.2501 -0.2011
  305MOL    H1937107   6.843   4.073   6.729  0.0299 -1.6897  2.0949
  305MOL    C2037108   6.948   4.267   6.761  0.0298 -0.0247 -0.1476
  305MOL    C2137109   6.894   4.365   6.655  0.5466  0.1907 -0.4606
  305MOL    F2237110   6.994   4.448   6.630  0.0476 -0.1369 -0.4473
  305MOL    H2337111   6.953   4.322   6.855  1.4762 -0.6472  0.1529
  305MOL    H2437112   7.051   4.235   6.745 -0.3827 -2.0191  1.0705
  305MOL    H2537113   6.814   4.422   6.702  1.6011  1.2275  0.0939
  305MOL    C2637114   6.860   4.301   6.520  0.7558 -0.1933 -0.9526
  305MOL    C2737115   6.719   4.247   6.524  0.0293  0.5237  0.2585
  305MOL    F2837116   6.635   4.341   6.573 -0.1003  0.2028  0.0749
  305MOL    H2937117   6.867   4.378   6.442 -1.0617  1.5780  0.5968
  305MOL    H3037118   6.936   4.226   6.497  2.0233  0.1821  1.8813
  305MOL    H3137119   6.724   4.163   6.594  2.5909  0.1959 -0.2555
  305MOL    C3237120   6.665   4.186   6.389 -0.6537 -0.4112  0.0797
  305MOL    C3337121   6.745   4.067   6.341 -0.2785  0.4255 -0.0779
  305MOL    F3437122   6.737   3.976   6.435 -0.3748 -0.1641 -0.0330
  305MOL    H3537123   6.560   4.161   6.402 -0.4822 -0.4267  1.5931
  305MOL    H3637124   6.669   4.273   6.323 -1.1527 -0.0713  0.4891
  305MOL    H3737125   6.846   4.103   6.317  0.0945 -0.8106 -0.3958
  305MOL    C3837126   6.687   4.001   6.210 -0.2215  0.0139  0.2803
  305MOL    C3937127   6.778   3.888   6.138  0.3185 -0.4751 -0.7484
  305MOL    F4037128   6.894   3.944   6.106  0.3096 -0.4063  0.3073
  305MOL    H4137129   6.592   3.960   6.246  1.2006 -1.8862  1.9206
  305MOL    H4237130   6.663   4.079   6.137  2.6959  1.2802  0.6231
  305MOL    H4337131   6.740   3.864   6.038  0.9619 -0.8792 -0.9031
  305MOL    C4437132   6.796   3.763   6.226  0.1884  0.2358 -0.1967
  305MOL    C4537133   6.865   3.661   6.149  0.1689  0.0380  0.2186
  305MOL    F4637134   6.797   3.617   6.041 -0.0129 -0.8318 -0.5245
  305MOL    H4737135   6.859   3.792   6.310 -2.3781  3.3150  0.7901
  305MOL    H4837136   6.693   3.738   6.254 -0.7109  2.4360 -1.4040
  305MOL    H4937137   6.862   3.575   6.216 -0.1013  0.9320  1.3759
  305MOL    C5037138   7.011   3.682   6.103  0.3356  0.9408 -0.1209
  305MOL    C5137139   7.096   3.554   6.080  0.3500  0.5406 -0.8315
  305MOL    F5237140   7.082   3.495   6.196 -0.0753 -0.2187 -0.0970
  305MOL    H5337141   7.013   3.736   6.008  2.7581 -0.8901 -1.1627
  305MOL    H5437142   7.078   3.742   6.163  1.4567 -1.6684  1.3110
  305MOL    H5537143   7.200   3.582   6.062  0.0768  2.7635  0.8298
  305MOL    C5637144   7.035   3.458   5.983 -0.4261  0.3668  0.3884
  305MOL    C5737145   7.013   3.512   5.837  0.1896  0.5258  0.0092
  305MOL    F5837146   7.135   3.546   5.787  0.0132  0.0155  0.0752
  305MOL    H5937147   7.094   3.367   5.987 -0.2704  0.4550  0.1446
  305MOL    H6037148   6.939   3.418   6.016  1.0184 -3.2717  0.3708
  305MOL    H6137149   6.958   3.606   5.838 -0.3566  0.2484 -1.9651
  305MOL    C6237150   6.936   3.411   5.745  0.4671 -0.7840  0.5586
  305MOL    C6337151   6.777   3.417   5.767 -0.5300 -0.6403  0.0081
  305MOL    F6437152   6.737   3.535   5.715 -0.4847  0.1433  0.5745
  305MOL    H6537153   6.959   3.440   5.643  0.7821 -2.0904  0.2571
  305MOL    H6637154   6.981   3.312   5.756  0.9326 -0.5793  0.4860
  305MOL    H6737155   6.744   3.420   5.871  0.4717 -1.1875  0.3497
  305MOL    C6837156   6.703   3.302   5.695 -0.3873  0.2685  0.2531
  305MOL    C6937157   6.718   3.167   5.751  0.5377 -0.6509 -0.0291
  305MOL    F7037158   6.688   3.160   5.882 -0.3073  0.0921  0.0207
  305MOL    H7137159   6.596   3.313   5.682 -0.5433  0.8409  1.9173
  305MOL    H7237160   6.745   3.300   5.594 -0.6826  0.2319  0.1327
  305MOL    H7337161   6.822   3.135   5.748  1.0381  0.9411 -0.1499
  305MOL    C7437162   6.641   3.052   5.690 -0.6718  0.1564  0.3454
  305MOL    C7537163   6.658   3.039   5.543 -0.3379  0.9861  0.1153
  305MOL    F7637164   6.791   3.032   5.521 -0.7537 -0.2842  0.6857
  305MOL    H7737165   6.682   2.965   5.742 -0.4728 -1.5330 -2.5298
  305MOL    H7837166   6.535   3.066   5.709 -0.7905 -0.8022  0.4412
  305MOL    H7937167   6.625   3.127   5.488 -1.6885 -0.2459 -1.1125
  305MOL    C8037168   6.583   2.916   5.476 -0.7503  0.6742 -0.2771
  305MOL    C8137169   6.602   2.781   5.542 -0.1854 -1.2068 -0.3667
  305MOL    F8237170   6.519   2.776   5.640 -0.2490 -1.0355  0.4412
  305MOL    H8337171   6.477   2.942   5.462 -1.6882 -1.2970  2.7044
  305MOL    H8437172   6.627   2.908   5.377  2.4958  0.7430  1.0965
  305MOL    H8537173   6.699   2.755   5.584  0.3224  0.0538 -0.7391
  305MOL    C8637174   6.556   2.674   5.435 -0.1976  0.7473 -0.2794
  305MOL    C8737175   6.568   2.528   5.480  0.0690  0.4400 -0.4733
  305MOL    F8837176   6.695   2.491   5.503 -0.4222  0.3248  0.0295
  305MOL    H8937177   6.449   2.685   5.418 -0.4089  3.3323  2.2553
  305MOL    H9037178   6.613   2.681   5.342  0.4505  1.1582  0.1454
  305MOL    H9137179   6.537   2.470   5.393 -0.6557 -0.3673  0.3276
  305MOL    C9237180   6.484   2.489   5.607 -0.0125 -0.2336  0.5197
  305MOL    C9337181   6.336   2.521   5.586  0.6390 -0.0963  0.0453
  305MOL    F9437182   6.297   2.491   5.467  0.2298  0.0855 -0.3649
  305MOL    H9537183   6.494   2.381   5.617 -0.3560 -0.5016 -1.6988
  305MOL    H9637184   6.522   2.528   5.701  1.5471  0.4923 -0.4045
  305MOL    H9737185   6.320   2.628   5.599 -0.2607 -0.3558  1.1819
  305MOL    C9837186   6.249   2.455   5.690  0.5505 -0.5981 -0.3311
  305MOL    C9937187   6.100   2.501   5.673 -0.5648  0.3118  0.0786
  305MOL   F10037188   6.040   2.461   5.559 -0.6810 -0.0527  0.1534
  305MOL   H10137189   6.252   2.346   5.691  1.7222 -0.5630  0.0879
  305MOL   H10237190   6.291   2.490   5.784 -1.0673  0.6728 -0.0619
  305MOL   H10337191   6.098   2.610   5.675  3.4722  0.4120  2.1162
  305MOL   C10437192   6.013   2.443   5.790 -0.4809  0.4718  0.5373
  305MOL   C10537193   6.005   2.529   5.921  0.3209 -0.5085 -0.2880
  305MOL   F10637194   5.941   2.643   5.897 -0.3399 -0.0713  0.5527
  305MOL   H10737195   5.910   2.435   5.756 -1.1842 -1.4174  2.9645
  305MOL   H10837196   6.041   2.342   5.817  0.5392  0.4745 -0.4975
  305MOL   H10937197   6.105   2.555   5.954 -0.0327  0.1227  0.2907
  305MOL   C11037198   5.919   2.454   6.031  0.0356  0.2742  0.0170
  305MOL   C11137199   5.909   2.540   6.156 -0.4338 -0.3724  0.6934
  305MOL   F11237200   5.832   2.464   6.237  0.1719  0.5865  0.0962
  305MOL   H11337201   5.816   2.443   5.997  0.5942  0.4569 -1.7887
  305MOL   H11437202   5.966   2.359   6.056 -0.2160  0.2726  0.4975
  305MOL   H11537203   5.857   2.632   6.128  2.4778  2.1966  3.2505
  305MOL   C11637204   6.045   2.571   6.224 -0.7227  0.1586  0.4745
  305MOL   C11737205   6.014   2.673   6.325  0.4133  0.0785 -0.4256
  305MOL   F11837206   6.103   2.658   6.423  0.5526 -0.4307 -0.1272
  305MOL   H11937207   6.087   2.478   6.264 -0.1415 -0.1023 -0.7249
  305MOL   H12037208   6.112   2.621   6.155 -2.3755  1.6340 -0.0928
  305MOL   H12137209   5.919   2.667   6.379  1.0438  0.9239  0.8081
  305MOL   H12237210   6.019   2.778   6.295  1.2409  0.3035  0.4848
  306MOL     C137211   4.984   6.744   3.839  0.6817 -0.9080 -0.2931
  306MOL     C237212   5.074   6.778   3.715 -0.1852  0.5330 -0.6848
  306MOL     F337213   5.049   6.675   3.630  0.6551 -0.1239 -0.0369
  306MOL     H437214   5.014   6.803   3.926 -0.8250 -1.8062  0.8457
  306MOL     H537215   4.988   6.646   3.886 -0.1966  0.2988  2.4318
  306MOL     H637216   5.179   6.769   3.741 -1.0821 -2.6345  2.2320
  306MOL     H737217   4.880   6.775   3.828  0.5289  0.2366  3.6242
  306MOL     C837218   5.054   6.909   3.643  0.4715  0.0460  0.2561
  306MOL     C937219   4.910   6.970   3.635  0.3540  0.4583  0.2047
  306MOL    F1037220   4.862   7.006   3.756  0.2113 -0.4897 -0.5910
  306MOL    H1137221   5.118   6.989   3.681  0.1080  0.4205  0.0892
  306MOL    H1237222   5.089   6.890   3.542  0.9930  0.4272  0.3642
  306MOL    H1337223   4.836   6.895   3.607  0.7640 -0.3372  1.1998
  306MOL    C1437224   4.911   7.099   3.549 -0.3064 -0.2809  1.0301
  306MOL    C1537225   4.781   7.180   3.575  0.2514 -0.5282  0.4468
  306MOL    F1637226   4.767   7.236   3.701 -0.0340 -0.0405 -0.8052
  306MOL    H1737227   4.991   7.172   3.562 -1.2104  0.4850  2.5417
  306MOL    H1837228   4.924   7.071   3.445  1.4403  2.1351  0.5417
  306MOL    H1937229   4.710   7.098   3.570 -0.9010  0.2649  3.2156
  306MOL    C2037230   4.740   7.284   3.469  0.6462  0.6458 -0.3489
  306MOL    C2137231   4.756   7.254   3.318 -0.4540 -0.2384 -0.3333
  306MOL    F2237232   4.670   7.155   3.293  0.0710 -0.7830 -0.2701
  306MOL    H2337233   4.633   7.299   3.482  0.9797  1.2024  2.1106
  306MOL    H2437234   4.789   7.379   3.490 -1.4129  1.6201  0.1218
  306MOL    H2537235   4.859   7.225   3.303  0.7416  1.8961  3.2056
  306MOL    C2637236   4.724   7.379   3.224 -0.5318 -0.4826 -0.1829
  306MOL    C2737237   4.838   7.487   3.231  0.2180  0.0720 -0.0127
  306MOL    F2837238   4.957   7.437   3.188  0.0426  0.4129  0.0953
  306MOL    H2937239   4.710   7.355   3.118  1.3997  0.1159 -0.5950
  306MOL    H3037240   4.626   7.415   3.255  0.0516  0.7011  0.2916
  306MOL    H3137241   4.853   7.520   3.334  0.1003 -0.2782  0.1173
  306MOL    C3237242   4.797   7.607   3.142  0.1642  0.7742 -0.0714
  306MOL    C3337243   4.866   7.743   3.177  0.4597 -0.0550 -0.4395
  306MOL    F3437244   4.987   7.742   3.120 -0.2121 -0.2650  0.2589
  306MOL    H3537245   4.825   7.578   3.041 -3.8929 -1.4128 -0.6654
  306MOL    H3637246   4.688   7.607   3.146  0.1985  0.6134  0.8846
  306MOL    H3737247   4.872   7.754   3.285 -1.4597 -2.0508 -0.0979
  306MOL    C3837248   4.778   7.867   3.130 -0.0946 -0.4385  0.3666
  306MOL    C3937249   4.854   7.997   3.160  0.2505  0.3500  0.8949
  306MOL    F4037250   4.906   7.999   3.281  0.5177 -0.7424  0.1150
  306MOL    H4137251   4.756   7.872   3.024  1.1191  0.3756  0.1405
  306MOL    H4237252   4.679   7.860   3.175  0.1095  0.6841  1.0037
  306MOL    H4337253   4.789   0.080   3.178 -0.5811  0.0829 -0.7863
  306MOL    C4437254   4.953   0.035   3.055 -0.9961 -0.2284 -0.4891
  306MOL    C4537255   5.009   0.184   3.074  0.3861 -0.3891 -1.4611
  306MOL    F4637256   5.133   0.196   3.038  0.0846 -0.1537  0.1067
  306MOL    H4737257   5.030   7.961   3.053 -1.3956 -0.6321 -0.2409
  306MOL    H4837258   4.905   0.034   2.958 -0.2158 -2.2726 -0.8719
  306MOL    H4937259   5.002   0.192   3.183  0.8952 -0.1275 -1.4478
  306MOL    C5037260   4.928   0.303   2.998  0.0941  1.1240 -0.1484
  306MOL    C5137261   4.779   0.319   3.019 -0.3694  0.1083 -0.1723
  306MOL    F5237262   4.759   0.309   3.153 -0.4394 -0.5060  0.3732
  306MOL    H5337263   4.965   0.399   3.033 -0.3413  0.9223  0.8566
  306MOL    H5437264   4.945   0.287   2.891  1.8513 -0.2786  0.3172
  306MOL    H5537265   4.724   0.237   2.973  3.7953 -2.4243 -0.8722
  306MOL    C5637266   4.734   0.473   2.991  0.0226 -0.5154 -0.5657
  306MOL    C5737267   4.712   0.495   2.845  0.6116 -0.3905 -0.2642
  306MOL    F5837268   4.623   0.404   2.808  0.0267 -0.3233  0.0935
  306MOL    H5937269   4.642   0.501   3.043 -0.2675  2.0541 -2.3652
  306MOL    H6037270   4.810   0.551   3.003 -1.4852  0.9551 -0.5048
  306MOL    H6137271   4.804   0.471   2.791  0.6599 -1.5709  0.3205
  306MOL    C6237272   4.655   0.638   2.818 -0.0135  0.5306  0.2789
  306MOL    C6337273   4.638   0.667   2.668  0.5522 -0.2357 -0.3443
  306MOL    F6437274   4.573   0.783   2.661  0.1656 -0.2588  0.2182
  306MOL    H6537275   4.563   0.642   2.877  0.5837 -0.4998  1.2976
  306MOL    H6637276   4.722   0.713   2.860  0.6828  0.2670 -0.3636
  306MOL    H6737277   4.571   0.590   2.629  0.7743  0.6644 -2.6218
  306MOL    C6837278   4.770   0.684   2.590  0.1058 -1.1276  0.2796
  306MOL    C6937279   4.756   0.726   2.439 -0.6546  0.3265 -0.0242
  306MOL    F7037280   4.876   0.691   2.377 -0.3341 -0.0777  0.2179
  306MOL    H7137281   4.835   0.758   2.636 -1.6478 -0.3086  1.4741
  306MOL    H7237282   4.833   0.595   2.600  0.4479 -1.0887 -1.4016
  306MOL    H7337283   4.741   0.833   2.423 -0.6812  0.2535 -0.4912
  306MOL    C7437284   4.644   0.639   2.363  0.1759 -0.1995 -0.2745
  306MOL    C7537285   4.605   0.679   2.218 -0.5937 -0.0673 -0.2090
  306MOL    F7637286   4.719   0.658   2.160  0.0806  0.2839 -0.2271
  306MOL    H7737287   4.655   0.531   2.368 -0.9153 -0.3406 -0.8142
  306MOL    H7837288   4.551   0.649   2.420 -0.1015 -1.0363 -0.5800
  306MOL    H7937289   4.579   0.784   2.210 -1.2272 -0.2519 -0.6065
  306MOL    C8037290   4.499   0.582   2.152 -0.7234  0.6056  0.6512
  306MOL    C8137291   4.355   0.648   2.156 -0.2821 -0.5484  0.7168
  306MOL    F8237292   4.345   0.758   2.077 -0.3527  0.0135 -0.2123
  306MOL    H8337293   4.523   0.564   2.047 -1.3906  0.3151  0.5463
  306MOL    H8437294   4.490   0.489   2.208  4.2573  0.7574  1.9685
  306MOL    H8537295   4.327   0.677   2.257  1.5876  0.1480  1.0700
  306MOL    C8637296   4.251   0.540   2.110  0.3592 -0.1371 -0.7726
  306MOL    C8737297   4.235   0.412   2.192 -0.2384  0.4265 -0.3114
  306MOL    F8837298   4.222   0.442   2.317 -0.4745  0.5367 -0.2094
  306MOL    H8937299   4.158   0.593   2.092  1.3115  1.7416 -0.2652
  306MOL    H9037300   4.280   0.513   2.009  2.7831 -0.6000  0.0105
  306MOL    H9137301   4.317   0.340   2.193 -2.4905 -2.2601 -1.5729
  306MOL    C9237302   4.100   0.348   2.146 -0.0973 -0.4033 -0.6378
  306MOL    C9337303   4.058   0.227   2.219 -0.0085  0.1944  0.0703
  306MOL    F9437304   3.940   0.208   2.162  0.5449 -0.0798 -0.0775
  306MOL    H9537305   4.021   0.421   2.164 -0.0621 -0.7960  1.1400
  306MOL    H9637306   4.104   0.318   2.041  0.4878 -2.0093 -0.1742
  306MOL    H9737307   4.038   0.240   2.326 -0.1768 -1.3674  0.2495
  306MOL    C9837308   4.139   0.098   2.215 -0.5900 -0.2027  1.2886
  306MOL    C9937309   4.081   7.978   2.284  0.0762 -0.0919 -0.0100
  306MOL   F10037310   4.166   7.882   2.249 -0.1706 -0.2700  0.2337
  306MOL   H10137311   4.137   0.069   2.110 -1.9432  0.6033  1.0780
  306MOL   H10237312   4.242   0.118   2.246 -0.8807  4.0313 -0.1886
  306MOL   H10337313   3.986   7.944   2.243  1.4937 -1.4547 -2.2621
  306MOL   C10437314   4.067   7.989   2.436 -1.3231 -0.2874 -0.4573
  306MOL   C10537315   4.033   7.867   2.511 -0.3638  0.5973  0.2498
  306MOL   F10637316   4.023   7.881   2.639 -1.0918 -0.1983 -0.5468
  306MOL   H10737317   4.165   0.021   2.468 -0.8563 -0.3012 -1.8623
  306MOL   H10837318   4.008   0.075   2.460 -1.0824  0.2341 -1.7765
  306MOL   H10937319   4.097   7.781   2.496 -0.6139  0.0105  2.4101
  306MOL   C11037320   3.885   7.820   2.482 -0.4215  0.1690  0.2253
  306MOL   C11137321   3.763   7.905   2.524  0.4556 -0.3117 -0.0316
  306MOL   F11237322   3.724   7.990   2.425  0.1759 -0.4738  0.3490
  306MOL   H11337323   3.865   7.803   2.376  1.4556  0.3090 -0.1758
  306MOL   H11437324   3.879   7.721   2.527 -1.0894 -0.2997 -0.8977
  306MOL   H11537325   3.794   7.974   2.603 -0.8564  0.4293 -0.1525
  306MOL   C11637326   3.640   7.819   2.576  0.0744  0.0124 -0.0902
  306MOL   C11737327   3.518   7.905   2.621  0.0068 -0.1221 -0.7207
  306MOL   F11837328   3.541   7.945   2.742 -0.3481  1.0046 -0.0397
  306MOL   H11937329   3.608   7.772   2.483  1.1880  0.5733 -0.7761
  306MOL   H12037330   3.674   7.746   2.650  2.7901  0.9661 -0.3378
  306MOL   H12137331   3.424   7.850   2.606 -1.1112  2.5854 -4.3307
  306MOL   H12237332   3.503   7.993   2.558  1.7108  0.5270 -0.2411
  307MOL     C137333   1.312   6.993   1.342  0.8545  0.1431  0.1480
  307MOL     C237334   1.315   6.845   1.312 -0.2470  0.1597 -0.2000
  307MOL     F337335   1.371   6.789   1.425  0.1275  0.1381  0.1643
  307MOL     H437336   1.415   7.027   1.356  0.9288  0.2866 -0.7175
  307MOL     H537337   1.253   7.022   1.429  0.1246  1.6668 -0.8337
  307MOL     H637338   1.376   6.818   1.226  2.1580 -1.3632  1.9056
  307MOL     H737339   1.260   7.055   1.269  1.4066  1.6557  1.0007
  307MOL     C837340   1.179   6.779   1.303  0.1634  0.4126 -0.5689
  307MOL     C937341   1.190   6.627   1.286  0.5663  0.0319 -0.2809
  307MOL    F1037342   1.063   6.585   1.287  0.1911  0.1772 -0.2112
  307MOL    H1137343   1.117   6.802   1.389  0.0912 -0.2142 -0.4566
  307MOL    H1237344   1.134   6.821   1.213  2.2392  1.2940 -1.2425
  307MOL    H1337345   1.249   6.580   1.364  1.7099 -1.2623 -1.8787
  307MOL    C1437346   1.244   6.586   1.148 -0.1248  0.4208 -0.5467
  307MOL    C1537347   1.253   6.427   1.138 -0.3171  0.2100 -0.6393
  307MOL    F1637348   1.272   6.388   1.017 -0.2752 -0.9630 -0.1810
  307MOL    H1737349   1.179   6.637   1.077 -0.8348 -0.1391 -0.2976
  307MOL    H1837350   1.346   6.626   1.145  1.1064 -2.3974  1.4294
  307MOL    H1937351   1.158   6.382   1.165  1.1362 -2.0406  0.9214
  307MOL    C2037352   1.367   6.375   1.226  0.1710  0.1523 -0.3010
  307MOL    C2137353   1.510   6.427   1.226 -0.0510  0.7878  0.5140
  307MOL    F2237354   1.577   6.360   1.313 -0.8234 -0.2519  0.0016
  307MOL    H2337355   1.334   6.376   1.330  0.2590 -1.4312 -0.2346
  307MOL    H2437356   1.371   6.267   1.207 -0.3381  0.0225  0.3081
  307MOL    H2537357   1.513   6.529   1.265 -0.1236  0.9673  0.0433
  307MOL    C2637358   1.578   6.418   1.092  0.5092  0.8077 -0.0905
  307MOL    C2737359   1.707   6.500   1.076 -0.0206  0.6924  0.1282
  307MOL    F2837360   1.677   6.631   1.081  0.0783  0.0337 -0.1343
  307MOL    H2937361   1.598   6.314   1.068  0.7110  0.8013  0.1003
  307MOL    H3037362   1.512   6.455   1.014  0.0020 -0.3187 -0.2064
  307MOL    H3137363   1.738   6.494   0.971 -0.8311  1.6307 -0.1728
  307MOL    C3237364   1.825   6.469   1.169 -0.5668  0.0920 -0.3577
  307MOL    C3337365   1.961   6.538   1.144 -0.4537  0.0961 -0.2141
  307MOL    F3437366   1.956   6.667   1.147 -0.0640 -0.0184  0.4953
  307MOL    H3537367   1.805   6.492   1.273  0.0428  0.7517 -0.3846
  307MOL    H3637368   1.843   6.361   1.172  0.3622  0.1511 -2.6531
  307MOL    H3737369   1.989   6.510   1.043 -0.0502 -0.3173  0.0106
  307MOL    C3837370   2.068   6.487   1.237  0.1254  0.2980 -0.6000
  307MOL    C3937371   2.211   6.548   1.221  0.3519  0.1928 -0.4817
  307MOL    F4037372   2.249   6.539   1.098 -0.0929 -0.4997 -0.1563
  307MOL    H4137373   2.029   6.499   1.338  1.5904  1.4279 -0.1527
  307MOL    H4237374   2.064   6.378   1.226  0.8598  0.2999 -0.9126
  307MOL    H4337375   2.287   6.481   1.262 -0.1427 -1.2245 -1.8212
  307MOL    C4437376   2.216   6.688   1.286  0.5146 -0.1550  0.0537
  307MOL    C4537377   2.359   6.752   1.286 -0.1986 -0.3620 -0.2364
  307MOL    F4637378   2.449   6.673   1.344  0.3250 -0.2516 -0.5210
  307MOL    H4737379   2.140   6.751   1.239 -0.3807 -0.9354  0.4253
  307MOL    H4837380   2.175   6.679   1.387  1.2597 -2.5912  0.1890
  307MOL    H4937381   2.363   6.840   1.351 -0.5372  0.9184 -1.8845
  307MOL    C5037382   2.402   6.797   1.151  0.2658  0.8692 -0.3043
  307MOL    C5137383   2.508   6.910   1.167 -0.3299  0.5676 -0.0882
  307MOL    F5237384   2.613   6.872   1.241  0.1028  0.2257 -0.4123
  307MOL    H5337385   2.447   6.716   1.095 -1.4657 -0.7042  0.5356
  307MOL    H5437386   2.313   6.833   1.098 -1.2127 -1.6330  0.3957
  307MOL    H5537387   2.464   6.992   1.224 -0.3958  1.3866 -1.3144
  307MOL    C5637388   2.569   6.965   1.039 -0.5815  0.1828 -0.6563
  307MOL    C5737389   2.493   6.956   0.900 -0.1362  0.5816 -0.6023
  307MOL    F5837390   2.382   7.025   0.920  0.5622 -0.0189  0.0234
  307MOL    H5937391   2.590   7.071   1.050  2.0957 -0.2328 -1.3635
  307MOL    H6037392   2.668   6.922   1.022 -1.5951 -2.4045 -0.2515
  307MOL    H6137393   2.449   6.859   0.874  1.3093 -0.9170  2.2815
  307MOL    C6237394   2.571   7.010   0.776  0.2710  0.0890  0.7779
  307MOL    C6337395   2.712   6.963   0.750 -0.5630 -1.2014 -0.2600
  307MOL    F6437396   2.715   6.832   0.738  0.0503 -0.1372 -0.0415
  307MOL    H6537397   2.519   6.970   0.689  1.6372 -2.7877  1.2276
  307MOL    H6637398   2.572   7.118   0.780  2.1948  0.1539 -1.1160
  307MOL    H6737399   2.777   6.989   0.834 -0.6620  0.0334 -0.5666
  307MOL    C6837400   2.774   7.024   0.621 -0.0984 -0.6274  0.2427
  307MOL    C6937401   2.803   7.178   0.624 -0.3124  0.4250 -0.4503
  307MOL    F7037402   2.885   7.204   0.722 -0.5053  0.6985 -0.2242
  307MOL    H7137403   2.873   6.984   0.596 -0.3343 -1.4833  0.6327
  307MOL    H7237404   2.716   6.991   0.535 -1.3211 -1.3828  1.3442
  307MOL    H7337405   2.707   7.223   0.645 -0.1151  0.0970  1.1961
  307MOL    C7437406   2.860   7.225   0.487 -0.3492  0.1817  0.7324
  307MOL    C7537407   2.842   7.374   0.464  0.0900 -0.6211  0.7816
  307MOL    F7637408   2.959   7.442   0.506  0.5370  0.7073 -0.8382
  307MOL    H7737409   2.961   7.192   0.461 -0.3817 -1.5426  2.6701
  307MOL    H7837410   2.799   7.175   0.412  1.2291 -1.4793  0.5275
  307MOL    H7937411   2.765   7.417   0.529 -0.0352  0.9572 -0.3998
  307MOL    C8037412   2.813   7.427   0.321  0.0377  0.2041 -0.8610
  307MOL    C8137413   2.660   7.419   0.279  0.3230  0.9426  0.0655
  307MOL    F8237414   2.597   7.505   0.358  0.5480  0.2346  0.1289
  307MOL    H8337415   2.838   7.533   0.313  0.6457  0.1607  0.2848
  307MOL    H8437416   2.880   7.372   0.255 -0.4644  1.5354 -2.5184
  307MOL    H8537417   2.639   7.316   0.311  0.3657  0.8538 -0.1878
  307MOL    C8637418   2.624   7.449   0.132 -0.1239 -0.4490  0.4966
  307MOL    C8737419   2.668   7.336   0.035 -0.3735 -0.5484  0.1799
  307MOL    F8837420   2.605   7.221   0.050  0.5511  0.3399  0.1589
  307MOL    H8937421   2.517   7.467   0.125  0.3515  1.9326 -0.8059
  307MOL    H9037422   2.663   7.546   0.103 -0.6916 -0.8119 -1.5487
  307MOL    H9137423   2.776   7.321   0.040 -0.3157 -0.2852 -0.2467
  307MOL    C9237424   2.649   7.368   7.888  0.5156  0.3984  0.9176
  307MOL    C9337425   2.504   7.379   7.838  0.1741 -0.6961 -0.6183
  307MOL    F9437426   2.434   7.472   7.905  0.4140 -0.2363 -0.0329
  307MOL    H9537427   2.696   7.459   7.851  1.8618 -0.8401 -0.4755
  307MOL    H9637428   2.692   7.288   7.828  1.1363  1.6531 -0.3464
  307MOL    H9737429   2.452   7.288   7.865  0.6206 -1.0499 -0.9433
  307MOL    C9837430   2.489   7.389   7.684  0.6245 -0.2482 -0.1518
  307MOL    C9937431   2.364   7.345   7.621  0.3327 -0.6480  0.0116
  307MOL   F10037432   2.262   7.410   7.666  0.2745 -0.1915  0.0929
  307MOL   H10137433   2.503   7.493   7.657 -2.2331  0.7543  1.9909
  307MOL   H10237434   2.567   7.326   7.640 -0.6760 -3.0881  1.4898
  307MOL   H10337435   2.349   7.240   7.646 -0.5317 -0.2304  1.3395
  307MOL   C10437436   2.367   7.364   7.468 -0.3882 -0.2230 -0.1928
  307MOL   C10537437   2.239   7.302   7.406  0.0262  0.1201  0.2982
  307MOL   F10637438   2.134   7.375   7.435 -0.8746  0.0192 -0.7615
  307MOL   H10737439   2.365   7.472   7.455 -0.6498 -0.2426 -0.3369
  307MOL   H10837440   2.458   7.318   7.431 -0.3709 -0.9726  0.7649
  307MOL   H10937441   2.222   7.205   7.451  2.2991 -0.5112 -0.1500
  307MOL   C11037442   2.257   7.293   7.256 -0.3544 -0.5562  0.4841
  307MOL   C11137443   2.185   7.185   7.186  0.2852  0.6214 -0.0967
  307MOL   F11237444   2.251   7.072   7.216 -0.0713 -0.2277 -0.5183
  307MOL   H11337445   2.230   7.391   7.216 -0.0141 -0.8983 -0.6218
  307MOL   H11437446   2.362   7.276   7.231 -0.0526  1.3112  0.4464
  307MOL   H11537447   2.194   7.213   7.081 -0.5892  1.7193  0.1073
  307MOL   C11637448   2.033   7.164   7.222 -0.2015 -0.5537 -0.3456
  307MOL   C11737449   1.938   7.111   7.126  0.6377  0.8231 -0.4931
  307MOL   F11837450   1.943   7.197   7.022 -0.2458  0.8202  0.4160
  307MOL   H11937451   2.034   7.095   7.307  2.0949 -0.1769 -0.0331
  307MOL   H12037452   1.997   7.256   7.268  0.4587  0.3800 -1.6573
  307MOL   H12137453   1.843   7.123   7.178  0.5147  0.1880 -0.5623
  307MOL   H12237454   1.958   7.015   7.079  1.6315  1.0775 -0.5974
  308MOL     C137455   7.005   7.867   2.297  0.4543  0.5119  0.2119
  308MOL     C237456   7.066   7.939   2.181 -0.3419  0.3980  0.4469
  308MOL     F337457   7.188   7.983   2.221 -0.0473  0.8164 -0.5480
  308MOL     H437458   7.009   7.921   2.392  2.3195  0.7982  0.0044
  308MOL     H537459   7.048   7.769   2.314 -1.7207 -0.0300  2.9538
  308MOL     H637460   7.009   0.028   2.166  0.0723  0.3353 -1.7594
  308MOL     H737461   6.897   7.869   2.284  0.2281  0.0139  1.8750
  308MOL     C837462   7.088   7.841   2.058  0.4608 -0.5286 -0.5072
  308MOL     C937463   7.190   7.891   1.960  0.3042 -0.2944 -0.2573
  308MOL    F1037464   7.212   7.783   1.885  0.0316 -0.3296 -0.0987
  308MOL    H1137465   7.119   7.741   2.088  0.7873  0.1339  1.4677
  308MOL    H1237466   6.993   7.838   2.003 -0.6929 -0.0163  1.3996
  308MOL    H1337467   7.281   7.905   2.020  0.0563  0.4464 -0.0507
  308MOL    C1437468   7.148   0.018   1.886 -0.0005 -0.0064 -0.4866
  308MOL    C1537469   7.264   0.071   1.812  0.0647 -0.3272 -0.0815
  308MOL    F1637470   7.198   0.145   1.719  0.1662 -0.6055 -0.0848
  308MOL    H1737471   7.072   7.992   1.813  0.5633  0.5172 -1.2831
  308MOL    H1837472   7.107   0.093   1.953  0.0629 -0.4828  0.0921
  308MOL    H1937473   7.326   7.997   1.765  2.3085  2.3945 -1.8025
  308MOL    C2037474   7.352   0.167   1.890 -0.1651  0.1107 -0.2225
  308MOL    C2137475   7.485   0.211   1.829  0.1600 -0.2240 -0.2552
  308MOL    F2237476   7.475   0.254   1.706  0.5494 -0.6269  0.4909
  308MOL    H2337477   7.290   0.251   1.924 -2.0131 -1.2480 -0.1657
  308MOL    H2437478   7.378   0.119   1.984  1.5046 -0.9441 -1.2053
  308MOL    H2537479   7.550   0.124   1.818 -0.1870 -0.4783 -0.2999
  308MOL    C2637480   7.555   0.317   1.916  0.4296 -0.3659  0.0866
  308MOL    C2737481   7.707   0.325   1.882  0.2274  0.1297  0.6441
  308MOL    F2837482   7.721   0.335   1.753  0.2595  0.2326 -0.6695
  308MOL    H2937483   7.513   0.417   1.906 -0.6882 -0.6568  1.6824
  308MOL    H3037484   7.551   0.291   2.022 -1.2158  0.9670  0.3700
  308MOL    H3137485   7.763   0.235   1.906  2.3769  1.7521  1.8741
  308MOL    C3237486   7.767   0.440   1.956  0.3144 -0.2814  0.3474
  308MOL    C3337487   7.916   0.446   1.964  0.1502 -0.9801 -0.5510
  308MOL    F3437488   7.954   0.568   2.008 -0.0503  0.0358  0.2226
  308MOL    H3537489   7.737   0.527   1.897  2.0382  1.9652  2.6717
  308MOL    H3637490   7.728   0.441   2.058 -2.2762  0.4617 -0.5909
  308MOL    H3737491   7.956   0.437   1.863 -0.1173 -0.1132 -0.7412
  308MOL    C3837492   7.988   0.339   2.049  0.3860 -0.5049 -0.2503
  308MOL    C3937493   0.145   0.358   2.058  0.4087 -0.5819  0.5103
  308MOL    F4037494   0.192   0.250   2.126 -0.6083 -0.7845  0.1722
  308MOL    H4137495   7.956   0.327   2.152  0.6803 -1.9717 -0.3121
  308MOL    H4237496   7.962   0.241   2.009  2.4624 -0.5653 -1.5554
  308MOL    H4337497   0.178   0.448   2.110 -0.2042 -0.1039  0.0775
  308MOL    C4437498   0.215   0.353   1.920 -1.1648 -0.6228 -0.1032
  308MOL    C4537499   0.368   0.372   1.930  0.0469 -0.3252 -0.2571
  308MOL    F4637500   0.431   0.365   1.813 -0.3375 -0.3977 -0.0439
  308MOL    H4737501   0.187   0.254   1.883 -0.3057 -0.0258 -2.3777
  308MOL    H4837502   0.174   0.436   1.863  0.3374  1.2882  1.5352
  308MOL    H4937503   0.417   0.296   1.990  1.8846  0.7597 -0.3454
  308MOL    C5037504   0.423   0.490   2.000  0.6108  0.1109  0.6419
  308MOL    C5137505   0.384   0.632   1.945 -0.1612  0.3233 -0.1447
  308MOL    F5237506   0.251   0.647   1.961 -0.2096  0.0158 -0.2883
  308MOL    H5337507   0.398   0.481   2.105  0.9037  2.6890  0.9620
  308MOL    H5437508   0.531   0.477   1.989  0.4677  0.1193 -0.8444
  308MOL    H5537509   0.409   0.621   1.840 -0.4482  1.9267 -0.3961
  308MOL    C5637510   0.465   0.736   2.023  1.1243  0.0081 -0.4652
  308MOL    C5737511   0.457   0.885   1.978  0.0218  0.1447 -0.1645
  308MOL    F5837512   0.525   0.955   2.077  0.1469 -0.0320  0.0052
  308MOL    H5937513   0.451   0.721   2.130  0.4322 -1.4966 -0.7616
  308MOL    H6037514   0.569   0.703   2.016  1.5273  0.8016  1.4330
  308MOL    H6137515   0.350   0.903   1.987  0.1424 -0.8394  3.8236
  308MOL    C6237516   0.522   0.913   1.838  0.3686 -0.3958 -0.6077
  308MOL    C6337517   0.446   1.033   1.785  0.8668  0.3268 -0.4009
  308MOL    F6437518   0.436   1.133   1.873 -0.1371 -0.5792  1.0716
  308MOL    H6537519   0.630   0.920   1.834  0.5307 -1.2939  1.4533
  308MOL    H6637520   0.512   0.821   1.781 -0.7193 -1.4024  1.1578
  308MOL    H6737521   0.343   1.006   1.762  1.1251 -0.9644 -0.0814
  308MOL    C6837522   0.519   1.094   1.656  0.2128  0.3897 -0.1607
  308MOL    C6937523   0.513   1.006   1.538  0.3783  0.2711 -0.0011
  308MOL    F7037524   0.388   1.011   1.492 -0.0789  0.6895  0.4230
  308MOL    H7137525   0.467   1.186   1.630 -0.7739 -0.4230 -1.0564
  308MOL    H7237526   0.622   1.113   1.687  0.8768 -1.1892 -1.3792
  308MOL    H7337527   0.517   0.904   1.577 -0.6020  0.5078  0.7465
  308MOL    C7437528   0.609   1.055   1.429  0.1846 -0.0166  0.3355
  308MOL    C7537529   0.638   0.949   1.324 -0.2228 -0.1744 -0.1793
  308MOL    F7637530   0.528   0.913   1.259  0.3419  0.5217 -0.0458
  308MOL    H7737531   0.563   1.144   1.387  2.8544  0.8793 -0.8074
  308MOL    H7837532   0.703   1.079   1.478 -0.1737  0.0963  0.9728
  308MOL    H7937533   0.669   0.863   1.383  3.0689  0.0490 -1.4724
  308MOL    C8037534   0.739   0.985   1.217 -0.4589 -0.3707 -0.5002
  308MOL    C8137535   0.787   0.864   1.130 -0.6918  0.1168 -0.6405
  308MOL    F8237536   0.894   0.902   1.062  0.0449 -0.1979  0.4937
  308MOL    H8337537   0.687   1.056   1.153 -0.3853 -0.8844 -1.1381
  308MOL    H8437538   0.829   1.035   1.253 -0.0230 -1.9937  0.7193
  308MOL    H8537539   0.720   0.852   1.045 -0.0328  1.4739 -1.3669
  308MOL    C8637540   0.827   0.729   1.203 -0.1256  0.3025 -0.0854
  308MOL    C8737541   0.889   0.617   1.112 -0.0118 -0.0584  0.3995
  308MOL    F8837542   0.899   0.510   1.184  0.3630 -0.3533  0.1576
  308MOL    H8937543   0.903   0.748   1.279  0.1284 -1.2591  0.0733
  308MOL    H9037544   0.739   0.696   1.258  0.1253 -0.3908 -0.0920
  308MOL    H9137545   0.985   0.659   1.080 -0.4197  1.7541  1.5091
  308MOL    C9237546   0.817   0.575   0.985  0.0907 -0.0483 -0.3049
  308MOL    C9337547   0.863   0.437   0.915 -0.1467 -0.7466  0.3755
  308MOL    F9437548   0.781   0.398   0.814  0.4291 -0.0943 -0.8812
  308MOL    H9537549   0.708   0.577   0.995  0.3278  2.7387  2.1002
  308MOL    H9637550   0.830   0.657   0.914  0.4112 -0.4863 -0.7611
  308MOL    H9737551   0.856   0.364   0.996 -0.7137 -0.8635  0.2250
  308MOL    C9837552   1.013   0.427   0.880  0.1952  0.0875  0.2198
  308MOL    C9937553   1.065   0.284   0.851  0.4732 -0.0053 -0.0481
  308MOL   F10037554   1.001   0.233   0.746  0.2667  0.3563 -0.4726
  308MOL   H10137555   1.053   0.490   0.800 -0.1794  1.2095  0.9149
  308MOL   H10237556   1.066   0.466   0.966 -1.1545 -0.1323  1.1678
  308MOL   H10337557   1.034   0.227   0.939 -2.0485 -0.1163 -0.9658
  308MOL   C10437558   1.221   0.265   0.844 -0.2527  0.2797 -0.0212
  308MOL   C10537559   1.268   0.120   0.837  0.3360 -0.3608  0.4719
  308MOL   F10637560   1.249   0.076   0.709  0.3661 -0.3695 -0.0692
  308MOL   H10737561   1.257   0.320   0.757  1.2363  0.0707  0.4403
  308MOL   H10837562   1.256   0.319   0.933 -1.5999 -3.5884  2.9755
  308MOL   H10937563   1.210   0.055   0.902  0.3509 -0.4320  0.4140
  308MOL   C11037564   1.408   0.108   0.882 -0.5302  0.8181 -0.2774
  308MOL   C11137565   1.512   0.207   0.820  0.3603 -0.1116 -0.2471
  308MOL   F11237566   1.512   0.310   0.902  0.3294  0.6307 -0.0195
  308MOL   H11337567   1.420   0.113   0.990 -1.7072  0.1678 -0.1131
  308MOL   H11437568   1.447   0.015   0.842  0.6349  2.8615 -4.1150
  308MOL   H11537569   1.495   0.246   0.720 -0.1528  0.8304  0.1984
  308MOL   C11637570   1.662   0.165   0.827 -0.3260  0.0929  0.0089
  308MOL   C11737571   1.761   0.276   0.799 -0.2264 -0.3650  0.2151
  308MOL   F11837572   1.883   0.234   0.824 -0.1872  0.1626 -0.1156
  308MOL   H11937573   1.684   0.116   0.922  0.9718 -0.9423 -0.8060
  308MOL   H12037574   1.681   0.083   0.758  1.8995  0.8982 -0.3843
  308MOL   H12137575   1.739   0.364   0.860 -1.2567 -0.0639 -0.5752
  308MOL   H12237576   1.754   0.301   0.693 -1.6082 -0.4013  0.2798
  309MOL     C137577   1.349   7.753   7.500 -0.6357 -0.2826  0.8440
  309MOL     C237578   1.297   7.617   7.445 -0.1117 -0.0489 -0.1200
  309MOL     F337579   1.268   7.642   7.316 -0.1454  0.4593 -0.2200
  309MOL     H437580   1.270   7.826   7.485 -1.4669 -1.3892 -0.2142
  309MOL     H537581   1.437   7.800   7.457 -1.6570  0.7233 -0.1873
  309MOL     H637582   1.201   7.593   7.490  0.4099  0.3155  1.2251
  309MOL     H737583   1.370   7.746   7.607 -1.4193 -2.5520  0.8710
  309MOL     C837584   1.404   7.501   7.459 -0.1459 -0.2821  0.0551
  309MOL     C937585   1.434   7.455   7.604 -0.1401 -0.3540  0.0728
  309MOL    F1037586   1.316   7.398   7.639 -0.4371  0.3829  0.2429
  309MOL    H1137587   1.371   7.419   7.396 -0.0850  1.1262 -1.8717
  309MOL    H1237588   1.497   7.526   7.408 -1.5422  0.8393 -2.0028
  309MOL    H1337589   1.456   7.533   7.677  0.0790 -1.3666  1.0907
  309MOL    C1437590   1.544   7.346   7.625 -0.5225 -0.0226 -1.4140
  309MOL    C1537591   1.690   7.403   7.612 -0.4204  0.6901  0.7900
  309MOL    F1637592   1.722   7.500   7.703 -0.3975 -0.5980  0.1841
  309MOL    H1737593   1.545   7.300   7.724  1.7502  0.4020 -1.1961
  309MOL    H1837594   1.536   7.263   7.555 -1.2407 -0.1543 -1.1753
  309MOL    H1937595   1.697   7.472   7.527 -0.8776 -1.6884 -1.2358
  309MOL    C2037596   1.800   7.294   7.609  0.7240  0.1325  0.1669
  309MOL    C2137597   1.827   7.228   7.742 -0.7677  0.1459 -0.2821
  309MOL    F2237598   1.737   7.132   7.769  0.1561  0.2287 -0.4033
  309MOL    H2337599   1.768   7.215   7.541 -0.3712  2.2357 -1.8116
  309MOL    H2437600   1.891   7.335   7.566 -0.0926  0.1797 -1.5546
  309MOL    H2537601   1.820   7.295   7.828 -0.7914 -1.6178  1.1239
  309MOL    C2637602   1.964   7.155   7.753 -0.0462 -0.4087 -0.2486
  309MOL    C2737603   2.015   7.121   7.885 -0.2052  1.1871 -0.0671
  309MOL    F2837604   2.125   7.039   7.857 -0.3012  0.2878 -0.0293
  309MOL    H2937605   1.961   7.064   7.692  1.0422  1.6715 -3.5665
  309MOL    H3037606   2.036   7.222   7.705 -0.8314  0.3785 -0.3323
  309MOL    H3137607   1.939   7.068   7.941  0.6329 -0.6500 -0.6362
  309MOL    C3237608   2.071   7.228   7.963 -0.2135  0.2743 -0.3227
  309MOL    C3337609   2.111   7.182   0.102 -0.1301 -0.4121  0.8235
  309MOL    F3437610   2.001   7.132   0.156  0.5619  0.4294 -0.3653
  309MOL    H3537611   2.153   7.278   7.912  0.5295 -0.4744  0.1348
  309MOL    H3637612   1.991   7.302   7.953 -0.5597 -0.2987 -2.0086
  309MOL    H3737613   2.118   7.276   0.157  0.0235  0.2928 -0.3869
  309MOL    C3837614   2.228   7.085   0.125  0.9465  0.1548  0.0368
  309MOL    C3937615   2.261   7.060   0.273 -0.0026 -0.0859  0.1402
  309MOL    F4037616   2.326   6.946   0.271 -0.1177 -0.0332 -0.4308
  309MOL    H4137617   2.195   6.993   0.076  1.6829 -0.4050  0.5762
  309MOL    H4237618   2.317   7.109   0.067  0.9317 -0.2454 -0.1598
  309MOL    H4337619   2.168   7.040   0.326  0.2718  0.6430  0.9148
  309MOL    C4437620   2.343   7.169   0.340  0.5401 -0.7893 -0.1652
  309MOL    C4537621   2.384   7.140   0.483  0.4358  0.1669  0.6982
  309MOL    F4637622   2.465   7.237   0.523 -0.2101  0.2449 -0.0935
  309MOL    H4737623   2.432   7.176   0.278  0.6619 -1.1159 -0.0231
  309MOL    H4837624   2.297   7.268   0.330  2.0965  0.1400  1.5200
  309MOL    H4937625   2.443   7.049   0.495 -0.3826 -0.5085 -0.3803
  309MOL    C5037626   2.275   7.128   0.587  0.6840  0.2276  0.3852
  309MOL    C5137627   2.217   7.261   0.632  0.3723 -0.1088 -0.7694
  309MOL    F5237628   2.139   7.312   0.543  0.5716 -0.3005  0.0578
  309MOL    H5337629   2.193   7.061   0.558  0.1315  0.9070  0.3727
  309MOL    H5437630   2.322   7.074   0.670 -1.9463 -0.7760  1.2726
  309MOL    H5537631   2.298   7.333   0.645  0.2711  0.0423 -0.9653
  309MOL    C5637632   2.137   7.250   0.765  0.7130  0.1916  0.2409
  309MOL    C5737633   2.061   7.374   0.816  0.8238 -0.6818 -0.0483
  309MOL    F5837634   1.996   7.347   0.932  0.2391 -0.1925 -0.0888
  309MOL    H5937635   2.065   7.172   0.740  2.2208 -1.2479  0.3173
  309MOL    H6037636   2.208   7.229   0.845  1.2154  0.7884 -0.0431
  309MOL    H6137637   1.994   7.411   0.738  1.3092 -2.1862 -1.2123
  309MOL    C6237638   2.153   7.493   0.847 -0.4671  0.3288 -0.4577
  309MOL    C6337639   2.088   7.610   0.904 -0.1582 -0.4279 -0.1737
  309MOL    F6437640   2.186   7.685   0.958  0.0903 -0.2372  0.2292
  309MOL    H6537641   2.237   7.473   0.913 -1.9842 -1.4707  1.0208
  309MOL    H6637642   2.199   7.524   0.754 -1.9810  0.9806 -1.0002
  309MOL    H6737643   2.034   7.579   0.993 -1.4824 -1.0764 -1.1697
  309MOL    C6837644   2.011   7.686   0.798  0.0792  0.2506  0.4410
  309MOL    C6937645   1.935   7.811   0.844  0.3329  0.4970  0.2942
  309MOL    F7037646   1.879   7.879   0.745  0.4219  0.3034  0.2594
  309MOL    H7137647   2.075   7.701   0.711 -0.6321 -2.1125 -0.5352
  309MOL    H7237648   1.937   7.615   0.761  2.0018 -1.1414 -0.8958
  309MOL    H7337649   2.015   7.878   0.876  2.4503 -0.5443 -2.5882
  309MOL    C7437650   1.834   7.784   0.953  0.4822  0.2358  0.0198
  309MOL    C7537651   1.713   7.688   0.909  0.0684 -0.5039 -0.4754
  309MOL    F7637652   1.756   7.566   0.890  0.6268  0.0439 -0.1451
  309MOL    H7737653   1.875   7.736   1.042 -1.9060  0.4061  1.2577
  309MOL    H7837654   1.805   7.882   0.990  0.1406  0.0093  0.3589
  309MOL    H7937655   1.679   7.732   0.815  0.1183  2.3265  0.7676
  309MOL    C8037656   1.601   7.685   1.015 -0.2800 -0.1552  0.7651
  309MOL    C8137657   1.467   7.640   0.961  0.1293  0.3770 -0.4464
  309MOL    F8237658   1.424   7.735   0.877 -0.2209 -0.5412 -0.1180
  309MOL    H8337659   1.629   7.624   1.102  2.9292  2.7455  1.8835
  309MOL    H8437660   1.583   7.787   1.049  0.6022 -0.6687  2.8817
  309MOL    H8537661   1.387   7.647   1.035 -0.7862 -0.3043 -1.3576
  309MOL    C8637662   1.451   7.498   0.911 -0.0703  0.6381  0.1990
  309MOL    C8737663   1.497   7.392   1.016 -0.2078 -0.5396  0.1644
  309MOL    F8837664   1.440   7.415   1.135 -0.0399 -0.1003 -0.2130
  309MOL    H8937665   1.346   7.481   0.885  0.4817  0.1598 -1.8189
  309MOL    H9037666   1.515   7.483   0.824 -0.6495  2.6756 -0.6247
  309MOL    H9137667   1.604   7.381   1.036  0.1180  0.5208 -0.9047
  309MOL    C9237668   1.452   7.251   0.963 -0.1500 -0.1591  0.5251
  309MOL    C9337669   1.483   7.128   1.046  0.1732 -0.0879  0.3556
  309MOL    F9437670   1.398   7.041   0.990  0.2064 -0.1345 -0.3702
  309MOL    H9537671   1.344   7.250   0.955 -0.1020  0.9212 -0.3542
  309MOL    H9637672   1.488   7.239   0.861  1.6171  1.6852  0.8897
  309MOL    H9737673   1.435   7.151   1.141 -0.8536 -0.7651 -0.0006
  309MOL    C9837674   1.628   7.084   1.052 -0.4414  0.2231 -0.2163
  309MOL    C9937675   1.677   7.002   0.934 -0.8526 -0.2593 -0.3205
  309MOL   F10037676   1.675   7.089   0.831  0.3283  0.1566 -0.1682
  309MOL   H10137677   1.698   7.166   1.068  1.4705 -1.2830 -0.6281
  309MOL   H10237678   1.621   7.023   1.142  1.7662  0.1492 -0.0567
  309MOL   H10337679   1.602   6.925   0.914 -1.7527 -0.6253  4.0517
  309MOL   C10437680   1.822   6.957   0.954 -0.1825 -0.1820 -0.2303
  309MOL   C10537681   1.882   6.886   0.830 -0.2531  0.5787 -1.1591
  309MOL   F10637682   1.904   6.970   0.731  0.4004  0.7016  0.7659
  309MOL   H10737683   1.890   7.040   0.975 -1.2795  0.5821  0.3690
  309MOL   H10837684   1.826   6.891   1.041  0.3696  1.1074  0.7425
  309MOL   H10937685   1.822   6.805   0.789  0.3619  0.8530 -2.6375
  309MOL   C11037686   2.022   6.827   0.864  0.4831  0.6414  0.6604
  309MOL   C11137687   2.093   6.752   0.752  0.3468 -0.3831  0.7211
  309MOL   F11237688   2.226   6.712   0.784  0.1631  0.0220 -0.1313
  309MOL   H11337689   2.092   6.901   0.905  0.7637 -0.4005  2.0802
  309MOL   H11437690   2.004   6.759   0.946 -0.3798  0.6163  0.4533
  309MOL   H11537691   2.108   6.823   0.670  0.4641  0.3085  1.3303
  309MOL   C11637692   2.009   6.625   0.723  0.2712 -0.4105 -0.3563
  309MOL   C11737693   2.090   6.503   0.677  0.6081 -0.3672 -0.5104
  309MOL   F11837694   2.005   6.415   0.624  0.0401 -0.1894 -0.6156
  309MOL   H11937695   1.956   6.595   0.813  0.0107 -0.8444 -0.6563
  309MOL   H12037696   1.923   6.657   0.664 -0.8325 -1.1845  0.8087
  309MOL   H12137697   2.151   6.445   0.747 -0.1468 -4.0967 -2.7638
  309MOL   H12237698   2.150   6.530   0.591 -1.5218  1.5468 -1.4242
  310MOL     C137699   1.883   1.753   1.307  0.1481  0.3454  0.7482
  310MOL     C237700   2.004   1.688   1.364 -0.0473 -0.5906  0.2938
  310MOL     F337701   2.005   1.562   1.328 -0.2605  0.1107  0.0253
  310MOL     H437702   1.792   1.697   1.328  1.0829 -0.7621  1.9458
  310MOL     H537703   1.890   1.788   1.204 -3.3999 -0.5587  0.1326
  310MOL     H637704   1.998   1.693   1.473  0.8604 -2.4124  0.4448
  310MOL     H737705   1.870   1.850   1.354 -1.2453 -0.1711  1.4609
  310MOL     C837706   2.141   1.754   1.329 -0.9957 -0.0333 -1.0473
  310MOL     C937707   2.251   1.737   1.442 -0.4597  0.1136 -0.0383
  310MOL    F1037708   2.206   1.790   1.558 -0.1865  0.1647 -0.7355
  310MOL    H1137709   2.183   1.715   1.236 -1.0623 -2.5150 -0.0861
  310MOL    H1237710   2.131   1.862   1.324 -0.1978  0.0842 -0.2487
  310MOL    H1337711   2.335   1.798   1.405 -0.8055 -0.4034 -1.7350
  310MOL    C1437712   2.297   1.594   1.475 -0.2103 -0.2914  0.5921
  310MOL    C1537713   2.381   1.578   1.598  0.0533  0.0138  0.0210
  310MOL    F1637714   2.386   1.459   1.655 -0.4831 -0.4083  0.0867
  310MOL    H1737715   2.206   1.538   1.499  0.7117 -1.6311  0.9793
  310MOL    H1837716   2.346   1.540   1.395  0.1164  0.5457  0.2181
  310MOL    H1937717   2.333   1.638   1.676 -0.1282 -0.7421  0.5036
  310MOL    C2037718   2.525   1.624   1.565 -0.0617  0.4746  0.0203
  310MOL    C2137719   2.611   1.655   1.692  0.4426  0.2792  0.1318
  310MOL    F2237720   2.650   1.548   1.749 -0.7884 -0.6085  0.0383
  310MOL    H2337721   2.584   1.541   1.526  0.2828  0.1471  1.2242
  310MOL    H2437722   2.513   1.704   1.492 -2.0862 -1.1928 -1.5430
  310MOL    H2537723   2.546   1.699   1.767 -1.5098 -0.9057 -0.8223
  310MOL    C2637724   2.733   1.740   1.665 -0.3151 -0.8617  0.4978
  310MOL    C2737725   2.696   1.889   1.631 -0.4889 -0.5058 -0.6562
  310MOL    F2837726   2.600   1.927   1.715  0.2468 -0.1332 -0.2925
  310MOL    H2937727   2.786   1.748   1.759 -0.7646 -0.0401  0.6852
  310MOL    H3037728   2.802   1.690   1.597 -0.3009  0.2697 -0.3416
  310MOL    H3137729   2.649   1.895   1.533 -0.7790  2.3838 -0.3730
  310MOL    C3237730   2.823   1.989   1.630 -0.6307  0.4988  0.2838
  310MOL    C3337731   2.944   1.937   1.550 -0.1677 -0.0367 -0.1230
  310MOL    F3437732   2.894   1.886   1.437  0.4804  0.1930  0.2651
  310MOL    H3537733   2.786   2.086   1.597 -0.6429  0.5006  0.3029
  310MOL    H3637734   2.860   2.010   1.730  0.4252 -1.3215  0.3111
  310MOL    H3737735   2.976   1.843   1.597 -0.2470 -0.9729 -1.9166
  310MOL    C3837736   3.059   2.044   1.525  0.2541  0.5182  0.1754
  310MOL    C3937737   3.135   2.099   1.648  0.4727  0.3892 -0.5577
  310MOL    F4037738   3.205   1.999   1.692  0.3585  0.1243  0.2298
  310MOL    H4137739   3.132   2.006   1.454  0.0707 -0.3919  0.4584
  310MOL    H4237740   2.999   2.126   1.485  1.5304  1.3779  0.0245
  310MOL    H4337741   3.063   2.133   1.722  0.3268  1.5750 -1.2374
  310MOL    C4437742   3.230   2.213   1.601  0.2081 -0.1030 -0.2599
  310MOL    C4537743   3.291   2.294   1.724  0.4082  0.5421 -0.0382
  310MOL    F4637744   3.190   2.333   1.805  0.0515  0.0198 -0.0624
  310MOL    H4737745   3.310   2.190   1.530 -1.0394 -1.0058 -1.3929
  310MOL    H4837746   3.161   2.275   1.544  0.8242 -0.3845 -1.3137
  310MOL    H4937747   3.319   2.394   1.692  2.0408 -0.2909 -1.3048
  310MOL    C5037748   3.408   2.227   1.804  0.4098  0.7367 -0.5621
  310MOL    C5137749   3.544   2.232   1.736 -0.6395 -1.0444 -0.6307
  310MOL    F5237750   3.567   2.358   1.701  0.1316  0.1824 -0.1816
  310MOL    H5337751   3.432   2.289   1.891  0.0277 -0.4157  0.3763
  310MOL    H5437752   3.363   2.130   1.829  0.2551  0.1848 -2.9215
  310MOL    H5537753   3.542   2.172   1.645  0.6755 -1.2710 -0.5106
  310MOL    C5637754   3.654   2.180   1.833  0.3469 -0.4455  0.5921
  310MOL    C5737755   3.649   2.025   1.855  0.4268  0.3056  0.3563
  310MOL    F5837756   3.681   1.973   1.739 -0.2396  0.0633 -0.2839
  310MOL    H5937757   3.749   2.187   1.780 -0.1746 -1.5148 -0.5056
  310MOL    H6037758   3.662   2.234   1.927 -2.1149  1.0011  0.0043
  310MOL    H6137759   3.550   1.988   1.881  1.4336 -2.5464  0.3216
  310MOL    C6237760   3.753   1.976   1.958  0.5755 -0.3718 -0.3572
  310MOL    C6337761   3.734   2.033   2.101 -0.1275 -0.1004  0.7308
  310MOL    F6437762   3.609   2.004   2.129 -0.1413 -0.3965 -0.2079
  310MOL    H6537763   3.731   1.870   1.969  1.6345 -0.5474  0.1547
  310MOL    H6637764   3.854   1.991   1.919  0.8489 -0.1956  0.4067
  310MOL    H6737765   3.755   2.139   2.115  0.2562  0.0436 -0.8257
  310MOL    C6837766   3.826   1.970   2.206 -0.2628  0.1859  0.0269
  310MOL    C6937767   3.840   2.040   2.342  0.1498  0.1434  0.3104
  310MOL    F7037768   3.734   2.119   2.361  0.7852 -0.0533 -0.5967
  310MOL    H7137769   3.794   1.866   2.219  1.0239 -0.0529  1.5183
  310MOL    H7237770   3.928   1.969   2.168 -0.2797  1.1932 -0.0410
  310MOL    H7337771   3.916   2.116   2.327  0.5582 -0.2031  0.5906
  310MOL    C7437772   3.871   1.954   2.461  0.2919  0.1268  0.4485
  310MOL    C7537773   4.026   1.928   2.481  0.0958 -0.0242  0.2135
  310MOL    F7637774   4.070   1.851   2.381 -0.0675  0.4524  0.1633
  310MOL    H7737775   3.814   1.995   2.545  1.1580  2.5068 -0.1004
  310MOL    H7837776   3.819   1.858   2.452 -1.8550  1.2964  0.0545
  310MOL    H7937777   4.021   1.871   2.574 -2.9787  0.4446  0.3668
  310MOL    C8037778   4.110   2.055   2.511  0.6346  0.0030  0.2644
  310MOL    C8137779   4.250   2.020   2.574 -0.1746 -0.1258  0.4020
  310MOL    F8237780   4.229   1.971   2.695 -0.2159 -0.8006  0.4168
  310MOL    H8337781   4.122   2.103   2.414 -2.2891  0.3736  0.0251
  310MOL    H8437782   4.051   2.126   2.570 -1.5765 -0.9219 -0.7889
  310MOL    H8537783   4.294   2.119   2.589 -0.9333  0.5172 -1.5439
  310MOL    C8637784   4.342   1.938   2.487  0.5592 -0.3308 -0.0220
  310MOL    C8737785   4.487   1.925   2.531 -0.1425  0.0411 -0.1037
  310MOL    F8837786   4.489   1.847   2.634  0.4158  0.0418 -0.5889
  310MOL    H8937787   4.307   1.837   2.465  0.2590  0.1397 -1.7827
  310MOL    H9037788   4.343   1.996   2.395  2.0596 -1.9877 -1.0655
  310MOL    H9137789   4.519   2.025   2.562 -1.4178  0.2229  0.6534
  310MOL    C9237790   4.582   1.875   2.423 -0.3182 -0.0312  0.5536
  310MOL    C9337791   4.733   1.888   2.466 -0.1141  0.0422 -0.0037
  310MOL    F9437792   4.752   1.791   2.554 -0.0834 -0.6839 -0.1773
  310MOL    H9537793   4.562   1.771   2.400 -1.5168 -0.0872  1.7988
  310MOL    H9637794   4.572   1.939   2.335 -3.3228 -0.6522  0.4157
  310MOL    H9737795   4.734   1.985   2.514 -2.1554  0.4450 -0.7243
  310MOL    C9837796   4.818   1.873   2.349  0.4818 -0.0195  0.5003
  310MOL    C9937797   4.964   1.921   2.370  0.2307  0.4984  0.1270
  310MOL   F10037798   4.965   2.042   2.416  0.1061  0.4098 -0.0757
  310MOL   H10137799   4.824   1.771   2.311  2.2594 -0.1037  0.9904
  310MOL   H10237800   4.771   1.939   2.276 -1.2971 -1.2453  0.4954
  310MOL   H10337801   5.008   1.914   2.271  0.8532 -0.9991  0.4891
  310MOL   C10437802   5.037   1.846   2.485 -0.2175  0.7655  0.2096
  310MOL   C10537803   5.050   1.691   2.447  0.2765 -0.0942 -0.5037
  310MOL   F10637804   5.091   1.688   2.325 -0.1385 -0.3615 -0.2756
  310MOL   H10737805   5.140   1.877   2.501  0.8797 -2.9428  0.6096
  310MOL   H10837806   4.982   1.861   2.578 -0.2619  0.6590  0.2001
  310MOL   H10937807   4.958   1.634   2.443  1.4443 -2.1884  1.3320
  310MOL   C11037808   5.149   1.622   2.540  0.1803 -0.4311 -0.2346
  310MOL   C11137809   5.139   1.668   2.686  0.2750  0.1733  0.4596
  310MOL   F11237810   5.011   1.655   2.726 -0.0923  0.4288  0.5010
  310MOL   H11337811   5.132   1.514   2.542 -0.1562 -0.3581  1.8726
  310MOL   H11437812   5.252   1.642   2.509  0.2628  0.3975  0.5734
  310MOL   H11537813   5.167   1.773   2.694 -1.6634  0.6218  1.9662
  310MOL   C11637814   5.222   1.581   2.779 -1.1137 -0.1021  0.7940
  310MOL   C11737815   5.207   1.603   2.931 -0.6478 -0.4656 -0.9467
  310MOL   F11837816   5.291   1.688   2.979 -0.2526 -0.1955  0.0354
  310MOL   H11937817   5.193   1.478   2.762  0.6111 -0.4947  0.0752
  310MOL   H12037818   5.325   1.590   2.744 -0.4979  1.5958  2.9403
  310MOL   H12137819   5.227   1.514   2.991 -0.3703  0.3810  0.2540
  310MOL   H12237820   5.108   1.638   2.959 -1.0617  0.0443 -2.9794
  311MOL     C137821   4.001   4.026   5.481  0.4992 -0.0967 -0.1035
  311MOL     C237822   4.137   3.997   5.539  0.4666  0.0495 -0.0158
  311MOL     F337823   4.199   4.107   5.562  0.0068 -0.1071  0.6634
  311MOL     H437824   3.924   4.047   5.555 -0.4581 -0.3364 -1.0157
  311MOL     H537825   3.964   3.929   5.447  2.1956 -0.4289 -1.0525
  311MOL     H637826   4.196   3.928   5.478  0.2482 -1.5898  1.5978
  311MOL     H737827   4.001   4.105   5.406  1.3859 -0.6366 -0.6759
  311MOL     C837828   4.123   3.929   5.678  0.3120  0.0898  0.2922
  311MOL     C937829   4.250   3.890   5.751 -0.4979 -0.2251  0.3353
  311MOL    F1037830   4.204   3.841   5.863 -0.2382 -0.2866 -0.1462
  311MOL    H1137831   4.076   4.010   5.733  0.6475 -1.0435  2.2718
  311MOL    H1237832   4.059   3.841   5.680 -0.8189  0.8965  0.1876
  311MOL    H1337833   4.314   3.977   5.771 -2.7156  1.7035 -0.6694
  311MOL    C1437834   4.343   3.780   5.690 -0.2092 -0.8732  0.1666
  311MOL    C1537835   4.270   3.660   5.625  0.2068  0.1533 -0.3390
  311MOL    F1637836   4.219   3.711   5.515  0.1653 -0.3118 -0.6491
  311MOL    H1737837   4.400   3.833   5.613 -0.9900 -1.2471 -0.6776
  311MOL    H1837838   4.423   3.760   5.762 -1.5666 -0.9503  1.6818
  311MOL    H1937839   4.201   3.633   5.705 -1.6787  1.1437 -1.5917
  311MOL    C2037840   4.386   3.553   5.588 -0.0698  0.0501  0.1442
  311MOL    C2137841   4.325   3.431   5.522 -0.3825  0.3115 -0.0899
  311MOL    F2237842   4.270   3.469   5.407 -0.0465 -0.0701  0.2105
  311MOL    H2337843   4.461   3.594   5.521 -0.4724 -1.6334 -1.3619
  311MOL    H2437844   4.445   3.514   5.671 -2.7817 -1.0653  1.6223
  311MOL    H2537845   4.255   3.379   5.587 -0.7462  0.1917 -0.5748
  311MOL    C2637846   4.437   3.330   5.484  0.1727  0.8966  0.4831
  311MOL    C2737847   4.407   3.210   5.391 -0.4300 -0.1080  1.0661
  311MOL    F2837848   4.521   3.153   5.362 -0.4186 -0.0042 -0.0458
  311MOL    H2937849   4.520   3.389   5.444  0.2340 -0.3582 -1.3003
  311MOL    H3037850   4.476   3.281   5.573  0.7517 -0.5194 -0.5337
  311MOL    H3137851   4.363   3.238   5.295 -0.8364 -0.5702  1.1144
  311MOL    C3237852   4.318   3.107   5.456 -0.2318  1.1800  0.1915
  311MOL    C3337853   4.301   2.977   5.373  0.3668  0.2496  0.4450
  311MOL    F3437854   4.229   2.888   5.448 -0.1599  0.4290  0.0716
  311MOL    H3537855   4.354   3.080   5.556 -1.8123  1.1516  0.7713
  311MOL    H3637856   4.225   3.159   5.478 -0.7413  1.0336 -1.5967
  311MOL    H3737857   4.397   2.928   5.360  0.8793  1.7596 -1.8265
  311MOL    C3837858   4.230   3.002   5.237  0.2700  1.0323  0.2177
  311MOL    C3937859   4.202   2.879   5.153  0.9136 -0.1974 -0.0399
  311MOL    F4037860   4.127   2.927   5.052  0.3084 -0.5344 -0.3500
  311MOL    H4137861   4.137   3.056   5.255 -0.6640 -0.5890  0.3648
  311MOL    H4237862   4.294   3.067   5.177  0.1066 -0.0393 -1.1594
  311MOL    H4337863   4.131   2.815   5.205  0.3025  0.3429 -0.2062
  311MOL    C4437864   4.323   2.805   5.106 -0.2133  1.0622 -0.5317
  311MOL    C4537865   4.309   2.703   4.991 -0.1299  0.2666  0.1763
  311MOL    F4637866   4.436   2.665   4.957 -0.2727  0.2583 -0.2061
  311MOL    H4737867   4.392   2.883   5.071  1.8340  0.0572  1.1333
  311MOL    H4837868   4.368   2.763   5.195 -2.3612 -0.5956 -0.1977
  311MOL    H4937869   4.270   2.750   4.900  1.0456  0.8548 -0.0267
  311MOL    C5037870   4.224   2.579   5.004  0.2480  0.6966 -0.0389
  311MOL    C5137871   4.178   2.511   4.866 -0.7553  0.1718 -0.2885
  311MOL    F5237872   4.297   2.459   4.828  0.2700  0.3441  0.0326
  311MOL    H5337873   4.280   2.498   5.052  3.7910  1.2913 -2.9363
  311MOL    H5437874   4.145   2.587   5.079  1.6850 -0.7541  1.6883
  311MOL    H5537875   4.146   2.584   4.792 -2.8862 -0.0703  0.3715
  311MOL    C5637876   4.062   2.411   4.882 -0.0440 -0.0821 -0.0844
  311MOL    C5737877   4.035   2.335   4.752 -0.4089 -0.3318  0.6765
  311MOL    F5837878   4.022   2.419   4.648  0.0191 -0.2065 -0.0894
  311MOL    H5937879   4.079   2.327   4.949 -0.7313 -1.2711 -1.3787
  311MOL    H6037880   3.978   2.467   4.924 -0.5149  0.7813 -2.1145
  311MOL    H6137881   3.933   2.298   4.752 -0.6902  0.3934  2.0750
  311MOL    C6237882   4.136   2.226   4.706 -0.5152 -0.4124 -0.4934
  311MOL    C6337883   4.105   2.150   4.576  0.3653 -0.1294  0.1542
  311MOL    F6437884   4.111   2.234   4.477 -0.4001  0.3738  0.6023
  311MOL    H6537885   4.232   2.274   4.687 -1.1076  0.1385 -2.1450
  311MOL    H6637886   4.149   2.153   4.786 -2.1402  1.6152  1.6681
  311MOL    H6737887   4.002   2.114   4.575 -0.0865  1.1755 -1.0800
  311MOL    C6837888   4.196   2.035   4.556  0.1347 -0.2355  0.5126
  311MOL    C6937889   4.192   1.973   4.415  0.1047  0.0874 -0.2083
  311MOL    F7037890   4.282   1.877   4.394  0.0312 -0.2206  0.3441
  311MOL    H7137891   4.296   2.078   4.563  0.1753  0.4831 -3.5019
  311MOL    H7237892   4.187   1.966   4.641 -0.0199 -0.6892  0.1262
  311MOL    H7337893   4.230   2.043   4.341  0.0994 -0.4323 -0.7093
  311MOL    C7437894   4.048   1.919   4.376  0.6644  0.6042  0.3095
  311MOL    C7537895   4.007   1.793   4.455 -0.2063 -0.1482  0.1857
  311MOL    F7637896   3.975   1.826   4.580  0.0284  0.2779 -0.4315
  311MOL    H7737897   3.975   1.998   4.394 -0.9581 -0.9382  0.6683
  311MOL    H7837898   4.041   1.907   4.268 -3.0076 -0.0811  0.5612
  311MOL    H7937899   4.100   1.735   4.460 -1.9706 -3.1791 -1.0474
  311MOL    C8037900   3.894   1.714   4.381 -0.0412 -0.3119  0.7831
  311MOL    C8137901   3.867   1.575   4.423  0.2213 -0.1519  0.0454
  311MOL    F8237902   3.744   1.535   4.392 -0.4006 -0.5059 -0.3254
  311MOL    H8337903   3.798   1.764   4.397 -0.6583 -0.2922 -2.5909
  311MOL    H8437904   3.905   1.726   4.273  1.6758 -2.8922  0.6213
  311MOL    H8537905   3.869   1.563   4.531 -0.4481  0.1249  0.0877
  311MOL    C8637906   3.959   1.480   4.339  0.0317  0.4645  0.2787
  311MOL    C8737907   3.931   1.330   4.350  0.6224 -0.7237  0.3870
  311MOL    F8837908   4.014   1.275   4.264  0.0976  0.1830 -0.4485
  311MOL    H8937909   3.950   1.499   4.232  0.5350 -1.9294 -0.2017
  311MOL    H9037910   4.065   1.495   4.359  0.0341  1.9704 -0.7143
  311MOL    H9137911   3.831   1.308   4.311  0.6742  2.0580 -1.4849
  311MOL    C9237912   3.950   1.269   4.486 -0.1042 -0.3521  0.7866
  311MOL    C9337913   3.937   1.115   4.498 -0.3320 -0.0194 -0.1345
  311MOL    F9437914   4.025   1.049   4.426  0.0969 -0.2078 -0.0596
  311MOL    H9537915   4.050   1.294   4.522  0.1778 -0.5238  0.1300
  311MOL    H9637916   3.886   1.318   4.559 -1.0346  1.0260 -0.9117
  311MOL    H9737917   3.837   1.088   4.465  0.1408  0.4448 -2.0218
  311MOL    C9837918   3.963   1.080   4.649 -0.5468  0.2143  0.3219
  311MOL    C9937919   4.097   1.105   4.719  0.0019  0.2318 -0.2539
  311MOL   F10037920   4.108   1.231   4.761  1.0000 -0.0732 -0.5256
  311MOL   H10137921   3.889   1.135   4.707  0.5754  0.0774  1.9012
  311MOL   H10237922   3.938   0.974   4.660 -0.0816  0.3896  3.3397
  311MOL   H10337923   4.187   1.083   4.661  0.1151 -1.5953  0.5549
  311MOL   C10437924   4.109   1.008   4.844 -0.2855 -0.4379  0.1925
  311MOL   C10537925   4.250   1.020   4.905 -0.3245 -0.4520  0.4487
  311MOL   F10637926   4.239   0.986   5.034  0.0593  0.4410  0.0167
  311MOL   H10737927   4.038   1.048   4.917 -0.0257 -2.2286  1.4450
  311MOL   H10837928   4.084   0.905   4.820  0.8447 -0.4399 -1.0383
  311MOL   H10937929   4.273   1.125   4.889  0.5576 -0.1970  3.0564
  311MOL   C11037930   4.355   0.928   4.832 -0.8425 -0.1337 -0.1695
  311MOL   C11137931   4.497   0.924   4.879  0.9811 -0.1907  0.2745
  311MOL   F11237932   4.535   1.052   4.894 -0.4878 -0.1432  0.0975
  311MOL   H11337933   4.317   0.827   4.817 -2.7711  0.4035  0.9734
  311MOL   H11437934   4.360   0.963   4.729 -0.2919 -0.6714 -0.3262
  311MOL   H11537935   4.565   0.888   4.802 -0.2282 -1.9011 -0.0177
  311MOL   C11637936   4.507   0.844   5.010  0.7264 -0.2497  0.2254
  311MOL   C11737937   4.652   0.798   5.028  0.0467 -0.2140 -0.9029
  311MOL   F11837938   4.679   0.710   4.935  0.2398  0.0022 -0.3731
  311MOL   H11937939   4.503   0.904   5.101 -0.8472 -2.4785  1.6774
  311MOL   H12037940   4.442   0.757   5.013 -1.2581  1.2550  2.5557
  311MOL   H12137941   4.670   0.769   5.131 -0.9654  3.9117  0.5385
  311MOL   H12237942   4.717   0.882   5.003  1.6856 -1.6859 -1.7223
  312MOL     C137943   3.747   5.506   4.176  0.1570  0.0530 -0.3988
  312MOL     C237944   3.854   5.544   4.082 -0.1774  0.1652 -0.0807
  312MOL     F337945   3.822   5.501   3.965 -0.1769  0.7994 -0.0594
  312MOL     H437946   3.732   5.398   4.179  0.6481  0.0174  1.6566
  312MOL     H537947   3.653   5.548   4.138  0.3544  0.1125 -0.8196
  312MOL     H637948   3.950   5.506   4.116 -0.1977  0.3482  0.1814
  312MOL     H737949   3.752   5.536   4.281 -0.6705 -0.3703 -0.2288
  312MOL     C837950   3.880   5.697   4.077 -0.0288 -0.2417 -0.3199
  312MOL     C937951   3.996   5.749   3.987 -0.5332 -0.0189  0.5857
  312MOL    F1037952   4.103   5.667   4.018  0.2569 -0.0131 -0.0688
  312MOL    H1137953   3.784   5.743   4.052 -1.8947 -3.6015  0.2772
  312MOL    H1237954   3.898   5.726   4.181  0.1079 -0.4767 -0.2789
  312MOL    H1337955   4.023   5.850   4.016  0.2887  0.3875 -1.4846
  312MOL    C1437956   3.982   5.750   3.839  0.1522  0.2051 -0.1692
  312MOL    C1537957   3.851   5.821   3.804  0.4511  0.7492  0.1282
  312MOL    F1637958   3.849   5.954   3.823 -0.1111  0.2230  0.5530
  312MOL    H1737959   4.067   5.795   3.787  0.2047  1.4063  0.9277
  312MOL    H1837960   3.966   5.647   3.807 -0.8218  0.0061  0.9014
  312MOL    H1937961   3.768   5.784   3.864 -1.2924  3.1034 -0.7758
  312MOL    C2037962   3.815   5.798   3.660 -0.4415 -0.3316 -0.0621
  312MOL    C2137963   3.686   5.869   3.615  0.1655 -0.0350 -0.3389
  312MOL    F2237964   3.662   5.838   3.490 -0.5300  0.6335  0.4185
  312MOL    H2337965   3.903   5.829   3.603 -0.9473 -2.0604 -1.8262
  312MOL    H2437966   3.799   5.692   3.643 -0.2243 -0.1825 -1.2231
  312MOL    H2537967   3.714   5.974   3.622 -3.3707  1.0527 -1.1297
  312MOL    C2637968   3.558   5.830   3.694  0.2894  0.2237 -0.4478
  312MOL    C2737969   3.426   5.885   3.638  0.2098 -0.5788 -0.5000
  312MOL    F2837970   3.389   5.796   3.552 -0.0407  0.6961 -0.2812
  312MOL    H2937971   3.562   5.721   3.691 -1.1215  0.1861 -1.7268
  312MOL    H3037972   3.568   5.858   3.799 -2.8865 -1.4876  0.3865
  312MOL    H3137973   3.443   5.973   3.576 -3.8273 -0.8518 -2.1735
  312MOL    C3237974   3.313   5.901   3.732 -0.7275 -0.8691  1.1987
  312MOL    C3337975   3.335   6.014   3.833  0.7111  0.2619  0.1109
  312MOL    F3437976   3.339   6.129   3.777  1.0027 -0.2173 -0.7478
  312MOL    H3537977   3.228   5.915   3.666  0.2200  1.7361  0.4741
  312MOL    H3637978   3.288   5.804   3.776 -1.4237 -2.0636 -1.6982
  312MOL    H3737979   3.439   6.005   3.862  1.4716  1.1134 -2.3043
  312MOL    C3837980   3.229   6.009   3.950 -0.0251 -0.2578  0.1551
  312MOL    C3937981   3.254   5.890   4.043 -0.1786 -0.0345 -0.0069
  312MOL    F4037982   3.385   5.853   4.045 -0.4466 -0.0571 -0.1580
  312MOL    H4137983   3.259   6.099   4.004 -0.2108 -0.3202  0.3629
  312MOL    H4237984   3.127   6.027   3.916 -0.4556  0.9146  1.9605
  312MOL    H4337985   3.208   5.799   4.004 -1.3774  0.8946 -0.7809
  312MOL    C4437986   3.194   5.897   4.186 -0.0101 -0.2307 -0.9492
  312MOL    C4537987   3.037   5.897   4.194  0.3728 -0.2768 -0.0896
  312MOL    F4637988   2.986   6.003   4.127  0.4186 -0.2202 -0.5790
  312MOL    H4737989   3.227   5.808   4.240  2.1512 -0.1943 -2.1557
  312MOL    H4837990   3.233   5.988   4.233  0.8407  0.2710 -2.6061
  312MOL    H4937991   3.006   5.909   4.298  0.8656 -1.9470  0.2602
  312MOL    C5037992   2.970   5.775   4.133 -0.5432 -0.4444  0.3001
  312MOL    C5137993   2.819   5.754   4.167 -0.3927 -0.3258  0.2108
  312MOL    F5237994   2.778   5.653   4.090  0.3022 -0.0468  0.4579
  312MOL    H5337995   2.988   5.781   4.026 -1.9901 -2.4380 -0.0874
  312MOL    H5437996   3.020   5.686   4.171  0.6222  0.0405 -0.1049
  312MOL    H5537997   2.765   5.845   4.141  0.1673  0.1612  0.7348
  312MOL    C5637998   2.792   5.708   4.312 -0.7044  0.6024  0.3130
  312MOL    C5737999   2.647   5.708   4.348 -0.7028 -0.0970  0.1947
  312MOL    F5838000   2.627   5.648   4.469 -0.0827  0.0447 -0.2669
  312MOL    H5938001   2.828   5.607   4.331 -1.2351 -0.1170 -2.2227
  312MOL    H6038002   2.845   5.762   4.390  0.2546 -1.8150  1.3864
  312MOL    H6138003   2.594   5.659   4.266  0.6907 -1.5638  0.1523
  312MOL    C6238004   2.582   5.847   4.352 -0.0693 -0.2407 -0.6255
  312MOL    C6338005   2.435   5.854   4.371 -0.0736 -0.1810 -0.9277
  312MOL    F6438006   2.391   5.978   4.359  0.0695  0.4291  0.7536
  312MOL    H6538007   2.637   5.905   4.427  0.7311  0.3255 -1.6424
  312MOL    H6638008   2.589   5.897   4.256  1.9672 -0.3605 -0.5650
  312MOL    H6738009   2.413   5.845   4.477  0.5164 -0.7755 -0.8539
  312MOL    C6838010   2.343   5.751   4.289  0.2381  0.7186 -0.0138
  312MOL    C6938011   2.351   5.762   4.132 -0.5294 -0.0313  0.3878
  312MOL    F7038012   2.466   5.722   4.093  0.2095 -0.3122 -0.1971
  312MOL    H7138013   2.353   5.646   4.318  2.4858  0.8465 -0.2209
  312MOL    H7238014   2.244   5.779   4.324 -0.4854 -1.9673  0.2493
  312MOL    H7338015   2.343   5.867   4.102 -2.2190  0.2411  1.7293
  312MOL    C7438016   2.231   5.696   4.060 -0.0457  0.2577 -0.6113
  312MOL    C7538017   2.223   5.713   3.905 -0.4557 -0.2637 -0.4928
  312MOL    F7638018   2.131   5.645   3.845 -0.4072 -0.1460  0.0259
  312MOL    H7738019   2.220   5.592   4.090  0.1430 -1.0452 -4.7469
  312MOL    H7838020   2.139   5.743   4.096 -0.3221 -1.1958  0.6076
  312MOL    H7938021   2.317   5.674   3.865 -0.4270 -1.3092  0.5590
  312MOL    C8038022   2.207   5.852   3.857 -0.3564  0.7629 -0.3250
  312MOL    C8138023   2.226   5.874   3.705 -0.7900  0.1296  0.7128
  312MOL    F8238024   2.210   6.006   3.678 -0.1937  0.1159 -0.1946
  312MOL    H8338025   2.111   5.893   3.889 -2.1509 -2.9219 -0.6937
  312MOL    H8438026   2.285   5.915   3.901 -2.1558  2.2893  0.7571
  312MOL    H8538027   2.146   5.816   3.658  1.5275 -0.6906 -2.3548
  312MOL    C8638028   2.355   5.815   3.645  0.5431 -0.3229  0.4452
  312MOL    C8738029   2.399   5.856   3.492  0.4103  0.0796 -1.1296
  312MOL    F8838030   2.419   5.989   3.476  0.2875 -0.1506  0.5357
  312MOL    H8938031   2.441   5.846   3.705  0.3790  0.1894  0.4164
  312MOL    H9038032   2.351   5.707   3.662 -1.4731 -0.1244  1.3422
  312MOL    H9138033   2.318   5.832   3.424  0.2256 -0.0550 -0.8608
  312MOL    C9238034   2.535   5.792   3.452 -0.5357 -0.4921 -1.4872
  312MOL    C9338035   2.563   5.802   3.304 -0.1225 -0.4282  0.0926
  312MOL    F9438036   2.689   5.758   3.289 -0.3238 -0.2595  0.0828
  312MOL    H9538037   2.619   5.846   3.496 -0.5309 -0.0640 -2.0114
  312MOL    H9638038   2.525   5.690   3.489  2.3296 -0.0891  0.6135
  312MOL    H9738039   2.556   5.903   3.264 -0.6621 -1.3565 -2.2780
  312MOL    C9838040   2.474   5.712   3.212 -0.4087 -0.5170 -0.4063
  312MOL    C9938041   2.353   5.775   3.143  0.2356 -0.5120 -0.3413
  312MOL   F10038042   2.392   5.865   3.055 -0.5197  0.1335  0.1954
  312MOL   H10138043   2.544   5.682   3.134  1.2332  1.4190  0.2674
  312MOL   H10238044   2.429   5.628   3.264 -0.0072 -1.3837 -1.4235
  312MOL   H10338045   2.289   5.833   3.210 -1.1054  0.2025 -2.1966
  312MOL   C10438046   2.275   5.667   3.068 -0.1588  1.1681  0.2080
  312MOL   C10538047   2.149   5.715   2.998  0.2618  0.1795  0.5150
  312MOL   F10638048   2.057   5.753   3.086  0.3974 -0.2146 -0.5620
  312MOL   H10738049   2.343   5.618   2.999  1.5139  0.5563  2.2323
  312MOL   H10838050   2.245   5.589   3.138 -1.8933  1.4052 -0.2555
  312MOL   H10938051   2.108   5.626   2.951  0.7772  0.0828  0.2453
  312MOL   C11038052   2.147   5.822   2.891  0.0462  0.1474 -0.0303
  312MOL   C11138053   2.249   5.789   2.781 -0.1700  0.2361  1.2695
  312MOL   F11238054   2.238   5.660   2.737 -0.6014  0.6296 -0.0756
  312MOL   H11338055   2.049   5.833   2.844  0.8378  0.0861 -1.7264
  312MOL   H11438056   2.167   5.915   2.944  2.1015 -0.2620 -0.0598
  312MOL   H11538057   2.348   5.798   2.825 -0.5301 -0.2539  2.1942
  312MOL   C11638058   2.236   5.879   2.653  0.2794 -0.3128 -0.3887
  312MOL   C11738059   2.333   5.840   2.539  0.4622 -1.0554 -0.4460
  312MOL   F11838060   2.323   5.928   2.438 -0.0233  0.1272 -0.0515
  312MOL   H11938061   2.135   5.862   2.615  0.2987 -2.2175  0.3398
  312MOL   H12038062   2.255   5.984   2.674  3.1097 -0.4442 -2.0741
  312MOL   H12138063   2.305   5.742   2.500  2.7507 -1.3686 -1.3243
  312MOL   H12238064   2.434   5.828   2.577  0.2997 -1.4205 -0.1273
  313MOL     C138065   1.018   0.154   3.616 -0.5408  0.2503 -0.1458
  313MOL     C238066   1.060   0.032   3.693 -0.3196  0.0263  0.5387
  313MOL     F338067   1.163   0.081   3.773  0.0502 -0.0163 -0.1246
  313MOL     H438068   0.923   0.135   3.566 -1.3600 -0.7515  1.7363
  313MOL     H538069   1.089   0.195   3.545 -1.0910 -0.4334 -1.1102
  313MOL     H638070   1.107   7.952   3.640  0.2895  0.4195  0.4583
  313MOL     H738071   0.987   0.240   3.675 -1.1227  1.0129 -1.5190
  313MOL     C838072   0.950   7.982   3.792  0.4099 -0.2387 -0.1484
  313MOL     C938073   0.848   7.896   3.715  0.7433  0.3474  0.2112
  313MOL    F1038074   0.893   7.779   3.678 -0.1303  0.2627 -0.3659
  313MOL    H1138075   0.989   7.922   3.874 -1.7219  0.3116  1.3149
  313MOL    H1238076   0.894   0.062   3.834  0.4269 -0.0584 -0.4768
  313MOL    H1338077   0.809   7.955   3.632  1.3916 -0.0769 -0.4047
  313MOL    C1438078   0.729   7.853   3.807  0.0211 -0.4932 -0.0689
  313MOL    C1538079   0.606   7.812   3.723 -0.3253 -0.3432  0.3819
  313MOL    F1638080   0.639   7.705   3.642  0.3991 -0.3783 -0.3228
  313MOL    H1738081   0.760   7.769   3.869  0.2142 -1.2892 -1.2388
  313MOL    H1838082   0.697   7.940   3.865 -0.2624  0.9025 -2.2553
  313MOL    H1938083   0.592   7.899   3.660  3.3919  0.0941  0.0547
  313MOL    C2038084   0.485   7.781   3.802  0.3887  0.3851  0.5383
  313MOL    C2138085   0.355   7.768   3.720 -1.0946  0.1285  0.1867
  313MOL    F2238086   0.369   7.659   3.641  0.0146  0.1085  0.1968
  313MOL    H2338087   0.488   7.696   3.871 -0.2078  0.8245  1.1178
  313MOL    H2438088   0.473   7.872   3.860  1.4879  2.0424 -1.8031
  313MOL    H2538089   0.347   7.845   3.644  1.4801 -0.6208 -0.9157
  313MOL    C2638090   0.221   7.752   3.793 -0.3968 -0.2442 -0.5496
  313MOL    C2738091   0.089   7.729   3.710  0.1520  0.7461  0.2880
  313MOL    F2838092   7.990   7.705   3.798  0.2406 -0.3077 -0.2368
  313MOL    H2938093   0.227   7.672   3.867 -2.9051  0.4651  0.4812
  313MOL    H3038094   0.214   7.848   3.844 -0.1550  1.1193 -3.0126
  313MOL    H3138095   0.093   7.638   3.651 -0.2118  0.9987 -0.1246
  313MOL    C3238096   0.040   7.844   3.617  0.4980  0.0204  0.7973
  313MOL    C3338097   7.968   7.783   3.492 -0.5530  0.6955 -0.1122
  313MOL    F3438098   7.866   7.711   3.541 -0.0475  0.2250  0.2695
  313MOL    H3538099   7.975   7.907   3.675 -0.2105  1.2351 -1.2784
  313MOL    H3638100   0.129   7.900   3.590  1.1322 -1.3747 -0.0459
  313MOL    H3738101   0.033   7.716   3.440 -0.1819  0.7424  0.3127
  313MOL    C3838102   7.922   7.888   3.387 -0.8673 -0.2869  0.6834
  313MOL    C3938103   0.033   7.986   3.338  0.8939 -0.3566 -0.4460
  313MOL    F4038104   0.121   7.911   3.283 -0.0303  0.3729  0.1780
  313MOL    H4138105   7.883   7.837   3.299 -2.1561  0.5501  0.7581
  313MOL    H4238106   7.836   7.951   3.410  0.7779  2.0377  0.6882
  313MOL    H4338107   0.091   0.026   3.419  2.9894  1.0076 -2.5794
  313MOL    C4438108   7.995   0.083   3.241 -0.4514 -0.1729  0.4761
  313MOL    C4538109   7.922   0.032   3.118 -0.1552  0.5421  0.2817
  313MOL    F4638110   7.803   0.004   3.150  0.0460  0.0930 -0.0636
  313MOL    H4738111   7.928   0.149   3.298 -1.2357 -0.7617  0.2470
  313MOL    H4838112   0.073   0.153   3.222 -2.2261  1.8104 -0.0647
  313MOL    H4938113   7.964   7.940   3.085 -0.8312  0.3764 -0.1211
  313MOL    C5038114   7.915   0.138   3.009  0.9366 -0.3926  0.3867
  313MOL    C5138115   7.860   0.099   2.874 -0.2033 -0.3785  0.1607
  313MOL    F5238116   7.940   0.003   2.819 -0.2177 -0.3867  0.0320
  313MOL    H5338117   7.862   0.222   3.053 -0.2734 -0.8858 -0.1062
  313MOL    H5438118   0.016   0.167   2.995  0.9024  0.5821  1.9664
  313MOL    H5538119   7.870   0.186   2.809 -2.1664 -1.6601 -1.9613
  313MOL    C5638120   7.721   0.048   2.862  0.3083 -0.2753 -0.9972
  313MOL    C5738121   7.612   0.150   2.908 -0.9758 -0.4997  0.1592
  313MOL    F5838122   7.614   0.254   2.828  0.3687  0.3576  0.4422
  313MOL    H5938123   7.700   0.016   2.760 -0.5377  0.7177 -1.1385
  313MOL    H6038124   7.725   7.957   2.916 -1.1107  0.0127 -0.3689
  313MOL    H6138125   7.623   0.200   3.004  0.5549  0.7720 -0.6454
  313MOL    C6238126   7.474   0.088   2.909 -0.0390  0.5745  0.3945
  313MOL    C6338127   7.464   0.003   3.035  0.4052 -0.1809 -0.5192
  313MOL    F6438128   7.449   0.082   3.143 -0.2902  0.3724 -0.4393
  313MOL    H6538129   7.404   0.170   2.928  0.3440  1.5259 -2.1075
  313MOL    H6638130   7.453   0.031   2.819  0.9859  0.6706  0.0896
  313MOL    H6738131   7.551   7.942   3.051 -2.2879 -3.1103  3.2458
  313MOL    C6838132   7.333   7.921   3.023 -0.1363  0.0889 -0.3050
  313MOL    C6938133   7.313   7.801   3.117 -0.1705  0.2729 -0.1664
  313MOL    F7038134   7.189   7.773   3.118 -0.0815  0.5516  0.0849
  313MOL    H7138135   7.257   7.998   3.031  0.3495  0.4120  1.5515
  313MOL    H7238136   7.333   7.884   2.921 -1.8130 -1.4274  0.2316
  313MOL    H7338137   7.338   7.834   3.218 -2.2377 -0.9472  0.7730
  313MOL    C7438138   7.398   7.675   3.077 -0.4256 -1.1018 -0.1804
  313MOL    C7538139   7.406   7.563   3.187  0.2005 -0.0858 -0.1938
  313MOL    F7638140   7.487   7.476   3.135  0.0943  0.0835  0.1755
  313MOL    H7738141   7.355   7.642   2.982 -0.1901 -0.2697 -0.5849
  313MOL    H7838142   7.500   7.705   3.053 -0.5801 -1.5167 -1.3890
  313MOL    H7938143   7.317   7.502   3.200 -0.1286  0.3714 -0.3086
  313MOL    C8038144   7.473   7.596   3.324 -0.0194 -0.3896 -0.1151
  313MOL    C8138145   7.454   7.485   3.433  0.2926  0.9900  0.3330
  313MOL    F8238146   7.506   7.375   3.380 -0.5011  0.4281 -0.4320
  313MOL    H8338147   7.578   7.623   3.315  0.2149 -0.9787  0.8554
  313MOL    H8438148   7.422   7.687   3.356  1.5667  0.6908 -0.6109
  313MOL    H8538149   7.347   7.475   3.455  0.5317  0.8162  1.4293
  313MOL    C8638150   7.522   7.512   3.573 -0.2108  0.1482 -0.6407
  313MOL    C8738151   7.512   7.394   3.678 -0.1158  0.1211  0.3155
  313MOL    F8838152   7.606   7.427   3.758  0.2450  0.3011  0.0723
  313MOL    H8938153   7.626   7.541   3.560 -0.1039  0.2790  0.5186
  313MOL    H9038154   7.477   7.607   3.603 -0.7898  0.1684 -1.5357
  313MOL    H9138155   7.547   7.306   3.623  1.7966  1.1921 -0.2232
  313MOL    C9238156   7.389   7.379   3.754  0.1249 -0.1270  1.2616
  313MOL    C9338157   7.376   7.250   3.828  0.5271  0.0264 -0.9591
  313MOL    F9438158   7.283   7.265   3.929  0.6945  0.0029  0.4268
  313MOL    H9538159   7.366   7.472   3.805 -0.4761  1.3965 -1.6343
  313MOL    H9638160   7.303   7.385   3.686  0.5681  0.8963  0.7849
  313MOL    H9738161   7.465   7.230   3.887 -0.4273  1.1390  0.9285
  313MOL    C9838162   7.317   7.141   3.740 -0.1308  0.3296  0.1728
  313MOL    C9938163   7.349   6.996   3.772 -0.0560  0.4123 -0.9561
  313MOL   F10038164   7.481   6.993   3.774  0.1411  0.9172  0.2562
  313MOL   H10138165   7.208   7.142   3.738 -0.1263  3.1296 -1.3911
  313MOL   H10238166   7.345   7.157   3.636 -0.0213  0.9186  0.2935
  313MOL   H10338167   7.301   6.934   3.696  2.6139 -2.0009 -0.7659
  313MOL   C10438168   7.302   6.948   3.911  0.3984  0.3313  0.5636
  313MOL   C10538169   7.315   6.795   3.928 -0.6185  0.6038 -0.6084
  313MOL   F10638170   7.225   6.744   3.849  0.1327  0.1903 -0.3761
  313MOL   H10738171   7.342   7.011   3.990  0.2296  1.3884 -0.1801
  313MOL   H10838172   7.193   6.958   3.907  0.5961  3.2682  0.9978
  313MOL   H10938173   7.284   6.772   4.030  1.0479  0.2038 -0.1740
  313MOL   C11038174   7.447   6.727   3.896  0.4209 -0.1605 -0.1678
  313MOL   C11138175   7.554   6.771   3.992  0.1069 -0.2840  0.2364
  313MOL   F11238176   7.527   6.735   4.116 -0.0935  0.3029 -0.1620
  313MOL   H11338177   7.430   6.621   3.914 -0.3157 -0.1597 -0.8173
  313MOL   H11438178   7.475   6.744   3.792  2.4499 -0.6711  0.2712
  313MOL   H11538179   7.549   6.880   3.996  2.3325 -0.1846  0.9021
  313MOL   C11638180   7.685   6.714   3.947 -0.5267  0.0832 -0.0766
  313MOL   C11738181   7.750   6.778   3.826 -0.1540 -0.1427  0.3140
  313MOL   F11838182   7.791   6.903   3.853  0.1793  0.3532  0.2567
  313MOL   H11938183   7.755   6.705   4.031 -1.9397 -2.9927  0.8161
  313MOL   H12038184   7.668   6.608   3.929  0.9738 -0.3945  1.1198
  313MOL   H12138185   7.679   6.790   3.743  1.3955 -0.6094 -1.1114
  313MOL   H12238186   7.836   6.720   3.793  0.2451 -0.5492  2.0305
  314MOL     C138187   4.378   5.809   6.136 -0.1043 -0.3534 -0.0898
  314MOL     C238188   4.380   5.753   6.284  0.5651 -0.1364  0.2424
  314MOL     F338189   4.498   5.695   6.292  0.8280 -0.4511 -0.4356
  314MOL     H438190   4.473   5.852   6.101  0.3671 -2.4786 -1.4967
  314MOL     H538191   4.297   5.881   6.122  1.4135  1.3857 -0.2600
  314MOL     H638192   4.320   5.665   6.307  0.8109  0.1441  2.0612
  314MOL     H738193   4.365   5.729   6.064 -0.5419  1.3346 -1.9548
  314MOL     C838194   4.371   5.861   6.391 -0.3922  0.3394  0.6517
  314MOL     C938195   4.229   5.890   6.426 -0.5458 -0.0232 -0.4264
  314MOL    F1038196   4.167   5.777   6.457  0.5209  0.3836 -0.2894
  314MOL    H1138197   4.426   5.815   6.474 -1.5424 -1.7509  0.3017
  314MOL    H1238198   4.436   5.948   6.379  1.5283 -1.1176  0.1676
  314MOL    H1338199   4.176   5.926   6.337  1.5696  1.4374 -1.1572
  314MOL    C1438200   4.213   5.980   6.542  0.1374 -0.5525  0.1050
  314MOL    C1538201   4.273   6.124   6.521  0.3692  0.3745  0.4198
  314MOL    F1638202   4.205   6.176   6.418 -0.3223 -0.0805  0.2454
  314MOL    H1738203   4.108   5.996   6.568 -0.4655 -0.1066 -2.4425
  314MOL    H1838204   4.271   5.938   6.625  1.9287  1.7549  0.0647
  314MOL    H1938205   4.378   6.120   6.495 -0.3598 -1.2970 -2.4766
  314MOL    C2038206   4.265   6.214   6.646  0.3707  0.5868  0.6115
  314MOL    C2138207   4.338   6.349   6.629  0.7382 -0.9595  0.1247
  314MOL    F2238208   4.460   6.333   6.574 -0.0372 -0.0304 -0.2664
  314MOL    H2338209   4.159   6.229   6.669  0.3406  2.6201 -0.7100
  314MOL    H2438210   4.316   6.169   6.730 -0.1942  3.4618  2.5696
  314MOL    H2538211   4.342   6.399   6.725  0.2365 -0.9476  0.1417
  314MOL    C2638212   4.253   6.455   6.548  0.3700 -0.1337 -0.8444
  314MOL    C2738213   4.125   6.497   6.615  0.1584 -0.1800 -0.5999
  314MOL    F2838214   4.153   6.571   6.722 -0.4939  0.1228  0.1290
  314MOL    H2938215   4.315   6.542   6.529 -2.1284  1.4397 -2.1077
  314MOL    H3038216   4.218   6.417   6.452 -1.0868 -0.9676 -0.0132
  314MOL    H3138217   4.066   6.413   6.653  1.1054 -0.4479  0.3098
  314MOL    C3238218   4.032   6.578   6.512 -0.3368 -0.3235  0.0421
  314MOL    C3338219   3.951   6.488   6.420 -0.2746 -0.3477 -0.1082
  314MOL    F3438220   3.885   6.402   6.495 -1.0755 -0.2967  0.1687
  314MOL    H3538221   3.965   6.636   6.575 -1.3532 -3.4041  1.8837
  314MOL    H3638222   4.090   6.645   6.447 -1.8391 -0.0354 -1.0285
  314MOL    H3738223   4.020   6.435   6.354 -0.4308 -0.6768 -0.0085
  314MOL    C3838224   3.854   6.569   6.328  0.3787  0.1775 -0.3622
  314MOL    C3938225   3.788   6.478   6.221 -0.3732 -0.4361 -0.0769
  314MOL    F4038226   3.719   6.378   6.270  0.8903  0.3938  0.4834
  314MOL    H4138227   3.785   6.617   6.397  1.4996 -0.4469  1.2350
  314MOL    H4238228   3.911   6.653   6.288  0.6393  0.2400  0.1440
  314MOL    H4338229   3.864   6.420   6.168 -0.3599  0.3054 -0.8878
  314MOL    C4438230   3.720   6.563   6.116 -0.4480  0.2215 -0.1791
  314MOL    C4538231   3.699   6.495   5.980  0.2953 -0.5067 -0.2301
  314MOL    F4638232   3.820   6.481   5.916 -0.4993  0.1174 -0.0418
  314MOL    H4738233   3.619   6.587   6.149  0.4885 -0.1675  3.1471
  314MOL    H4838234   3.768   6.660   6.101  1.3484 -0.4307  1.2055
  314MOL    H4938235   3.637   6.558   5.917 -2.7222 -1.4083  1.7235
  314MOL    C5038236   3.630   6.355   5.972 -0.3562 -0.1476  0.6754
  314MOL    C5138237   3.627   6.290   5.835 -0.6505 -0.8531  0.8169
  314MOL    F5238238   3.583   6.168   5.847 -0.0982  0.1067 -0.0574
  314MOL    H5338239   3.673   6.282   6.041  3.5973  1.1176 -0.2695
  314MOL    H5438240   3.526   6.356   6.004 -1.2716 -1.9807 -2.0188
  314MOL    H5538241   3.734   6.289   5.811 -0.5699 -1.3641  1.1809
  314MOL    C5638242   3.549   6.367   5.724 -0.6286 -0.1962 -0.3269
  314MOL    C5738243   3.546   6.293   5.584  0.0818 -0.9047  0.3286
  314MOL    F5838244   3.468   6.362   5.503 -0.1440 -0.1056 -0.8542
  314MOL    H5938245   3.447   6.378   5.760 -0.6032  2.3870 -0.9652
  314MOL    H6038246   3.583   6.470   5.713 -1.4779 -0.0395 -1.5101
  314MOL    H6138247   3.501   6.198   5.610 -0.0092 -0.6945  0.9462
  314MOL    C6238248   3.684   6.279   5.515 -0.5067  0.9196  0.0093
  314MOL    C6338249   3.779   6.400   5.506  0.5053  0.2089  0.8415
  314MOL    F6438250   3.879   6.360   5.423  0.2005 -0.0855 -0.1828
  314MOL    H6538251   3.747   6.204   5.564  0.4055  0.7683 -1.3660
  314MOL    H6638252   3.684   6.225   5.420 -1.1268 -0.4955  0.7949
  314MOL    H6738253   3.808   6.424   5.608 -0.5965 -2.0372  1.7141
  314MOL    C6838254   3.718   6.533   5.431 -0.5807 -0.2171 -0.2105
  314MOL    C6938255   3.827   6.648   5.417  0.4771  0.0939 -0.4601
  314MOL    F7038256   3.780   6.754   5.353 -0.3384 -0.5617  0.1339
  314MOL    H7138257   3.681   6.502   5.334 -1.2640 -0.2037  0.0493
  314MOL    H7238258   3.633   6.578   5.482 -0.0292  0.6767 -0.0662
  314MOL    H7338259   3.900   6.603   5.349  0.2365 -0.6262 -0.2352
  314MOL    C7438260   3.907   6.681   5.544  0.5627  0.4713 -0.0469
  314MOL    C7538261   3.841   6.753   5.666  0.1139 -0.5061 -0.6253
  314MOL    F7638262   3.754   6.666   5.717  0.1794  0.6967 -0.4410
  314MOL    H7738263   3.965   6.595   5.576 -0.5685  0.0747  0.9555
  314MOL    H7838264   3.993   6.738   5.508  0.2722 -0.9071 -3.0982
  314MOL    H7938265   3.780   6.833   5.623  0.1923  0.0805  0.3481
  314MOL    C8038266   3.932   6.815   5.783 -0.0964 -0.2525  0.0885
  314MOL    C8138267   4.032   6.722   5.854 -0.2304  0.0690  0.2399
  314MOL    F8238268   4.148   6.727   5.787  0.3648 -0.0989 -0.2079
  314MOL    H8338269   3.979   6.901   5.736 -1.4472  1.0449  1.0793
  314MOL    H8438270   3.858   6.847   5.856  0.5852  1.2875  0.1107
  314MOL    H8538271   4.002   6.619   5.832  1.9217 -0.7378  0.9816
  314MOL    C8638272   4.058   6.755   6.000 -0.0396  0.5916  0.5834
  314MOL    C8738273   4.184   6.690   6.064  0.0951  0.2142 -0.2783
  314MOL    F8838274   4.215   6.758   6.171  0.1861 -0.3879  0.4341
  314MOL    H8938275   4.061   6.863   6.016 -0.6739  0.9232 -1.4733
  314MOL    H9038276   3.978   6.724   6.067 -0.3418 -0.8587 -0.4327
  314MOL    H9138277   4.267   6.716   5.998 -0.5502 -2.3533 -2.1715
  314MOL    C9238278   4.185   6.539   6.068 -0.2763  0.8403 -0.0408
  314MOL    C9338279   4.322   6.470   6.106  0.1115 -0.3632 -0.4632
  314MOL    F9438280   4.354   6.505   6.230  0.0643  0.0843 -0.0036
  314MOL    H9538281   4.099   6.521   6.133 -1.9072  1.9399 -1.8331
  314MOL    H9638282   4.163   6.508   5.966  0.0229  1.1071 -0.1852
  314MOL    H9738283   4.405   6.500   6.042  1.2865 -0.6095  0.9174
  314MOL    C9838284   4.313   6.319   6.114  0.5900  0.2017  0.2627
  314MOL    C9938285   4.445   6.236   6.140  0.0214 -0.0325 -0.2611
  314MOL   F10038286   4.414   6.125   6.206 -0.4634  0.2654 -0.0380
  314MOL   H10138287   4.246   6.302   6.198 -0.2776  1.0630 -0.2488
  314MOL   H10238288   4.255   6.285   6.028 -0.0743 -0.9946  1.1617
  314MOL   H10338289   4.508   6.293   6.209 -2.0557  3.2882 -0.9977
  314MOL   C10438290   4.533   6.199   6.017  0.5643 -0.5022  0.0290
  314MOL   C10538291   4.451   6.127   5.912 -0.3244 -0.3789  0.5638
  314MOL   F10638292   4.389   6.211   5.823  0.0004 -1.1463 -0.8757
  314MOL   H10738293   4.560   6.285   5.956 -0.5686 -0.8783 -1.0345
  314MOL   H10838294   4.619   6.144   6.056  0.8819 -0.5087 -0.6903
  314MOL   H10938295   4.374   6.065   5.957 -0.9768 -0.0471 -0.1048
  314MOL   C11038296   4.545   6.035   5.824  0.8376  0.1016 -1.0041
  314MOL   C11138297   4.653   6.102   5.737  0.5367  0.3045  0.1252
  314MOL   F11238298   4.751   6.154   5.808  0.3344  0.6283  0.2637
  314MOL   H11338299   4.583   5.950   5.879 -0.0978  0.8781  0.9101
  314MOL   H11438300   4.477   5.973   5.765  2.7409 -3.6477  0.6089
  314MOL   H11538301   4.608   6.188   5.686  0.3503  0.0260 -0.1821
  314MOL   C11638302   4.704   5.995   5.628 -0.3142  0.0782 -0.3966
  314MOL   C11738303   4.787   6.054   5.513 -0.4489  0.1396 -0.1491
  314MOL   F11838304   4.723   6.144   5.438 -0.2585 -0.4891 -0.4538
  314MOL   H11938305   4.765   5.913   5.666  0.4470  0.5828 -0.5092
  314MOL   H12038306   4.618   5.950   5.578 -0.7077  1.0254 -0.5939
  314MOL   H12138307   4.830   5.984   5.441  2.0274  0.1872  1.2095
  314MOL   H12238308   4.873   6.106   5.556  0.5582 -0.3652 -1.5186
  315MOL     C138309   6.360   5.668   5.348  0.3081  0.0255  0.3258
  315MOL     C238310   6.481   5.761   5.365  0.1005  0.1117 -0.0363
  315MOL     F338311   6.535   5.772   5.245  0.4539 -0.1707 -0.0362
  315MOL     H438312   6.275   5.709   5.293  1.1705  0.2791 -0.8336
  315MOL     H538313   6.307   5.650   5.442 -0.0379  0.9518  0.3237
  315MOL     H638314   6.550   5.717   5.437  1.9618 -0.3419 -2.0313
  315MOL     H738315   6.390   5.571   5.309 -1.1867 -1.3168  2.3905
  315MOL     C838316   6.442   5.899   5.426 -0.2269  0.4605  0.2407
  315MOL     C938317   6.543   6.018   5.408  0.0521 -0.1939 -0.6141
  315MOL    F1038318   6.485   6.128   5.461 -0.4079 -0.3117 -0.1019
  315MOL    H1138319   6.342   5.930   5.396 -1.3779 -2.0712  1.2802
  315MOL    H1238320   6.440   5.878   5.533  3.3111 -0.4195  0.1924
  315MOL    H1338321   6.565   6.037   5.303 -1.0697 -1.1254 -1.0247
  315MOL    C1438322   6.677   6.012   5.489  0.7421  0.3684  0.1233
  315MOL    C1538323   6.777   5.911   5.432  0.4877 -0.3957 -0.3487
  315MOL    F1638324   6.775   5.922   5.295  0.2727  0.4117 -0.3533
  315MOL    H1738325   6.715   6.114   5.496 -1.1691  1.1591 -0.6019
  315MOL    H1838326   6.659   5.982   5.592  2.5485  0.7002  0.5553
  315MOL    H1938327   6.742   5.809   5.447  1.3937 -0.9176 -1.6560
  315MOL    C2038328   6.918   5.945   5.478 -0.4114  0.6284 -0.5644
  315MOL    C2138329   7.032   5.840   5.452  0.0311  0.1556 -0.7772
  315MOL    F2238330   7.151   5.906   5.453 -0.4734 -0.2654 -0.2077
  315MOL    H2338331   6.940   6.027   5.410 -1.6818  0.6706 -0.9455
  315MOL    H2438332   6.913   5.972   5.583 -0.9866 -1.1327 -0.1250
  315MOL    H2538333   7.011   5.785   5.360 -0.9426  0.4195 -0.7164
  315MOL    C2638334   7.043   5.721   5.561  0.0783  0.3804  0.0648
  315MOL    C2738335   7.074   5.759   5.704  0.3019 -0.8672  0.2014
  315MOL    F2838336   6.968   5.811   5.761  0.6485  0.1349  0.6488
  315MOL    H2938337   6.947   5.669   5.561 -0.6459  1.6261 -2.9352
  315MOL    H3038338   7.116   5.647   5.529 -0.8373 -0.4877 -0.0385
  315MOL    H3138339   7.151   5.836   5.710  0.4747 -1.0897  0.9876
  315MOL    C3238340   7.098   5.635   5.794 -0.6554 -0.0668 -0.3027
  315MOL    C3338341   7.241   5.588   5.782  0.6648  0.2211  0.7888
  315MOL    F3438342   7.322   5.671   5.837  0.2501  0.5705 -0.7388
  315MOL    H3538343   7.073   5.667   5.896 -0.8456 -0.2852 -0.2794
  315MOL    H3638344   7.025   5.558   5.769  1.7382 -2.5855  0.3140
  315MOL    H3738345   7.271   5.576   5.678  0.3305  1.2158  0.5761
  315MOL    C3838346   7.257   5.467   5.878 -0.0803  0.1152 -0.2864
  315MOL    C3938347   7.391   5.393   5.873 -0.7248 -0.2931  0.0504
  315MOL    F4038348   7.382   5.299   5.964 -0.0220  0.4236  0.4832
  315MOL    H4138349   7.215   5.496   5.975 -0.6303 -0.6763 -0.2854
  315MOL    H4238350   7.183   5.396   5.841 -0.3841 -0.6526  1.7049
  315MOL    H4338351   7.464   5.468   5.904  0.2346 -0.0354 -2.7046
  315MOL    C4438352   7.428   5.326   5.735  0.1291  0.1367 -0.0995
  315MOL    C4538353   7.579   5.276   5.718  0.1686  0.5190 -0.1176
  315MOL    F4638354   7.582   5.214   5.601 -0.4397 -0.2600 -0.1807
  315MOL    H4738355   7.367   5.235   5.731 -0.2604  0.3895  0.0610
  315MOL    H4838356   7.393   5.384   5.650 -2.2565 -0.8111  0.1893
  315MOL    H4938357   7.593   5.196   5.791 -2.0293 -1.3377 -1.6411
  315MOL    C5038358   7.691   5.385   5.712  0.5237  0.5169  0.1860
  315MOL    C5138359   7.830   5.334   5.679  0.2957  0.4494 -0.3873
  315MOL    F5238360   7.913   5.444   5.684  0.7595  0.1355  0.1573
  315MOL    H5338361   7.657   5.465   5.646 -2.3313 -1.9579 -1.4622
  315MOL    H5438362   7.694   5.424   5.814 -0.7907 -0.0937  0.4609
  315MOL    H5538363   7.838   5.294   5.578 -0.9226 -0.8435  0.0182
  315MOL    C5638364   7.892   5.223   5.767 -0.2469 -0.4104  0.1231
  315MOL    C5738365   7.926   5.251   5.910  0.5110  0.6998 -0.1269
  315MOL    F5838366   7.810   5.266   5.972  0.5234  0.2042 -0.4866
  315MOL    H5938367   7.820   5.141   5.754 -1.1939  0.1622  1.6620
  315MOL    H6038368   7.981   5.195   5.710 -0.7953  3.7277 -2.9892
  315MOL    H6138369   7.983   5.344   5.915 -0.2922  1.0782  3.1139
  315MOL    C6238370   7.994   5.129   5.975  0.3065  0.2891  0.4248
  315MOL    C6338371   0.127   5.090   5.910 -0.0125 -0.0253  0.6958
  315MOL    F6438372   0.210   5.189   5.943 -0.1576  0.0154  0.4381
  315MOL    H6538373   7.991   5.127   6.084 -2.3391 -2.1240  0.3746
  315MOL    H6638374   7.916   5.055   5.955  0.7625 -0.7745  2.4838
  315MOL    H6738375   0.134   5.087   5.801 -0.0702  0.1442  0.6879
  315MOL    C6838376   0.182   4.956   5.966  0.0404 -0.4292 -0.0987
  315MOL    C6938377   0.321   4.910   5.902  0.7275  0.5571  0.3787
  315MOL    F7038378   0.424   4.998   5.916  0.0465 -0.2099 -0.3142
  315MOL    H7138379   0.199   4.971   6.073 -0.1138  1.3435 -0.3168
  315MOL    H7238380   0.107   4.876   5.963  0.1906 -0.5764  0.0245
  315MOL    H7338381   0.300   4.910   5.795 -1.0753  0.5745  0.7153
  315MOL    C7438382   0.375   4.780   5.953  0.0892 -0.5876 -0.4974
  315MOL    C7538383   0.501   4.731   5.887 -0.0872  0.3607 -0.0789
  315MOL    F7638384   0.539   4.616   5.941 -0.2155 -0.1924 -0.3301
  315MOL    H7738385   0.377   4.787   6.062 -2.7382 -1.9186 -0.3075
  315MOL    H7838386   0.309   4.694   5.943  0.3776 -0.7702 -0.8259
  315MOL    H7938387   0.587   4.797   5.900 -0.4547  0.9138 -0.4623
  315MOL    C8038388   0.480   4.706   5.734  0.6457  0.2170 -0.3850
  315MOL    C8138389   0.601   4.652   5.651 -0.4066  0.0477 -0.5396
  315MOL    F8238390   0.563   4.613   5.528  0.3070 -0.4607 -0.6599
  315MOL    H8338391   0.406   4.627   5.729 -2.3873  2.6676  3.3160
  315MOL    H8438392   0.426   4.788   5.688  0.5524  0.5437  0.3080
  315MOL    H8538393   0.646   4.569   5.706  2.2792  0.7276 -1.6557
  315MOL    C8638394   0.715   4.757   5.640  0.7949 -0.7297  0.3418
  315MOL    C8738395   0.850   4.707   5.597  0.2943 -0.2235  0.0513
  315MOL    F8838396   0.843   4.658   5.477  0.3551  0.0227 -0.3348
  315MOL    H8938397   0.660   4.838   5.591 -1.2696 -0.2783  3.3285
  315MOL    H9038398   0.731   4.786   5.743  0.5155  2.2727 -0.4122
  315MOL    H9138399   0.888   4.631   5.665  2.2129 -0.2658 -1.0474
  315MOL    C9238400   0.939   4.831   5.578  0.0458 -0.7436  0.0572
  315MOL    C9338401   1.072   4.804   5.504 -0.3620 -0.2788  0.1449
  315MOL    F9438402   1.103   4.928   5.481 -0.1148 -0.3765 -0.0539
  315MOL    H9538403   0.881   4.897   5.514  1.2243 -0.1873 -0.4492
  315MOL    H9638404   0.958   4.885   5.671  1.5089  0.1399 -0.7393
  315MOL    H9738405   1.061   4.755   5.407  0.9219 -1.8711  0.7622
  315MOL    C9838406   1.186   4.733   5.583  0.1206 -0.4393 -1.2632
  315MOL    C9938407   1.313   4.710   5.498 -0.2898 -0.1394 -0.6768
  315MOL   F10038408   1.405   4.664   5.587  0.3400 -0.3002 -0.2808
  315MOL   H10138409   1.203   4.781   5.679 -0.0638 -0.1461 -1.3781
  315MOL   H10238410   1.144   4.636   5.611 -0.1753  0.1044  0.2187
  315MOL   H10338411   1.339   4.804   5.450  0.1927 -0.1786 -0.4885
  315MOL   C10438412   1.300   4.601   5.404 -0.5732 -0.5887  0.1470
  315MOL   C10538413   1.410   4.620   5.298  0.3790 -0.4053  0.1478
  315MOL   F10638414   1.442   4.505   5.235 -0.0706 -0.2756 -0.6032
  315MOL   H10738415   1.309   4.501   5.447 -2.0800 -0.3343  1.0791
  315MOL   H10838416   1.206   4.609   5.349 -1.3180 -1.0490  1.3307
  315MOL   H10938417   1.499   4.638   5.358  0.8615 -0.3390 -0.5772
  315MOL   C11038418   1.388   4.738   5.197  0.6301  0.0674  0.0460
  315MOL   C11138419   1.498   4.750   5.088 -0.3325  0.4652  0.4193
  315MOL   F11238420   1.521   4.645   5.009  0.1144 -0.0631  0.4527
  315MOL   H11338421   1.289   4.734   5.150 -0.5860  0.4206  2.4767
  315MOL   H11438422   1.396   4.832   5.251 -1.0847 -0.5088  1.3601
  315MOL   H11538423   1.593   4.768   5.138 -0.3146  0.3009  0.4469
  315MOL   C11638424   1.490   4.876   5.010 -0.0247 -0.0248  0.4050
  315MOL   C11738425   1.598   4.903   4.906 -0.2653  0.3282  0.1421
  315MOL   F11838426   1.724   4.887   4.946 -0.1651  0.0832 -0.1236
  315MOL   H11938427   1.397   4.876   4.954 -1.1084  1.7282  2.1470
  315MOL   H12038428   1.486   4.957   5.083 -1.0832  0.3709 -0.0893
  315MOL   H12138429   1.590   5.008   4.876 -2.3206  0.5002  1.2252
  315MOL   H12238430   1.588   4.837   4.820  1.7034  1.4007 -0.9500
  316MOL     C138431   7.055   4.943   0.089  0.2440 -0.0817 -0.0770
  316MOL     C238432   7.188   4.996   0.147 -0.0855 -0.0558  0.0601
  316MOL     F338433   7.219   4.928   0.255 -0.3807 -0.5050  0.0389
  316MOL     H438434   7.061   4.835   0.090 -2.8169 -0.3062 -1.3317
  316MOL     H538435   7.032   4.966   7.988 -1.1950 -0.7184  0.0923
  316MOL     H638436   7.168   5.100   0.169 -0.4200 -0.0083 -0.4627
  316MOL     H738437   6.967   4.965   0.150  0.4091 -0.1424  0.1812
  316MOL     C838438   7.302   4.998   0.039 -0.1768 -0.4791  0.0155
  316MOL     C938439   7.344   4.859   7.992 -0.1308 -0.2565  0.1018
  316MOL    F1038440   7.243   4.813   7.916  0.1321  0.5191  0.2840
  316MOL    H1138441   7.261   5.067   7.969 -0.0608 -0.2838  0.1353
  316MOL    H1238442   7.385   5.050   0.086 -0.9882 -1.6534  2.8630
  316MOL    H1338443   7.353   4.791   0.074  0.9205  0.5911  0.6786
  316MOL    C1438444   7.472   4.877   7.913  0.6799 -0.5929  0.5547
  316MOL    C1538445   7.531   4.745   7.870 -0.5346 -0.3661  0.2240
  316MOL    F1638446   7.445   4.698   7.780 -0.0207 -0.4793 -0.5412
  316MOL    H1738447   7.471   4.957   7.839 -1.1637  0.3894  1.5744
  316MOL    H1838448   7.552   4.911   7.979 -0.5853  1.5108  1.0601
  316MOL    H1938449   7.541   4.672   7.950  0.2046 -1.2754 -0.6784
  316MOL    C2038450   7.671   4.762   7.811 -0.9428 -0.8836 -0.0673
  316MOL    C2138451   7.749   4.634   7.763 -0.0077  0.7681 -0.2544
  316MOL    F2238452   7.756   4.554   7.862  0.2044 -0.7184  0.3694
  316MOL    H2338453   7.662   4.825   7.723 -1.9878 -2.4683 -1.1325
  316MOL    H2438454   7.736   4.811   7.885 -0.4961 -0.5741 -0.6593
  316MOL    H2538455   7.850   4.661   7.732  1.2326 -0.7315  2.2785
  316MOL    C2638456   7.690   4.569   7.638  0.3159 -0.3906 -0.4543
  316MOL    C2738457   7.764   4.439   7.582  0.9079  0.0843 -0.4640
  316MOL    F2838458   7.696   4.374   7.488 -0.3323  0.3232 -0.1705
  316MOL    H2938459   7.588   4.536   7.658 -0.3725  0.9054 -1.6961
  316MOL    H3038460   7.690   4.633   7.550  0.3979 -0.3506 -0.4256
  316MOL    H3138461   7.771   4.372   7.668 -0.1151  0.7939  0.1776
  316MOL    C3238462   7.899   4.476   7.525 -0.0656 -0.4168  0.4099
  316MOL    C3338463   7.971   4.357   7.454  0.0164 -0.0034  0.6689
  316MOL    F3438464   0.065   4.408   7.378  0.3663  0.0287  0.3344
  316MOL    H3538465   7.878   4.556   7.455 -1.3850  0.3105  1.6040
  316MOL    H3638466   7.962   4.513   7.605 -1.6208  1.4773  0.7933
  316MOL    H3738467   7.899   4.322   7.380 -0.5969  3.0265 -0.2345
  316MOL    C3838468   0.019   4.259   7.554 -0.0264  0.1764  0.0801
  316MOL    C3938469   0.116   4.157   7.485 -0.8317  0.0387  0.4811
  316MOL    F4038470   0.149   4.068   7.580  0.1203 -0.4014 -0.1650
  316MOL    H4138471   0.081   4.316   7.624 -0.3661 -0.2902  0.7641
  316MOL    H4238472   7.944   4.205   7.607 -0.0238  0.5950  0.5211
  316MOL    H4338473   0.207   4.210   7.456 -0.8366  0.1193  0.6122
  316MOL    C4438474   0.074   4.074   7.373 -0.7388  0.1675  0.2320
  316MOL    C4538475   7.948   3.989   7.406 -0.3247 -0.0862 -0.3929
  316MOL    F4638476   7.838   4.069   7.430 -0.2840 -0.1947  0.2039
  316MOL    H4738477   0.055   4.132   7.282  0.3433 -1.2957 -0.9364
  316MOL    H4838478   0.161   4.014   7.348 -0.7764  0.5668 -0.8997
  316MOL    H4938479   7.973   3.934   7.496  1.5969  0.4710 -0.5542
  316MOL    C5038480   7.911   3.890   7.298 -0.2304  0.9375 -1.0591
  316MOL    C5138481   7.807   3.783   7.347 -0.2747  0.7193 -0.2118
  316MOL    F5238482   7.688   3.843   7.349 -0.8760  0.0563 -0.0082
  316MOL    H5338483   7.872   3.941   7.210 -2.2340  1.9443  0.3615
  316MOL    H5438484   0.002   3.841   7.273  0.9138  1.4694  2.0131
  316MOL    H5538485   7.828   3.736   7.443 -0.5882  2.1862  0.5828
  316MOL    C5638486   7.802   3.667   7.240 -0.3852 -0.1491  0.4506
  316MOL    C5738487   7.706   3.554   7.275 -0.0025  0.0945 -0.0088
  316MOL    F5838488   7.579   3.589   7.262 -0.2548 -0.4128 -0.5167
  316MOL    H5938489   7.784   3.692   7.136  0.2026  1.3846  0.6984
  316MOL    H6038490   7.903   3.627   7.230  0.0357  1.0720 -0.2241
  316MOL    H6138491   7.710   3.516   7.377 -0.3661 -0.8212 -0.3349
  316MOL    C6238492   7.714   3.429   7.189 -0.5095  0.9177  0.4776
  316MOL    C6338493   7.639   3.301   7.239 -0.2850 -0.4662  0.4664
  316MOL    F6438494   7.507   3.338   7.251 -0.4598  0.3824 -0.2842
  316MOL    H6538495   7.678   3.468   7.093 -0.6749 -0.4732 -0.0388
  316MOL    H6638496   7.820   3.404   7.180 -0.9720 -0.7752 -0.6774
  316MOL    H6738497   7.669   3.266   7.337  1.6522  0.9904  0.4230
  316MOL    C6838498   7.647   3.196   7.124 -0.0679  0.8722 -0.2280
  316MOL    C6938499   7.541   3.090   7.140 -0.0716  0.2097  0.4014
  316MOL    F7038500   7.554   3.006   7.036 -0.3817  0.5989 -0.1701
  316MOL    H7138501   7.624   3.246   7.030  1.7339  1.1648 -0.5336
  316MOL    H7238502   7.747   3.151   7.120 -0.3317  0.0081  1.9608
  316MOL    H7338503   7.439   3.129   7.134 -1.0377 -2.1146  1.1887
  316MOL    C7438504   7.562   3.002   7.269  0.1917  0.2242 -0.0461
  316MOL    C7538505   7.456   2.887   7.275 -0.3349  0.4059  0.2564
  316MOL    F7638506   7.483   2.792   7.191 -0.3235  0.7013  0.0101
  316MOL    H7738507   7.664   2.964   7.270 -0.5532 -1.8375  1.7962
  316MOL    H7838508   7.543   3.072   7.351 -0.3186 -0.2625  0.2548
  316MOL    H7938509   7.358   2.925   7.245  0.4933  1.0157 -1.8131
  316MOL    C8038510   7.448   2.822   7.414  0.5435 -0.4749 -0.1203
  316MOL    C8138511   7.330   2.732   7.443  0.5012  0.8626  0.2364
  316MOL    F8238512   7.216   2.800   7.430  0.0978 -0.4295 -0.0792
  316MOL    H8338513   7.545   2.779   7.439  0.0442 -2.1207 -0.9807
  316MOL    H8438514   7.449   2.888   7.501 -1.3846  2.6508 -2.3274
  316MOL    H8538515   7.333   2.707   7.549  0.7070 -0.7807 -0.1416
  316MOL    C8638516   7.300   2.605   7.353 -0.1200  0.2727  0.1050
  316MOL    C8738517   7.402   2.493   7.386  0.1147 -0.3918  0.4359
  316MOL    F8838518   7.393   2.469   7.514 -0.5073 -0.1106  0.4238
  316MOL    H8938519   7.201   2.564   7.375  0.2679 -1.4342 -1.1443
  316MOL    H9038520   7.303   2.639   7.249  0.8912 -1.8284 -0.5962
  316MOL    H9138521   7.508   2.515   7.371  0.1362 -0.0019  1.1354
  316MOL    C9238522   7.375   2.361   7.307  0.2541  0.0656 -0.6987
  316MOL    C9338523   7.401   2.372   7.157  0.3087  0.1820  1.0167
  316MOL    F9438524   7.529   2.396   7.139 -0.1875 -0.1257  0.1673
  316MOL    H9538525   7.431   2.287   7.364 -1.4375 -0.9169 -0.2955
  316MOL    H9638526   7.271   2.332   7.319  0.4302 -1.0370 -1.8361
  316MOL    H9738527   7.350   2.462   7.123  0.0578 -0.5092 -0.4555
  316MOL    C9838528   7.371   2.251   7.071 -0.3034  0.4993 -0.0723
  316MOL    C9938529   7.231   2.237   7.011 -0.3707  0.1087  0.2556
  316MOL   F10038530   7.208   2.357   6.967  0.2423  0.2276  0.0155
  316MOL   H10138531   7.440   2.268   6.988  3.1965 -0.1568  2.5728
  316MOL   H10238532   7.402   2.155   7.113  2.8379  0.2696 -2.7432
  316MOL   H10338533   7.153   2.211   7.082  0.4881 -1.3234  0.6900
  316MOL   C10438534   7.243   2.138   6.894 -0.0918 -0.1730 -0.1802
  316MOL   C10538535   7.115   2.096   6.833 -0.3889 -0.6106  0.3734
  316MOL   F10638536   7.044   2.195   6.789 -0.2913  0.1334 -0.1248
  316MOL   H10738537   7.313   2.164   6.815 -1.9021  2.4350 -0.9948
  316MOL   H10838538   7.278   2.051   6.950  3.2927 -0.3854 -2.5238
  316MOL   H10938539   7.053   2.044   6.906 -1.1677 -1.7226 -1.0574
  316MOL   C11038540   7.136   2.001   6.720 -0.2512  0.8579  0.3113
  316MOL   C11138541   7.003   1.949   6.664 -0.1859 -0.9118 -0.1392
  316MOL   F11238542   6.949   2.044   6.579 -0.1471  0.1110  0.6120
  316MOL   H11338543   7.194   2.036   6.635 -0.6935 -0.6392 -0.6197
  316MOL   H11438544   7.201   1.920   6.753  0.7518  0.8063 -1.7145
  316MOL   H11538545   6.930   1.922   6.740 -0.2751  0.7714  0.3882
  316MOL   C11638546   7.011   1.816   6.583  0.5094  0.3288  0.4323
  316MOL   C11738547   6.869   1.788   6.524 -0.0387  0.2426  0.0648
  316MOL   F11838548   6.876   1.669   6.470  0.2604 -0.0439  0.2705
  316MOL   H11938549   7.074   1.833   6.495 -1.6700  2.4191 -0.7728
  316MOL   H12038550   7.052   1.734   6.642 -0.4402 -1.0616 -0.8214
  316MOL   H12138551   6.848   1.856   6.441  1.1473  0.6928  0.1318
  316MOL   H12238552   6.798   1.780   6.606  1.1905 -0.5217  1.0699
  317MOL     C138553   5.217   5.139   4.972 -0.0744 -0.0411 -0.4680
  317MOL     C238554   5.250   5.074   4.833 -0.4282  0.3675 -0.9695
  317MOL     F338555   5.209   4.944   4.843  0.4171  0.0218 -0.3633
  317MOL     H438556   5.273   5.092   5.052  1.0286  0.8622 -0.6945
  317MOL     H538557   5.109   5.139   4.988  0.0142  0.3230  0.1417
  317MOL     H638558   5.358   5.075   4.827  0.0847 -3.6733  3.9318
  317MOL     H738559   5.249   5.243   4.959  2.1936 -0.9236 -2.1545
  317MOL     C838560   5.181   5.139   4.711  0.4491 -0.4010 -0.9874
  317MOL     C938561   5.210   5.073   4.579 -0.1251 -0.1229  0.2546
  317MOL    F1038562   5.340   5.054   4.583 -0.2778 -0.4427 -0.0809
  317MOL    H1138563   5.076   5.143   4.740  1.0136 -0.0289  1.1228
  317MOL    H1238564   5.198   5.247   4.705 -0.9151 -0.0827  0.5433
  317MOL    H1338565   5.189   5.143   4.498 -1.8333 -2.3583 -1.3107
  317MOL    C1438566   5.132   4.939   4.546 -0.0199 -0.4519 -0.2376
  317MOL    C1538567   4.979   4.958   4.527  0.1322 -0.1955 -0.0604
  317MOL    F1638568   4.969   5.063   4.449  0.2747  0.1647 -0.9216
  317MOL    H1738569   5.167   4.901   4.450  0.6322 -0.0705 -0.1513
  317MOL    H1838570   5.138   4.874   4.634 -1.1110 -0.2449  0.0030
  317MOL    H1938571   4.937   4.980   4.625 -0.0810  0.2438 -0.2473
  317MOL    C2038572   4.908   4.835   4.466 -0.3895 -0.1891 -0.5198
  317MOL    C2138573   4.758   4.856   4.437 -0.3557  0.6712  0.6333
  317MOL    F2238574   4.743   4.950   4.344  0.3538  0.0249  0.3746
  317MOL    H2338575   4.965   4.800   4.380  1.7162  1.5746  0.1108
  317MOL    H2438576   4.919   4.751   4.534 -0.4606 -1.6674 -2.2741
  317MOL    H2538577   4.716   4.895   4.530 -1.1549 -0.7040  0.8562
  317MOL    C2638578   4.688   4.726   4.388  0.0088  0.4080 -0.1676
  317MOL    C2738579   4.530   4.731   4.381 -0.3999  0.0086 -0.0696
  317MOL    F2838580   4.476   4.808   4.485 -0.1344 -0.3298 -0.0230
  317MOL    H2938581   4.725   4.700   4.289  1.5662 -3.0488  1.2565
  317MOL    H3038582   4.718   4.644   4.453 -0.1644  1.6776  1.5809
  317MOL    H3138583   4.511   4.625   4.396 -0.7946  0.4774  2.9633
  317MOL    C3238584   4.478   4.781   4.245  0.7339 -0.1788  0.2553
  317MOL    C3338585   4.340   4.729   4.207  0.3638  0.0398  0.3481
  317MOL    F3438586   4.351   4.599   4.215  0.2697  0.0106  0.0175
  317MOL    H3538587   4.481   4.890   4.247  1.0987 -0.1221 -1.7277
  317MOL    H3638588   4.558   4.761   4.174  0.1509 -1.5196 -0.0383
  317MOL    H3738589   4.320   4.744   4.101  0.5831  3.2041  0.7129
  317MOL    C3838590   4.229   4.773   4.298 -0.0006  0.5654  0.1051
  317MOL    C3938591   4.081   4.742   4.248 -0.2566  0.3667 -0.5460
  317MOL    F4038592   4.001   4.777   4.340  0.0559 -0.4445  0.2178
  317MOL    H4138593   4.235   4.727   4.397 -1.0591 -0.4363 -0.2791
  317MOL    H4238594   4.233   4.880   4.315  3.0128  0.4783  0.2232
  317MOL    H4338595   4.061   4.634   4.248  2.0157 -0.0917  0.9681
  317MOL    C4438596   4.028   4.820   4.125  0.2461 -0.2070 -0.9974
  317MOL    C4538597   3.890   4.783   4.072  0.4829 -0.2574  0.4133
  317MOL    F4638598   3.803   4.835   4.159  0.4724 -0.0074 -0.3130
  317MOL    H4738599   4.025   4.929   4.131 -1.9419 -0.2139 -1.5577
  317MOL    H4838600   4.104   4.801   4.049  0.4206 -1.3763 -0.5473
  317MOL    H4938601   3.882   4.674   4.069  1.4084 -0.3614  1.2782
  317MOL    C5038602   3.862   4.836   3.930 -0.3219 -0.2068  0.0143
  317MOL    C5138603   3.715   4.829   3.891 -0.2552  0.0767 -0.2473
  317MOL    F5238604   3.704   4.900   3.785 -0.0824  0.0571  0.1564
  317MOL    H5338605   3.891   4.941   3.926 -1.5588  0.1388  0.0329
  317MOL    H5438606   3.932   4.789   3.860 -0.6889 -2.2866  1.0056
  317MOL    H5538607   3.645   4.874   3.961  0.3027  2.8235 -1.3972
  317MOL    C5638608   3.661   4.687   3.875  0.2247  0.1295  0.1121
  317MOL    C5738609   3.730   4.605   3.758  0.0717 -0.5215 -0.0090
  317MOL    F5838610   3.831   4.535   3.799  0.0691 -0.0442  0.2613
  317MOL    H5938611   3.670   4.640   3.973  1.5300 -0.1840 -0.1509
  317MOL    H6038612   3.555   4.698   3.852  0.3023  0.3396 -0.1596
  317MOL    H6138613   3.750   4.679   3.681  1.2414 -0.2242  0.5829
  317MOL    C6238614   3.624   4.509   3.695  0.0597  0.4181  0.0350
  317MOL    C6338615   3.670   4.459   3.556 -0.5638  0.5609 -0.2952
  317MOL    F6438616   3.780   4.391   3.582 -0.2207 -0.5825  0.0171
  317MOL    H6538617   3.618   4.428   3.768 -0.5493 -0.9131 -1.4777
  317MOL    H6638618   3.523   4.548   3.703 -0.9817 -1.7943 -1.7288
  317MOL    H6738619   3.695   4.535   3.482 -1.4728  0.2560 -0.9209
  317MOL    C6838620   3.555   4.375   3.496  0.5319 -0.1284 -0.1112
  317MOL    C6938621   3.587   4.302   3.363 -0.0147  0.5751 -0.2323
  317MOL    F7038622   3.698   4.224   3.368  0.0582 -0.1127 -0.2945
  317MOL    H7138623   3.521   4.307   3.574  1.5006  1.1111  1.4326
  317MOL    H7238624   3.468   4.440   3.481  0.3497  0.2942  2.5965
  317MOL    H7338625   3.610   4.377   3.287 -0.3388 -0.4564 -1.3694
  317MOL    C7438626   3.478   4.215   3.307 -0.1025 -0.2141  0.0483
  317MOL    C7538627   3.340   4.284   3.292  0.7669 -0.6765 -1.0650
  317MOL    F7638628   3.345   4.398   3.210  0.6795  0.1476  0.1820
  317MOL    H7738629   3.507   4.191   3.204  0.0384 -0.0684  0.0548
  317MOL    H7838630   3.459   4.122   3.360  0.1359 -0.4903 -0.3457
  317MOL    H7938631   3.296   4.329   3.381  0.2075 -0.2960 -1.5209
  317MOL    C8038632   3.233   4.193   3.226 -0.3914  0.4842 -0.5871
  317MOL    C8138633   3.239   4.190   3.069  0.2469  0.4390  0.1776
  317MOL    F8238634   3.326   4.098   3.031 -0.3391 -0.2537 -0.5652
  317MOL    H8338635   3.246   4.095   3.272  3.1599  1.1932  0.0363
  317MOL    H8438636   3.137   4.233   3.260 -0.3295  0.2736 -0.1570
  317MOL    H8538637   3.269   4.289   3.035  0.6994 -0.3235 -1.6699
  317MOL    C8638638   3.104   4.158   3.009  0.3774 -0.4017  0.0803
  317MOL    C8738639   3.010   4.279   3.018  0.8743 -0.9541  0.1049
  317MOL    F8838640   3.063   4.389   2.959  0.3362 -0.2813  0.0502
  317MOL    H8938641   3.119   4.147   2.901 -0.1957 -0.2737 -0.0118
  317MOL    H9038642   3.067   4.071   3.062 -0.8940  0.9469  1.4303
  317MOL    H9138643   2.988   4.297   3.124  2.4208  0.1109  0.2565
  317MOL    C9238644   2.879   4.262   2.938  0.4910  0.2309  0.0132
  317MOL    C9338645   2.771   4.373   2.941 -0.2654  0.4901  0.5064
  317MOL    F9438646   2.664   4.322   2.876 -0.6158  0.4897 -0.1008
  317MOL    H9538647   2.906   4.224   2.840  0.4099 -0.4044  0.2337
  317MOL    H9638648   2.829   4.180   2.990 -0.6727  1.1003  0.2923
  317MOL    H9738649   2.797   4.453   2.872 -0.0264 -0.3207 -0.3663
  317MOL    C9838650   2.735   4.436   3.073 -0.2362 -0.3685 -0.0116
  317MOL    C9938651   2.812   4.575   3.098 -1.0148  0.2152  0.6603
  317MOL   F10038652   2.742   4.651   3.011  0.7151  0.3000 -0.1912
  317MOL   H10138653   2.626   4.442   3.078 -0.6454 -5.5006 -0.0039
  317MOL   H10238654   2.754   4.368   3.156 -0.2817 -0.3289  0.0321
  317MOL   H10338655   2.912   4.572   3.055 -1.7356  0.0184 -1.0463
  317MOL   C10438656   2.807   4.632   3.238 -0.3659  0.5777 -0.2942
  317MOL   C10538657   2.891   4.560   3.341  0.2402  0.6669  0.7168
  317MOL   F10638658   3.019   4.575   3.312 -0.0091  0.2902  0.4558
  317MOL   H10738659   2.837   4.736   3.228 -0.1902  0.5936  0.3753
  317MOL   H10838660   2.701   4.644   3.264 -0.9062 -2.0647 -1.1669
  317MOL   H10938661   2.879   4.452   3.328  1.4123  0.8519 -2.5020
  317MOL   C11038662   2.867   4.595   3.490 -0.2893 -0.3911  0.1819
  317MOL   C11138663   2.719   4.582   3.541 -0.6448  0.0115  0.5160
  317MOL   F11238664   2.690   4.461   3.583  0.3006  0.1927 -0.4739
  317MOL   H11338665   2.923   4.525   3.552  0.7297  0.3315  0.0897
  317MOL   H11438666   2.899   4.697   3.511  1.5616 -0.3869 -2.4517
  317MOL   H11538667   2.650   4.603   3.459 -0.6237 -0.6385  0.3260
  317MOL   C11638668   2.682   4.682   3.651 -0.5598  0.5950 -0.1447
  317MOL   C11738669   2.547   4.680   3.716 -0.2698 -0.7777  1.0276
  317MOL   F11838670   2.517   4.804   3.767 -0.0566 -0.1195 -0.0118
  317MOL   H11938671   2.749   4.665   3.735 -1.4575  1.2409  0.7080
  317MOL   H12038672   2.704   4.779   3.607  0.7739  0.1387 -0.5096
  317MOL   H12138673   2.553   4.612   3.802 -1.7522 -2.5978 -0.2848
  317MOL   H12238674   2.467   4.652   3.648 -0.2051  0.8546  0.2429
  318MOL     C138675   6.085   1.628   2.511  0.1443 -0.1971  0.2250
  318MOL     C238676   5.954   1.584   2.450 -0.7084  0.6030 -0.1790
  318MOL     F338677   5.852   1.647   2.507  0.1891 -0.4032 -0.3722
  318MOL     H438678   6.171   1.600   2.450  0.5769  1.5668  0.0182
  318MOL     H538679   6.102   1.574   2.605  2.0390 -0.7680 -0.4101
  318MOL     H638680   5.941   1.480   2.479 -1.3858  0.8994  0.5985
  318MOL     H738681   6.099   1.732   2.541  3.5167 -0.6447  0.4004
  318MOL     C838682   5.948   1.604   2.293  0.3785 -0.2398  0.0308
  318MOL     C938683   5.858   1.506   2.221 -0.4095  0.2524  0.4921
  318MOL    F1038684   5.735   1.545   2.247 -0.1211  0.1159 -0.4880
  318MOL    H1138685   5.928   1.706   2.261  1.3255  0.9397  2.9997
  318MOL    H1238686   6.052   1.595   2.264  0.9737  0.1196  1.9569
  318MOL    H1338687   5.876   1.406   2.259 -1.5799  0.7819  2.5430
  318MOL    C1438688   5.870   1.491   2.070  0.3566 -0.2718 -0.3210
  318MOL    C1538689   5.800   1.364   2.026  0.6697 -0.1360 -0.1414
  318MOL    F1638690   5.670   1.374   2.056 -0.1435  0.2637 -0.2307
  318MOL    H1738691   5.838   1.577   2.011  1.6648 -1.5970 -3.0776
  318MOL    H1838692   5.973   1.476   2.036  0.8243  0.4874  0.7348
  318MOL    H1938693   5.831   1.278   2.086 -0.5037 -0.5930 -0.1732
  318MOL    C2038694   5.812   1.322   1.880  0.3091 -0.0917 -0.3098
  318MOL    C2138695   5.720   1.399   1.782  0.1813 -0.0887  0.8180
  318MOL    F2238696   5.773   1.404   1.664  0.4104 -0.5951  0.3011
  318MOL    H2338697   5.915   1.341   1.851 -0.5344  1.9872 -2.1037
  318MOL    H2438698   5.803   1.214   1.868  0.7802 -0.1168 -0.4427
  318MOL    H2538699   5.727   1.504   1.811  1.5078  1.2163 -3.7599
  318MOL    C2638700   5.579   1.355   1.767  0.1417  0.0794  0.2218
  318MOL    C2738701   5.542   1.218   1.708 -0.1477 -0.0589  0.4916
  318MOL    F2838702   5.557   1.129   1.805  0.7568  0.4430 -0.1558
  318MOL    H2938703   5.533   1.362   1.865 -0.9015 -0.4712 -0.2102
  318MOL    H3038704   5.527   1.436   1.715 -1.1028 -0.0312  1.2783
  318MOL    H3138705   5.609   1.190   1.627 -0.9413 -1.9295  0.4523
  318MOL    C3238706   5.395   1.214   1.657 -0.2176 -0.3264  0.7709
  318MOL    C3338707   5.278   1.201   1.754  0.2973  0.0897 -0.2969
  318MOL    F3438708   5.248   1.318   1.813  0.3082 -0.2541  0.1641
  318MOL    H3538709   5.369   1.300   1.596 -2.2173 -0.7012  1.0431
  318MOL    H3638710   5.389   1.127   1.592  2.3455  0.7800 -0.9930
  318MOL    H3738711   5.305   1.129   1.831  0.7514 -0.3246 -0.8486
  318MOL    C3838712   5.152   1.137   1.692  0.1215  0.2081  0.6695
  318MOL    C3938713   5.070   1.235   1.608  0.0353  0.1182  0.0708
  318MOL    F4038714   5.140   1.288   1.503  0.0157  0.3355  0.5982
  318MOL    H4138715   5.175   1.052   1.629  0.6319 -0.1283  1.2997
  318MOL    H4238716   5.091   1.090   1.770 -0.3354  0.7001  0.6168
  318MOL    H4338717   5.039   1.320   1.669 -3.6057 -0.4052 -0.9006
  318MOL    C4438718   4.945   1.170   1.557 -0.8605 -0.3631  0.2799
  318MOL    C4538719   4.857   1.264   1.470  0.3395  0.5138  0.3448
  318MOL    F4638720   4.758   1.189   1.407 -0.2357  0.5497 -0.8240
  318MOL    H4738721   4.978   1.093   1.487 -2.9062  0.3690 -1.5758
  318MOL    H4838722   4.881   1.121   1.630 -2.8639  0.7285 -0.7098
  318MOL    H4938723   4.920   1.304   1.390 -1.4365  0.7919 -0.9411
  318MOL    C5038724   4.789   1.379   1.544 -0.4286 -0.4260 -0.6560
  318MOL    C5138725   4.713   1.460   1.445 -0.2275  0.4558 -0.1549
  318MOL    F5238726   4.669   1.556   1.527 -0.4086  0.4091 -0.6714
  318MOL    H5338727   4.726   1.339   1.623  0.5564  0.3677  0.5578
  318MOL    H5438728   4.870   1.437   1.587  0.0863 -0.3510 -1.7130
  318MOL    H5538729   4.615   1.420   1.416  0.4874 -0.8475 -0.8564
  318MOL    C5638730   4.774   1.520   1.318 -0.7109  0.0702 -0.2486
  318MOL    C5738731   4.675   1.585   1.219 -0.3734 -0.2027 -0.2329
  318MOL    F5838732   4.746   1.676   1.153 -0.1910  0.1755 -0.0966
  318MOL    H5938733   4.846   1.596   1.347 -1.0528  0.6913 -0.9877
  318MOL    H6038734   4.834   1.449   1.261 -1.2111  0.0762 -0.7942
  318MOL    H6138735   4.600   1.650   1.265  0.1401  0.2494 -0.0255
  318MOL    C6238736   4.609   1.491   1.119  0.0866  0.1821 -0.2233
  318MOL    C6338737   4.504   1.565   1.031  0.1206  0.4363  0.6144
  318MOL    F6438738   4.482   1.484   0.927  0.1248  0.2518  0.5579
  318MOL    H6538739   4.682   1.431   1.066  0.7665 -1.3098  2.3040
  318MOL    H6638740   4.551   1.419   1.176 -2.5758  2.4160  0.0162
  318MOL    H6738741   4.540   1.664   1.004  0.4305 -0.1031 -0.9616
  318MOL    C6838742   4.367   1.579   1.102  0.2746  0.1411 -0.0109
  318MOL    C6938743   4.268   1.680   1.035 -0.5866  0.5223 -0.1880
  318MOL    F7038744   4.318   1.804   1.033  0.2339 -0.2209 -0.3390
  318MOL    H7138745   4.326   1.479   1.118  1.0755 -0.2898 -0.5833
  318MOL    H7238746   4.380   1.609   1.206 -0.9185  2.6936 -0.5763
  318MOL    H7338747   4.178   1.689   1.096 -0.6016 -3.0726  0.4427
  318MOL    C7438748   4.243   1.631   0.894 -0.3872  0.8365  0.0900
  318MOL    C7538749   4.134   1.686   0.810  0.7416 -0.3636 -0.0051
  318MOL    F7638750   4.014   1.661   0.866  0.4186  0.2892 -0.3164
  318MOL    H7738751   4.333   1.619   0.833 -0.0030 -0.1651  0.8427
  318MOL    H7838752   4.208   1.531   0.920 -4.0248  2.5265  2.0928
  318MOL    H7938753   4.135   1.620   0.723 -1.3328 -0.9939  0.4329
  318MOL    C8038754   4.148   1.837   0.774  0.9452 -0.7358 -0.3872
  318MOL    C8138755   4.275   1.872   0.696 -0.4664  0.7159  0.4173
  318MOL    F8238756   4.253   1.811   0.581  0.0228 -0.0442 -0.2618
  318MOL    H8338757   4.061   1.876   0.721 -0.2928 -0.4142  1.8484
  318MOL    H8438758   4.150   1.902   0.861  2.6358  0.7050 -1.4744
  318MOL    H8538759   4.361   1.824   0.744 -1.0675 -1.2453 -0.4274
  318MOL    C8638760   4.288   2.020   0.673  0.4242  0.1216  0.5616
  318MOL    C8738761   4.344   2.097   0.798  0.3585  0.5964 -0.1285
  318MOL    F8838762   4.467   2.056   0.808 -0.1935  0.0113  0.5471
  318MOL    H8938763   4.364   2.040   0.596  1.8438  1.0983  2.1696
  318MOL    H9038764   4.196   2.059   0.630  0.6566 -0.7182 -0.7265
  318MOL    H9138765   4.291   2.077   0.891  0.1771 -1.3688 -0.6390
  318MOL    C9238766   4.356   2.251   0.798 -0.7490  0.2523  0.2637
  318MOL    C9338767   4.228   2.327   0.768  0.3791 -0.7090  0.3443
  318MOL    F9438768   4.179   2.318   0.641 -0.2365 -0.4796 -0.3124
  318MOL    H9538769   4.385   2.279   0.899  0.7661 -3.3302  0.9217
  318MOL    H9638770   4.431   2.281   0.725 -1.1388 -0.3271 -0.3828
  318MOL    H9738771   4.252   2.433   0.777  1.6504 -1.0499  1.1856
  318MOL    C9838772   4.108   2.309   0.868 -0.1022  0.4298  0.8572
  318MOL    C9938773   4.155   2.357   1.012  0.0201  0.2652  0.3405
  318MOL   F10038774   4.179   2.492   1.006 -0.3110  0.9538 -0.1884
  318MOL   H10138775   4.027   2.370   0.828  0.2846 -0.0523 -0.6958
  318MOL   H10238776   4.071   2.206   0.874 -2.6008  1.3430  1.6990
  318MOL   H10338777   4.246   2.311   1.050  0.4817 -0.3874 -1.5121
  318MOL   C10438778   4.055   2.335   1.120  0.3101 -0.5510  0.2262
  318MOL   C10538779   4.095   2.397   1.258 -0.0269 -0.0249 -0.0997
  318MOL   F10638780   4.098   2.529   1.246 -0.6444 -0.2282  0.7423
  318MOL   H10738781   3.957   2.374   1.090  0.0686 -3.1041 -2.5632
  318MOL   H10838782   4.044   2.228   1.136  1.5506 -0.7936 -0.4751
  318MOL   H10938783   4.200   2.378   1.281 -0.0411 -1.3114 -1.0341
  318MOL   C11038784   3.992   2.366   1.366  0.6907  0.4979  0.0232
  318MOL   C11138785   4.038   2.398   1.508 -0.5146  0.3282 -0.1323
  318MOL   F11238786   4.028   2.530   1.517 -0.1448  0.4506 -0.0792
  318MOL   H11338787   3.897   2.416   1.350  1.0594  1.4950  0.9174
  318MOL   H11438788   3.964   2.261   1.356  1.3895 -0.1225  3.7064
  318MOL   H11538789   4.142   2.368   1.527 -0.4540 -0.4068 -1.5389
  318MOL   C11638790   3.957   2.342   1.622  0.6259 -0.8015  0.6478
  318MOL   C11738791   4.029   2.372   1.760 -0.1781 -1.2601 -0.4655
  318MOL   F11838792   3.956   2.323   1.856 -0.1265 -1.0399 -0.0693
  318MOL   H11938793   3.859   2.389   1.611  0.6339 -0.7461  0.8152
  318MOL   H12038794   3.936   2.236   1.605 -1.9929  0.0364 -1.8403
  318MOL   H12138795   4.042   2.477   1.787  1.6566 -1.8192  0.9464
  318MOL   H12238796   4.129   2.328   1.766  1.2636  2.0047  0.1034
  319MOL     C138797   0.083   2.133   4.770  0.3266  0.0829 -0.2191
  319MOL     C238798   0.219   2.128   4.711 -0.3365 -0.0586  0.2298
  319MOL     F338799   0.252   2.254   4.674  0.6101 -0.3237 -0.1255
  319MOL     H438800   0.059   2.037   4.815  1.3925  0.7853  1.9041
  319MOL     H538801   0.007   2.153   4.694 -0.8086 -3.2500 -0.0361
  319MOL     H638802   0.216   2.068   4.620 -1.4514 -0.7582  0.7204
  319MOL     H738803   0.084   2.199   4.857  2.8249  1.1602 -1.0276
  319MOL     C838804   0.325   2.085   4.816 -0.0696 -0.1135 -0.8024
  319MOL     C938805   0.471   2.128   4.780 -0.1897  0.0899  0.1676
  319MOL    F1038806   0.539   2.086   4.888  0.0938 -0.2024  0.1310
  319MOL    H1138807   0.303   2.133   4.912  1.5711 -1.8406  0.4734
  319MOL    H1238808   0.330   1.976   4.815 -2.4319 -0.2588  0.0648
  319MOL    H1338809   0.472   2.236   4.766  0.8358  0.1340  0.5256
  319MOL    C1438810   0.529   2.073   4.644 -0.1373  0.4886 -0.4773
  319MOL    C1538811   0.678   2.095   4.629  0.0628  0.4873  0.3948
  319MOL    F1638812   0.717   2.016   4.534 -0.1449 -1.0801 -0.3978
  319MOL    H1738813   0.507   1.967   4.634  0.7503  0.0665  1.6715
  319MOL    H1838814   0.483   2.117   4.556 -0.5047 -0.2473 -0.6533
  319MOL    H1938815   0.726   2.059   4.720  1.2973 -1.4470 -0.9813
  319MOL    C2038816   0.712   2.237   4.581 -0.3572 -0.2999  0.3061
  319MOL    C2138817   0.856   2.278   4.616  0.2126  0.2395  0.9051
  319MOL    F2238818   0.861   2.294   4.749 -0.4350 -0.1090 -0.1237
  319MOL    H2338819   0.696   2.242   4.473  1.7063 -2.3299 -0.1607
  319MOL    H2438820   0.641   2.304   4.629 -1.4610 -1.2304 -0.0046
  319MOL    H2538821   0.870   2.382   4.586  2.7101 -0.2228  0.3013
  319MOL    C2638822   0.969   2.195   4.553  0.0702  0.7477  0.6731
  319MOL    C2738823   1.122   2.223   4.590  0.4475  0.2206 -0.1808
  319MOL    F2838824   1.134   2.176   4.715 -0.2409 -0.2217  0.0542
  319MOL    H2938825   0.945   2.090   4.570  4.0791 -0.0357  2.0159
  319MOL    H3038826   0.958   2.200   4.444 -2.1239  1.7766  0.9131
  319MOL    H3138827   1.153   2.327   4.589 -0.6613  0.5624  0.3449
  319MOL    C3238828   1.213   2.149   4.501 -0.3434  0.1275 -0.4096
  319MOL    C3338829   1.355   2.194   4.493 -0.3507  0.0324 -0.3471
  319MOL    F3438830   1.408   2.206   4.612  0.4261 -0.3462  0.3873
  319MOL    H3538831   1.221   2.043   4.524 -1.7539  0.3178  1.0137
  319MOL    H3638832   1.175   2.139   4.399  0.1661 -2.6679 -0.3493
  319MOL    H3738833   1.342   2.300   4.473 -4.3386 -0.6722 -2.0010
  319MOL    C3838834   1.452   2.106   4.405  0.5861 -0.0767 -0.5936
  319MOL    C3938835   1.594   2.162   4.383 -0.0848  0.1867 -0.6135
  319MOL    F4038836   1.669   2.065   4.341  0.1688 -0.7375  0.5740
  319MOL    H4138837   1.452   2.001   4.434  0.0226 -0.4388 -1.8511
  319MOL    H4238838   1.406   2.108   4.306  0.3845 -1.5671 -0.5404
  319MOL    H4338839   1.628   2.200   4.479 -0.7792  0.8536 -0.6256
  319MOL    C4438840   1.603   2.270   4.277  0.4597 -0.2574  0.3638
  319MOL    C4538841   1.737   2.341   4.254 -0.3995 -0.1577 -0.3469
  319MOL    F4638842   1.736   2.432   4.157  0.0079 -0.2140 -0.4044
  319MOL    H4738843   1.587   2.224   4.180  2.1405 -1.4919  0.6405
  319MOL    H4838844   1.526   2.345   4.293  0.4268 -0.0688 -0.6263
  319MOL    H4938845   1.804   2.268   4.210  1.7762  0.3719  2.0119
  319MOL    C5038846   1.803   2.415   4.367  0.6260  0.4431  0.0675
  319MOL    C5138847   1.946   2.473   4.333  0.4566  0.4882  0.2202
  319MOL    F5238848   1.967   2.574   4.417  0.6385  0.0266 -0.1913
  319MOL    H5338849   1.736   2.498   4.392 -0.1856 -0.3934  0.7300
  319MOL    H5438850   1.796   2.349   4.454  1.0978  1.9184  1.2451
  319MOL    H5538851   1.943   2.526   4.238 -2.1656  0.1140  0.0579
  319MOL    C5638852   2.058   2.370   4.350  0.3328 -0.5758  0.5536
  319MOL    C5738853   2.187   2.404   4.263 -1.4359 -0.5084 -0.3999
  319MOL    F5838854   2.262   2.296   4.277 -0.1782 -0.4700 -0.1031
  319MOL    H5938855   2.097   2.369   4.452  3.0136 -1.0971 -0.4286
  319MOL    H6038856   2.019   2.272   4.325 -1.8359 -0.2814  2.6229
  319MOL    H6138857   2.240   2.489   4.305 -1.4063 -0.0877 -1.2738
  319MOL    C6238858   2.169   2.438   4.111 -0.7340  0.7020 -0.0655
  319MOL    C6338859   2.296   2.426   4.018  0.2527 -0.7188  0.1510
  319MOL    F6438860   2.391   2.496   4.071  0.0450  0.1211  0.2747
  319MOL    H6538861   2.088   2.376   4.074  0.2283  0.4293 -1.7937
  319MOL    H6638862   2.131   2.539   4.099 -0.5626  0.5427 -2.1414
  319MOL    H6738863   2.267   2.476   3.925  0.0540 -0.0349  0.5777
  319MOL    C6838864   2.338   2.281   3.977 -0.0532  0.1658 -0.5902
  319MOL    C6938865   2.229   2.192   3.913  0.4903  0.1761 -0.4416
  319MOL    F7038866   2.174   2.248   3.808  0.5777  0.0486 -0.2337
  319MOL    H7138867   2.426   2.289   3.913 -0.0393  0.9550 -0.4671
  319MOL    H7238868   2.381   2.232   4.064 -0.5047  1.3602  0.3077
  319MOL    H7338869   2.154   2.185   3.991  0.5283  1.3784 -0.2853
  319MOL    C7438870   2.284   2.050   3.867 -0.4504 -0.6694 -0.8121
  319MOL    C7538871   2.170   1.941   3.864 -0.0654 -0.2679  0.1630
  319MOL    F7638872   2.089   1.982   3.766  0.6654 -0.0843  0.1865
  319MOL    H7738873   2.329   2.058   3.769  1.9272  2.1545  0.4536
  319MOL    H7838874   2.365   2.015   3.932  0.7282 -2.7225 -3.3023
  319MOL    H7938875   2.114   1.937   3.958  1.2239  1.0749  1.0079
  319MOL    C8038876   2.209   1.795   3.835  0.3358  0.2703  0.3368
  319MOL    C8138877   2.273   1.720   3.951 -0.5829 -0.3698  0.7251
  319MOL    F8238878   2.171   1.705   4.034 -0.0952 -0.4046 -0.0837
  319MOL    H8338879   2.114   1.751   3.805  0.8789 -0.8813  0.2669
  319MOL    H8438880   2.271   1.782   3.746 -2.5405 -1.3174 -1.5445
  319MOL    H8538881   2.347   1.785   3.997  0.6224 -2.6141  2.0196
  319MOL    C8638882   2.324   1.581   3.930  0.3536  0.4378  1.1944
  319MOL    C8738883   2.460   1.584   3.861 -0.9359 -0.2748  0.1050
  319MOL    F8838884   2.549   1.622   3.948 -0.3876 -0.1706  0.0750
  319MOL    H8938885   2.325   1.532   4.027  0.4863  1.5921  1.7782
  319MOL    H9038886   2.253   1.528   3.866  0.0064  1.7414  0.4844
  319MOL    H9138887   2.462   1.659   3.783  2.8296 -0.3537  0.0384
  319MOL    C9238888   2.511   1.449   3.806  0.3385 -0.9574 -0.5270
  319MOL    C9338889   2.614   1.471   3.685  0.0159 -0.7375 -0.5616
  319MOL    F9438890   2.701   1.572   3.722  0.2702  0.3804  0.1211
  319MOL    H9538891   2.563   1.393   3.883  0.9938 -0.3323 -0.5096
  319MOL    H9638892   2.421   1.395   3.777 -1.6033  1.9882 -0.3188
  319MOL    H9738893   2.567   1.505   3.593 -0.4039  1.5960  0.4733
  319MOL    C9838894   2.694   1.346   3.651  0.4186 -0.0516 -0.0901
  319MOL    C9938895   2.785   1.366   3.526  0.0581  0.7352  0.0286
  319MOL   F10038896   2.879   1.458   3.558 -0.0221  0.4479  0.7045
  319MOL   H10138897   2.750   1.313   3.738 -1.0003  2.1827  1.7416
  319MOL   H10238898   2.628   1.261   3.636  0.8796 -0.0002 -2.7025
  319MOL   H10338899   2.719   1.394   3.444 -0.6096 -2.6594 -0.6817
  319MOL   C10438900   2.855   1.244   3.474  1.0172 -0.1552  0.2874
  319MOL   C10538901   2.967   1.179   3.561 -0.8864 -0.2438 -0.1806
  319MOL   F10638902   2.922   1.138   3.680  0.9027 -0.3283 -0.1956
  319MOL   H10738903   2.790   1.158   3.460 -2.1191  1.6731  3.0079
  319MOL   H10838904   2.888   1.267   3.372 -2.0865  0.3770 -0.6529
  319MOL   H10938905   3.043   1.256   3.572 -2.4219  1.7613 -2.9237
  319MOL   C11038906   3.037   1.052   3.499 -0.1486 -0.4213 -0.0148
  319MOL   C11138907   3.169   0.998   3.570  0.1621 -0.5464  0.4538
  319MOL   F11238908   3.199   0.888   3.507  0.6395 -0.2136  0.1410
  319MOL   H11338909   2.958   0.977   3.489  0.0404 -0.9845  2.3058
  319MOL   H11438910   3.058   1.075   3.395 -0.6567 -1.2303 -0.3022
  319MOL   H11538911   3.149   0.954   3.667 -2.3717  0.2485  0.3477
  319MOL   C11638912   3.286   1.100   3.557 -0.0298 -0.5971 -0.4864
  319MOL   C11738913   3.415   1.035   3.597  0.0378 -0.4868  0.2287
  319MOL   F11838914   3.501   1.122   3.648  0.0697 -0.0965  0.1640
  319MOL   H11938915   3.300   1.139   3.456 -1.0134 -1.0550 -0.8043
  319MOL   H12038916   3.258   1.181   3.623  1.6165 -0.3554 -0.0601
  319MOL   H12138917   3.454   0.975   3.514  1.0734 -0.0142  0.3649
  319MOL   H12238918   3.393   0.967   3.680 -1.8760  2.0652  1.8716
  320MOL     C138919   0.872   3.627   0.538  0.2235  0.1299  0.3298
  320MOL     C238920   0.821   3.485   0.568  0.0604 -0.5240  0.3064
  320MOL     F338921   0.917   3.400   0.540  0.1901 -0.2281 -1.1011
  320MOL     H438922   0.946   3.657   0.612 -0.1861  1.4317  0.2277
  320MOL     H538923   0.790   3.699   0.547  0.7345  0.7664 -0.1446
  320MOL     H638924   0.734   3.471   0.505 -1.2177  3.7311  0.9581
  320MOL     H738925   0.915   3.632   0.439 -0.2840 -0.4219  0.0768
  320MOL     C838926   0.778   3.467   0.711  0.7173 -0.3651 -0.1423
  320MOL     C938927   0.796   3.324   0.767  0.3079 -0.0259  0.7648
  320MOL    F1038928   0.931   3.311   0.789 -0.2762  0.3437 -0.0086
  320MOL    H1138929   0.831   3.537   0.776 -0.8548 -0.5269  1.3358
  320MOL    H1238930   0.673   3.491   0.726  1.3291  1.0115  2.2404
  320MOL    H1338931   0.771   3.247   0.694 -1.2868  1.5062 -0.3649
  320MOL    C1438932   0.708   3.292   0.888 -0.4829  0.3477  0.6186
  320MOL    C1538933   0.728   3.144   0.937 -0.3185  0.4025 -0.7769
  320MOL    F1638934   0.845   3.151   0.991  0.5243 -0.2646  0.1896
  320MOL    H1738935   0.736   3.370   0.959 -2.4028  1.6689 -0.0319
  320MOL    H1838936   0.600   3.290   0.873 -0.5136 -1.6778  1.0126
  320MOL    H1938937   0.735   3.074   0.853 -1.2872  0.5636 -0.9958
  320MOL    C2038938   0.630   3.088   1.045 -0.3473 -0.0209 -0.1062
  320MOL    C2138939   0.611   3.176   1.167  0.1305 -0.5863 -0.7296
  320MOL    F2238940   0.521   3.270   1.139  0.2862  0.3929 -0.3824
  320MOL    H2338941   0.535   3.067   0.996 -1.4102  0.5437  1.6572
  320MOL    H2438942   0.674   2.991   1.070  2.5244  0.8680 -1.4646
  320MOL    H2538943   0.699   3.236   1.190  0.0370 -0.3318 -1.0366
  320MOL    C2638944   0.572   3.087   1.286  0.0616  0.1227 -0.7615
  320MOL    C2738945   0.573   3.159   1.424 -0.8632  0.6802 -0.8759
  320MOL    F2838946   0.700   3.198   1.444 -0.2179 -0.4506  0.3676
  320MOL    H2938947   0.474   3.044   1.263 -0.4370  0.1296  1.1885
  320MOL    H3038948   0.635   3.002   1.309 -2.9728 -1.8871  0.5695
  320MOL    H3138949   0.545   3.083   1.498  3.6371  1.2506  1.6194
  320MOL    C3238950   0.479   3.287   1.423  0.4334 -0.1463 -0.3527
  320MOL    C3338951   0.333   3.243   1.402  0.3570 -0.1076 -0.3853
  320MOL    F3438952   0.290   3.154   1.497  0.2537 -0.5803 -0.4425
  320MOL    H3538953   0.496   3.344   1.514  0.4791  1.4555 -1.3505
  320MOL    H3638954   0.513   3.357   1.347  0.0686 -0.7978 -1.1279
  320MOL    H3738955   0.320   3.199   1.303  1.0818 -3.2928  0.8739
  320MOL    C3838956   0.242   3.367   1.407  0.6964  0.7023 -0.6197
  320MOL    C3938957   0.106   3.346   1.349  0.0012  0.0795  0.8400
  320MOL    F4038958   0.049   3.251   1.420 -0.5169 -0.0304 -0.1158
  320MOL    H4138959   0.236   3.403   1.510  1.5841  0.0372 -0.3306
  320MOL    H4238960   0.292   3.438   1.341 -0.3457  1.1739 -0.9146
  320MOL    H4338961   0.117   3.305   1.249 -2.0676  0.1762  0.5606
  320MOL    C4438962   0.027   3.484   1.353 -0.7033 -0.0037  0.1949
  320MOL    C4538963   7.911   3.477   1.251  0.2909 -0.3546 -0.6898
  320MOL    F4638964   7.851   3.598   1.269 -0.2602 -0.0996  0.2586
  320MOL    H4738965   7.991   3.490   1.454  1.1571 -3.2611  1.1936
  320MOL    H4838966   0.100   3.563   1.336 -0.8710  0.1212  0.0493
  320MOL    H4938967   7.838   3.407   1.289 -1.2330  0.5608 -1.8777
  320MOL    C5038968   7.947   3.461   1.105 -0.5080 -0.1532 -0.0243
  320MOL    C5138969   0.042   3.566   1.051 -0.0099  0.0275  0.2926
  320MOL    F5238970   0.160   3.564   1.103 -0.2574  0.0834 -0.3556
  320MOL    H5338971   7.987   3.360   1.095  0.3097  0.1731 -0.0772
  320MOL    H5438972   7.855   3.470   1.047 -1.1181  0.6656  1.0501
  320MOL    H5538973   8.001   3.659   1.087  0.8261  0.3638  0.4668
  320MOL    C5638974   0.052   3.561   0.901 -0.3420 -0.0429 -0.0389
  320MOL    C5738975   0.106   3.433   0.839 -0.0693 -0.2147 -0.7321
  320MOL    F5838976   0.060   3.429   0.716 -0.7594 -0.0206 -0.0340
  320MOL    H5938977   7.953   3.564   0.866 -0.5866 -0.5195  0.6098
  320MOL    H6038978   0.102   3.652   0.869  2.3741 -1.5462 -0.2560
  320MOL    H6138979   0.059   3.353   0.896  0.4063 -0.6175 -0.9077
  320MOL    C6238980   0.255   3.418   0.846  0.1287  0.3515  0.4511
  320MOL    C6338981   0.301   3.271   0.825  0.0614 -0.1743 -0.2527
  320MOL    F6438982   0.234   3.191   0.909  0.2901 -0.0399  0.2337
  320MOL    H6538983   0.302   3.479   0.769  1.6031 -0.9496  0.3061
  320MOL    H6638984   0.286   3.453   0.944  1.5405 -2.2813  0.9842
  320MOL    H6738985   0.402   3.259   0.864 -1.2493 -0.4611  3.3084
  320MOL    C6838986   0.284   3.220   0.685 -0.2953 -0.5190 -0.0795
  320MOL    C6938987   0.374   3.095   0.666  0.0664  0.4847  0.4867
  320MOL    F7038988   0.502   3.113   0.705  0.0821  0.4950  0.6690
  320MOL    H7138989   0.179   3.201   0.662  0.0698 -0.8415 -1.5828
  320MOL    H7238990   0.324   3.298   0.621 -1.1980  0.6753  0.7941
  320MOL    H7338991   0.373   3.062   0.562 -0.5263  0.5027  0.4851
  320MOL    C7438992   0.325   2.971   0.747  0.8767  0.9718  0.1499
  320MOL    C7538993   0.403   2.848   0.704  0.3227 -0.3469 -0.2075
  320MOL    F7638994   0.378   2.751   0.789 -0.5474  0.1191  0.1735
  320MOL    H7738995   0.331   2.974   0.856  1.7606 -0.0948  0.1366
  320MOL    H7838996   0.221   2.957   0.720  0.2650  0.8441  2.4298
  320MOL    H7938997   0.509   2.874   0.702 -0.2219  2.2187  1.3538
  320MOL    C8038998   0.369   2.796   0.563  0.3647  0.2448 -0.0785
  320MOL    C8138999   0.437   2.669   0.525  0.1433 -0.1466  0.2766
  320MOL    F8239000   0.406   2.622   0.410 -0.4394  0.3416 -0.5298
  320MOL    H8339001   0.264   2.770   0.556  0.5465 -0.1280 -1.6017
  320MOL    H8439002   0.396   2.871   0.487 -1.4718 -0.3629 -1.3473
  320MOL    H8539003   0.413   2.590   0.596  0.0499  0.0948  0.5075
  320MOL    C8639004   0.595   2.670   0.523  0.2672 -0.6413 -0.1617
  320MOL    C8739005   0.669   2.542   0.495  0.4126 -0.1629  0.6506
  320MOL    F8839006   0.665   2.496   0.367  0.0017  0.2699  0.4937
  320MOL    H8939007   0.637   2.744   0.454 -2.6375  1.6817  0.4547
  320MOL    H9039008   0.630   2.708   0.619  2.2862 -0.2248 -1.0210
  320MOL    H9139009   0.615   2.465   0.550  0.6277  0.7502  2.1719
  320MOL    C9239010   0.813   2.519   0.536 -0.1084  0.2303 -0.7304
  320MOL    C9339011   0.917   2.564   0.438 -0.0625  0.0088 -0.2875
  320MOL    F9439012   0.907   2.696   0.420 -0.0277  0.5046  0.0867
  320MOL    H9539013   0.822   2.571   0.631  0.3009 -0.5831 -0.3142
  320MOL    H9639014   0.831   2.413   0.556  1.9175  0.3665 -1.6746
  320MOL    H9739015   0.890   2.526   0.340  1.7438 -0.0345 -0.7841
  320MOL    C9839016   1.056   2.520   0.485 -0.0531 -0.6823  0.4794
  320MOL    C9939017   1.164   2.568   0.388  0.4657  0.2766 -0.3642
  320MOL   F10039018   1.180   2.698   0.399 -0.3312  0.2406  0.4005
  320MOL   H10139019   1.072   2.564   0.583 -1.9002  1.0181  0.0609
  320MOL   H10239020   1.063   2.413   0.502  3.1341 -0.5520  0.2106
  320MOL   H10339021   1.124   2.552   0.287  1.1355  0.4414 -0.6548
  320MOL   C10439022   1.295   2.499   0.437 -0.2166  0.3833 -0.6077
  320MOL   C10539023   1.313   2.358   0.389 -0.1445  0.8940 -0.2492
  320MOL   F10639024   1.296   2.366   0.260 -0.3914  0.1052  0.5282
  320MOL   H10739025   1.380   2.559   0.404 -0.0245  0.6203  0.3060
  320MOL   H10839026   1.311   2.511   0.544 -0.4692  0.0073 -0.5285
  320MOL   H10939027   1.236   2.288   0.420  1.2005 -0.4046  0.2333
  320MOL   C11039028   1.448   2.309   0.432  0.2629  0.4246 -0.4673
  320MOL   C11139029   1.475   2.163   0.394  0.1127  0.3983 -0.5596
  320MOL   F11239030   1.392   2.082   0.466  0.7349 -0.3863 -0.3007
  320MOL   H11339031   1.514   2.385   0.389  0.0949  2.1362  2.1633
  320MOL   H11439032   1.461   2.323   0.539 -0.3022 -3.1362  0.1238
  320MOL   H11539033   1.572   2.142   0.439 -0.4661 -1.7331 -0.2531
  320MOL   C11639034   1.466   2.129   0.241  0.6687  0.2567 -0.3215
  320MOL   C11739035   1.514   1.988   0.207 -0.5247  0.7700 -0.5671
  320MOL   F11839036   1.644   1.968   0.230  0.0324  0.4038 -0.1961
  320MOL   H11939037   1.359   2.128   0.220  0.0385 -1.6449  2.6801
  320MOL   H12039038   1.517   2.203   0.179  0.5874  0.1192 -0.5509
  320MOL   H12139039   1.492   1.957   0.105  0.0122 -0.0840 -0.4329
  320MOL   H12239040   1.467   1.915   0.273 -0.1886  1.0382 -0.0330
  321MOL     C139041   1.221   0.546   6.145  0.8148  0.0481  0.0646
  321MOL     C239042   1.358   0.549   6.224 -0.2616  0.1417 -0.2356
  321MOL     F339043   1.459   0.565   6.134 -0.4285  0.4507 -0.2370
  321MOL     H439044   1.231   0.484   6.056 -0.4012 -1.2277  0.8016
  321MOL     H539045   1.194   0.645   6.109 -2.2045 -0.5640  0.5892
  321MOL     H639046   1.365   0.453   6.275  0.6191 -0.9209 -2.2937
  321MOL     H739047   1.138   0.500   6.198  0.4778 -1.7113 -1.9427
  321MOL     C839048   1.374   0.668   6.313  0.2379 -0.1776  0.0129
  321MOL     C939049   1.295   0.657   6.448 -0.0643 -0.3426  0.1352
  321MOL    F1039050   1.329   0.543   6.507 -0.8129 -0.1453 -0.2412
  321MOL    H1139051   1.481   0.685   6.326 -0.1368 -0.1030  3.5723
  321MOL    H1239052   1.346   0.758   6.258  1.6760  1.1025  1.3181
  321MOL    H1339053   1.194   0.632   6.416 -0.5092  0.5320  0.8351
  321MOL    C1439054   1.314   0.780   6.548  0.0903 -0.1385  0.4923
  321MOL    C1539055   1.278   0.920   6.496 -0.0219  0.1351  0.4791
  321MOL    F1639056   1.143   0.940   6.498  0.0927 -0.1222 -0.6098
  321MOL    H1739057   1.251   0.760   6.635  0.4308  0.5404  0.8981
  321MOL    H1839058   1.417   0.781   6.583  0.2228  2.5619  0.1346
  321MOL    H1939059   1.297   0.919   6.388 -4.4606  1.1319 -0.4183
  321MOL    C2039060   1.337   1.036   6.580 -0.2662 -0.6355  0.6201
  321MOL    C2139061   1.322   1.177   6.522  0.0513  0.1616  0.2383
  321MOL    F2239062   1.199   1.221   6.519 -0.0953 -0.4331  0.0715
  321MOL    H2339063   1.299   1.033   6.682  1.2346 -2.7957  1.1636
  321MOL    H2439064   1.444   1.015   6.586 -0.4971 -1.9856  0.1697
  321MOL    H2539065   1.348   1.183   6.416  2.9498 -0.2434  0.8691
  321MOL    C2639066   1.389   1.300   6.599  0.4990 -0.1530  0.4518
  321MOL    C2739067   1.409   1.431   6.516  0.2344 -0.0815  0.0351
  321MOL    F2839068   1.295   1.467   6.456  0.4022  0.2423  0.0597
  321MOL    H2939069   1.335   1.330   6.688  0.7085  1.6321  0.0003
  321MOL    H3039070   1.485   1.274   6.644  0.4475  1.2093  1.3490
  321MOL    H3139071   1.481   1.414   6.436  0.6462 -0.7963  0.5474
  321MOL    C3239072   1.475   1.543   6.603  0.3087  0.3814 -0.2390
  321MOL    C3339073   1.627   1.512   6.623 -0.6790  0.4990  0.0800
  321MOL    F3439074   1.689   1.515   6.509 -0.1430  0.1123 -0.0758
  321MOL    H3539075   1.460   1.637   6.550  0.4983 -0.4595 -1.8486
  321MOL    H3639076   1.418   1.549   6.695 -1.7304 -1.6749 -1.3023
  321MOL    H3739077   1.632   1.416   6.674  1.3013  0.4802 -0.0947
  321MOL    C3839078   1.689   1.621   6.711 -0.2757 -0.3385  0.0747
  321MOL    C3939079   1.812   1.575   6.778  0.1413 -0.0659  0.6907
  321MOL    F4039080   1.790   1.484   6.874 -0.0713  0.0536 -0.1123
  321MOL    H4139081   1.706   1.713   6.656 -0.8057  1.2569  2.4946
  321MOL    H4239082   1.618   1.651   6.789  1.8797 -0.6621  2.2232
  321MOL    H4339083   1.847   1.658   6.840  1.2340 -1.6117  2.1568
  321MOL    C4439084   1.928   1.516   6.690 -0.1679  0.9277 -0.2923
  321MOL    C4539085   2.068   1.544   6.747  0.4546 -0.0756 -0.1403
  321MOL    F4639086   2.147   1.473   6.665  0.6786 -0.4590  0.1452
  321MOL    H4739087   1.912   1.410   6.673  0.6375  0.6594  0.5769
  321MOL    H4839088   1.917   1.557   6.589 -1.6332 -0.8676 -0.8840
  321MOL    H4939089   2.083   1.502   6.846 -0.4766  0.3779  0.2007
  321MOL    C5039090   2.118   1.690   6.753  0.6569  0.5698  0.1476
  321MOL    C5139091   2.123   1.768   6.625 -0.4455 -0.1054 -0.1745
  321MOL    F5239092   1.993   1.793   6.605 -0.3610 -0.0693 -0.0780
  321MOL    H5339093   2.080   1.753   6.833 -2.3035  0.5775 -1.1937
  321MOL    H5439094   2.223   1.687   6.783  0.1400  0.5031  1.9981
  321MOL    H5539095   2.154   1.699   6.546 -0.6778  0.3616 -0.6809
  321MOL    C5639096   2.211   1.892   6.647 -0.3175 -0.3515 -0.3867
  321MOL    C5739097   2.225   1.996   6.529 -0.4989  0.4108 -0.2433
  321MOL    F5839098   2.106   2.024   6.494 -0.1541  0.8088 -0.2478
  321MOL    H5939099   2.181   1.941   6.740  1.5828  0.4177 -0.1648
  321MOL    H6039100   2.309   1.847   6.662  0.0768  1.4883  3.0471
  321MOL    H6139101   2.276   1.944   6.448 -1.6742 -1.8841  0.4389
  321MOL    C6239102   2.310   2.117   6.575 -0.2154 -0.5298 -0.1199
  321MOL    C6339103   2.332   2.223   6.469  0.1052  0.5685  0.0434
  321MOL    F6439104   2.367   2.339   6.527  0.1141 -0.0204 -0.5050
  321MOL    H6539105   2.246   2.147   6.658 -2.0314 -0.5418 -1.4723
  321MOL    H6639106   2.409   2.088   6.610  0.5961  1.3527 -0.8068
  321MOL    H6739107   2.242   2.237   6.409 -0.0250 -0.2655  0.0345
  321MOL    C6839108   2.437   2.187   6.368 -0.5481  0.3165  0.2150
  321MOL    C6939109   2.465   2.296   6.257  0.1190  0.0353 -0.8072
  321MOL    F7039110   2.543   2.386   6.319 -0.0185 -0.1396 -0.6167
  321MOL    H7139111   2.532   2.165   6.414  0.1247 -0.0411 -1.3035
  321MOL    H7239112   2.397   2.098   6.319  3.4478 -0.8249 -1.1037
  321MOL    H7339113   2.378   2.359   6.238  0.2047 -0.0272 -1.4184
  321MOL    C7439114   2.517   2.240   6.127 -0.8786 -0.4381 -0.4486
  321MOL    C7539115   2.645   2.164   6.156  0.2309 -0.1549  0.9045
  321MOL    F7639116   2.617   2.047   6.210 -0.0213 -0.5248  0.3899
  321MOL    H7739117   2.441   2.180   6.078 -1.0064 -1.6374  1.1918
  321MOL    H7839118   2.535   2.320   6.055  1.1443  0.4282  0.9595
  321MOL    H7939119   2.693   2.221   6.235 -0.0274  1.3365  0.0091
  321MOL    C8039120   2.742   2.148   6.038 -0.1283  0.3833 -0.4509
  321MOL    C8139121   2.700   2.037   5.946 -0.2413 -0.4761 -0.8158
  321MOL    F8239122   2.608   2.081   5.862 -0.1566  0.4095  0.1018
  321MOL    H8339123   2.767   2.239   5.984 -1.0711  0.4273 -0.8144
  321MOL    H8439124   2.832   2.107   6.084 -0.2260  1.1689  0.4618
  321MOL    H8539125   2.666   1.944   5.991 -1.1696  0.0610 -0.3837
  321MOL    C8639126   2.822   2.004   5.863 -0.5449 -0.0392  0.0470
  321MOL    C8739127   2.793   1.891   5.758 -0.3107 -0.2599 -0.1790
  321MOL    F8839128   2.720   1.794   5.813 -0.1944 -0.4177  0.0222
  321MOL    H8939129   2.882   2.087   5.824 -2.8815  1.2235 -0.9898
  321MOL    H9039130   2.900   1.964   5.928 -0.4001 -1.7083 -1.1083
  321MOL    H9139131   2.885   1.838   5.735  0.1809 -0.3503  1.9349
  321MOL    C9239132   2.749   1.943   5.616 -0.2919  0.4786 -0.0626
  321MOL    C9339133   2.725   1.839   5.504 -0.1367 -0.1431 -0.5092
  321MOL    F9439134   2.606   1.776   5.524  0.1405  0.0895  0.2021
  321MOL    H9539135   2.658   2.002   5.631 -1.5853 -1.4576 -0.0237
  321MOL    H9639136   2.827   2.016   5.595 -0.7992  1.0025 -0.1327
  321MOL    H9739137   2.793   1.756   5.520  2.1910  1.8223  0.0107
  321MOL    C9839138   2.729   1.897   5.361  0.3387 -0.4724  0.6498
  321MOL    C9939139   2.859   1.969   5.331  0.1173  0.4450 -0.0212
  321MOL   F10039140   2.963   1.886   5.352  0.4587  0.1130 -0.2711
  321MOL   H10139141   2.704   1.808   5.304  0.9497 -0.5752  0.5398
  321MOL   H10239142   2.649   1.971   5.350  1.6395  1.2502  2.4683
  321MOL   H10339143   2.869   2.048   5.406 -0.9943  0.8210 -0.2569
  321MOL   C10439144   2.883   2.019   5.185  0.1615 -0.2013 -0.6473
  321MOL   C10539145   2.809   2.149   5.164  0.2161  0.5956 -0.0666
  321MOL   F10639146   2.858   2.238   5.253 -0.3184  0.2636  0.1990
  321MOL   H10739147   2.991   2.028   5.170 -0.0155  0.5332 -1.5353
  321MOL   H10839148   2.855   1.949   5.107 -2.4539  1.7924 -1.5894
  321MOL   H10939149   2.701   2.161   5.177  0.4606  1.3636  1.3427
  321MOL   C11039150   2.834   2.188   5.019 -0.3900  0.5880 -0.3370
  321MOL   C11139151   2.799   2.338   4.993  0.0360  0.2857  0.3462
  321MOL   F11239152   2.831   2.364   4.870 -0.0836  0.2190 -0.0937
  321MOL   H11339153   2.939   2.176   4.994 -0.6311  2.3252 -2.2998
  321MOL   H11439154   2.784   2.114   4.957  0.2143 -1.7396  1.8619
  321MOL   H11539155   2.864   2.402   5.053  0.0126  0.8580 -0.2337
  321MOL   C11639156   2.654   2.386   5.013 -0.2587 -0.2473  0.3117
  321MOL   C11739157   2.640   2.536   4.983  0.3940  0.2054 -0.4988
  321MOL   F11839158   2.514   2.573   5.011  0.2483 -1.1403  0.3184
  321MOL   H11939159   2.573   2.340   4.956  0.2984 -2.1593  1.0547
  321MOL   H12039160   2.622   2.371   5.116 -0.5012 -0.0498  0.2675
  321MOL   H12139161   2.661   2.553   4.878  1.1083 -0.5698 -0.4807
  321MOL   H12239162   2.701   2.602   5.044  0.2607 -1.3094  1.3403
  322MOL     C139163   7.782   7.142   3.085  0.4898 -0.3870 -0.1078
  322MOL     C239164   7.825   7.058   2.965 -0.0594 -0.0366  0.4202
  322MOL     F339165   7.812   7.140   2.860  0.1140 -0.4870  0.0281
  322MOL     H439166   7.675   7.157   3.076  0.9670  2.7094 -1.3124
  322MOL     H539167   7.824   7.243   3.087 -0.9132  0.1785  1.6265
  322MOL     H639168   7.758   6.975   2.944 -0.8784  0.3577  1.3960
  322MOL     H739169   7.795   7.101   3.185  0.5278 -0.9179 -0.3266
  322MOL     C839170   7.969   6.995   2.975 -0.1576 -0.4414  0.4387
  322MOL     C939171   7.971   6.879   3.081 -0.2973 -0.4619  0.0396
  322MOL    F1039172   7.908   6.777   3.025 -0.3424  0.1764  0.3516
  322MOL    H1139173   0.004   6.955   2.882 -1.7598 -1.9365  0.4094
  322MOL    H1239174   0.032   7.081   2.983  0.5945 -0.9310 -0.4627
  322MOL    H1339175   7.912   6.902   3.170  0.3013  3.5281 -0.4952
  322MOL    C1439176   0.111   6.851   3.137 -0.5850  0.1425  0.0813
  322MOL    C1539177   0.119   6.734   3.230  0.1021 -0.3024  0.3627
  322MOL    F1639178   0.055   6.635   3.172 -0.2865 -0.3529 -0.2644
  322MOL    H1739179   0.184   6.843   3.057  2.0348  3.4136  2.0411
  322MOL    H1839180   0.141   6.940   3.192 -0.5938  0.3852 -0.3088
  322MOL    H1939181   0.072   6.764   3.324  1.7638 -0.2695  1.1968
  322MOL    C2039182   0.268   6.707   3.268  0.3173  0.3512  0.9308
  322MOL    C2139183   0.283   6.596   3.376 -0.3362 -0.2767 -0.2224
  322MOL    F2239184   0.230   6.637   3.492 -0.2520 -0.1631 -0.0116
  322MOL    H2339185   0.327   6.700   3.177 -0.7136  1.6198  0.1423
  322MOL    H2439186   0.311   6.798   3.309  0.6174  2.5437 -3.9415
  322MOL    H2539187   0.388   6.573   3.399 -1.1460 -3.0280  0.9453
  322MOL    C2639188   0.231   6.452   3.341  0.6210  0.0126  0.1074
  322MOL    C2739189   0.309   6.374   3.229 -0.0570  0.3394  0.3372
  322MOL    F2839190   0.426   6.365   3.277  0.0574  0.2459 -0.2166
  322MOL    H2939191   0.233   6.395   3.435  1.2241 -2.2683 -1.2408
  322MOL    H3039192   0.129   6.457   3.304  1.2101 -0.4005 -1.5912
  322MOL    H3139193   0.310   6.423   3.131  0.0705  0.2678  0.3033
  322MOL    C3239194   0.263   6.225   3.220 -1.0666  0.8277 -0.4119
  322MOL    C3339195   0.132   6.200   3.160 -0.6292 -0.4936  0.1752
  322MOL    F3439196   0.138   6.235   3.029  0.2683  0.6078  0.4541
  322MOL    H3539197   0.349   6.174   3.176 -1.4959 -0.5989  0.3640
  322MOL    H3639198   0.255   6.196   3.325 -3.8199  0.0194 -0.8052
  322MOL    H3739199   0.058   6.259   3.214  0.8669 -0.9941  2.8666
  322MOL    C3839200   0.097   6.056   3.169  0.3650  0.2478 -0.3604
  322MOL    C3939201   7.969   6.019   3.108 -0.2182 -0.0831  0.0471
  322MOL    F4039202   7.960   5.889   3.122 -0.2309 -0.7397 -0.4070
  322MOL    H4139203   0.184   6.002   3.130  0.6650  1.0183 -0.7745
  322MOL    H4239204   0.086   6.026   3.273  0.4767 -2.4953 -1.1088
  322MOL    H4339205   7.972   6.040   3.001 -0.0315  0.7456  0.2135
  322MOL    C4439206   7.837   6.089   3.178 -0.4223  0.5725  0.5319
  322MOL    C4539207   7.710   6.060   3.098  0.9166  0.0757 -0.3535
  322MOL    F4639208   7.687   5.930   3.089 -0.4665  0.1592  0.0674
  322MOL    H4739209   7.820   6.061   3.282 -0.0399  0.5348  0.5855
  322MOL    H4839210   7.854   6.197   3.181  2.0855  0.2527 -0.5217
  322MOL    H4939211   7.728   6.094   2.996  0.1888 -1.4703 -1.0251
  322MOL    C5039212   7.593   6.138   3.168 -0.4501 -0.6197 -0.0618
  322MOL    C5139213   7.453   6.091   3.128  0.5362 -1.1225  0.0019
  322MOL    F5239214   7.438   5.967   3.158  0.5101  0.7682  0.0464
  322MOL    H5339215   7.590   6.124   3.276 -0.3063 -1.9202 -0.2103
  322MOL    H5439216   7.614   6.243   3.149 -0.5836 -0.3626  1.2338
  322MOL    H5539217   7.425   6.101   3.023  1.1850  1.1700  0.0139
  322MOL    C5639218   7.352   6.164   3.223  0.4278 -0.1787 -0.8702
  322MOL    C5739219   7.202   6.139   3.195 -0.1664  0.2350  0.1793
  322MOL    F5839220   7.144   6.180   3.309  0.1579  0.0592 -0.2474
  322MOL    H5939221   7.356   6.120   3.322  1.4449 -2.0867 -1.7311
  322MOL    H6039222   7.373   6.270   3.237 -1.0086 -0.1470  1.2824
  322MOL    H6139223   7.172   6.035   3.184  1.8453 -0.5308  1.6296
  322MOL    C6239224   7.144   6.221   3.085  0.1351 -0.0880 -0.1515
  322MOL    C6339225   6.992   6.229   3.087 -0.0937 -0.1740  0.3829
  322MOL    F6439226   6.940   6.305   2.987 -0.1661  0.2453 -0.3670
  322MOL    H6539227   7.182   6.323   3.084  0.7431 -0.3047  0.3419
  322MOL    H6639228   7.187   6.173   2.997  1.4941 -2.4828  1.7512
  322MOL    H6739229   6.970   6.277   3.183  0.2660  2.6913 -0.9179
  322MOL    C6839230   6.915   6.096   3.069  0.7046  0.4249  0.6230
  322MOL    C6939231   6.758   6.098   3.080 -0.2539 -0.6575  0.4999
  322MOL    F7039232   6.701   5.988   3.024 -0.1854 -0.1849 -0.0374
  322MOL    H7139233   6.930   6.050   2.972  1.0467  1.0393  0.3872
  322MOL    H7239234   6.956   6.031   3.146  1.9076  1.1745  0.6163
  322MOL    H7339235   6.716   6.171   3.010 -2.8915 -0.4329  2.2627
  322MOL    C7439236   6.699   6.142   3.215  0.2690  0.6683  0.6810
  322MOL    C7539237   6.546   6.146   3.231 -0.1759  0.2637 -0.4024
  322MOL    F7639238   6.496   6.020   3.197 -0.0892  0.3584 -0.0333
  322MOL    H7739239   6.728   6.070   3.292  1.1582  0.4810  0.1843
  322MOL    H7839240   6.738   6.240   3.242 -1.1322  1.5223 -0.3600
  322MOL    H7939241   6.503   6.206   3.150  0.8239 -0.7897 -1.7423
  322MOL    C8039242   6.492   6.183   3.370 -0.2114 -0.1672  0.0350
  322MOL    C8139243   6.546   6.318   3.427  0.1095 -0.0319 -0.2708
  322MOL    F8239244   6.676   6.330   3.450 -0.2272  0.4095  0.5190
  322MOL    H8339245   6.384   6.177   3.372 -0.2226  0.0104 -0.0764
  322MOL    H8439246   6.523   6.096   3.429 -1.3046  0.1940  1.1492
  322MOL    H8539247   6.503   6.331   3.527 -2.6069 -0.7360 -1.2957
  322MOL    C8639248   6.502   6.434   3.338 -0.0329  0.8247 -0.8780
  322MOL    C8739249   6.355   6.459   3.330  0.2396  0.1058 -0.3839
  322MOL    F8839250   6.310   6.505   3.455 -0.4064  0.0912  0.4829
  322MOL    H8939251   6.550   6.525   3.374 -2.0872  1.3533  0.6033
  322MOL    H9039252   6.551   6.420   3.241  0.7803 -2.6046 -0.0263
  322MOL    H9139253   6.289   6.376   3.303 -0.4834  0.6407 -0.2758
  322MOL    C9239254   6.332   6.569   3.223 -0.2518 -0.3741 -0.9435
  322MOL    C9339255   6.187   6.586   3.175 -0.1671  0.2690  0.3554
  322MOL    F9439256   6.125   6.468   3.161 -0.0975  0.1988 -0.4551
  322MOL    H9539257   6.357   6.669   3.260 -1.3593 -0.2527 -0.4981
  322MOL    H9639258   6.384   6.543   3.131 -1.8804 -0.8189 -1.7644
  322MOL    H9739259   6.187   6.630   3.076 -0.0708 -1.7457 -0.5587
  322MOL    C9839260   6.100   6.675   3.259 -0.0249  0.4697 -0.0522
  322MOL    C9939261   5.970   6.730   3.191  0.0399  0.3581  0.8711
  322MOL   F10039262   5.881   6.628   3.188 -0.8272  0.0307  0.3189
  322MOL   H10139263   6.077   6.627   3.354 -0.7100  2.2473  0.6987
  322MOL   H10239264   6.151   6.763   3.297  1.9296  0.5347 -2.6399
  322MOL   H10339265   5.999   6.760   3.090  0.4430  0.4179  1.0030
  322MOL   C10439266   5.909   6.845   3.274 -0.8193  0.0777 -0.0902
  322MOL   C10539267   5.770   6.886   3.227  0.2684  0.2439 -0.1591
  322MOL   F10639268   5.727   6.982   3.313 -0.0500 -0.2545  0.1621
  322MOL   H10739269   5.901   6.815   3.379  0.8007  0.4673  0.1520
  322MOL   H10839270   5.978   6.928   3.265  0.2024 -0.9213 -1.5624
  322MOL   H10939271   5.696   6.807   3.237 -0.8974  1.1879 -1.2221
  322MOL   C11039272   5.759   6.957   3.088  0.6332 -0.1722  0.1653
  322MOL   C11139273   5.860   7.071   3.065 -0.0344  0.2046  0.5526
  322MOL   F11239274   5.975   7.018   3.023  0.0327 -0.2039  0.4275
  322MOL   H11339275   5.777   6.881   3.012  1.7667  0.3139 -0.0605
  322MOL   H11439276   5.656   6.991   3.073  1.6820  2.6737 -1.1078
  322MOL   H11539277   5.885   7.124   3.157  2.8318  0.4807 -0.3622
  322MOL   C11639278   5.827   7.174   2.955  0.0434 -0.0287 -0.6496
  322MOL   C11739279   5.696   7.252   2.986 -0.2755  0.2689 -0.2107
  322MOL   F11839280   5.720   7.309   3.101 -0.3865  0.1108 -0.1287
  322MOL   H11939281   5.910   7.244   2.964 -0.1153  0.0715  0.0286
  322MOL   H12039282   5.828   7.136   2.853 -5.0987 -1.3937 -0.3267
  322MOL   H12139283   5.607   7.191   2.998 -0.8684  1.1882  0.1188
  322MOL   H12239284   5.674   7.326   2.910 -0.1699 -0.1618 -0.6656
  323MOL     C139285   0.690   5.241   2.757 -0.4412  0.3280 -0.2441
  323MOL     C239286   0.547   5.199   2.730 -0.2616 -0.1507 -0.3187
  323MOL     F339287   0.554   5.143   2.614 -0.0198  0.3067  0.5359
  323MOL     H439288   0.688   5.309   2.842  2.9066  0.3426 -0.0882
  323MOL     H539289   0.742   5.288   2.673  4.1653 -0.6354  1.8605
  323MOL     H639290   0.493   5.293   2.728  0.6473  0.4079  0.8046
  323MOL     H739291   0.756   5.158   2.784 -1.2659 -0.6077 -1.0538
  323MOL     C839292   0.493   5.093   2.832  0.1578  0.2769 -0.2403
  323MOL     C939293   0.493   5.137   2.982  0.1010  0.9873  0.4789
  323MOL    F1039294   0.424   5.248   2.995 -0.4855 -0.0767  0.4231
  323MOL    H1139295   0.398   5.058   2.792  0.4976  0.7674 -1.5039
  323MOL    H1239296   0.554   5.004   2.812 -0.1228 -0.0907  0.5084
  323MOL    H1339297   0.598   5.160   3.002  0.3295  2.1628 -1.8526
  323MOL    C1439298   0.438   5.038   3.094  0.3679  0.0638  0.6446
  323MOL    C1539299   0.514   4.911   3.100  0.3977 -0.1984  0.0976
  323MOL    F1639300   0.650   4.920   3.095  0.5500 -0.0920 -0.4418
  323MOL    H1739301   0.455   5.094   3.186  0.7795  0.6909  0.1920
  323MOL    H1839302   0.332   5.017   3.083 -0.3809  2.1564  3.4002
  323MOL    H1939303   0.482   4.847   3.017 -0.8210  0.3172  0.1661
  323MOL    C2039304   0.471   4.828   3.224 -0.2119 -0.6323  0.7268
  323MOL    C2139305   0.506   4.680   3.219  0.8475 -0.0338 -0.4526
  323MOL    F2239306   0.440   4.626   3.121 -0.0266  0.0725 -0.1972
  323MOL    H2339307   0.508   4.883   3.311  2.1930  0.4210 -0.9154
  323MOL    H2439308   0.362   4.838   3.226 -0.3262 -1.7259  0.3390
  323MOL    H2539309   0.474   4.636   3.313  1.0341 -0.8638 -0.7750
  323MOL    C2639310   0.657   4.648   3.196 -0.3685  0.1448  0.3505
  323MOL    C2739311   0.690   4.506   3.250  0.1389 -0.1440 -0.7673
  323MOL    F2839312   0.639   4.422   3.165 -0.2319  0.0679 -0.3804
  323MOL    H2939313   0.673   4.640   3.089 -2.5700 -3.6733  0.2342
  323MOL    H3039314   0.726   4.725   3.231 -0.8838  0.3970  0.8263
  323MOL    H3139315   0.632   4.496   3.342 -2.2192  0.2926 -2.1697
  323MOL    C3239316   0.842   4.487   3.257 -0.2725  0.2482  0.2823
  323MOL    C3339317   0.906   4.356   3.319 -0.3877  0.5348 -0.3512
  323MOL    F3439318   0.867   4.243   3.255  0.6756 -0.1156  0.0858
  323MOL    H3539319   0.853   4.491   3.148 -1.5265  1.6922  0.1880
  323MOL    H3639320   0.893   4.571   3.302  0.4703  0.7914 -1.5226
  323MOL    H3739321   0.882   4.347   3.425  0.4501  2.6297  0.0435
  323MOL    C3839322   1.061   4.355   3.316  0.5774  0.4456  0.0720
  323MOL    C3939323   1.127   4.227   3.358  0.1391  0.1069 -0.1758
  323MOL    F4039324   1.256   4.216   3.310 -1.1006  0.5446  0.1478
  323MOL    H4139325   1.086   4.389   3.216 -1.4382 -0.2083 -0.6803
  323MOL    H4239326   1.083   4.431   3.391  0.1721 -0.4786  1.1419
  323MOL    H4339327   1.074   4.143   3.314  0.2955 -0.0877  0.0113
  323MOL    C4439328   1.147   4.214   3.508  0.0290  0.4031 -0.5293
  323MOL    C4539329   1.169   4.064   3.559  0.1253  0.2818 -0.2683
  323MOL    F4639330   1.281   4.002   3.516  0.3450 -0.3509  0.5733
  323MOL    H4739331   1.242   4.260   3.533  1.1852 -1.7801 -0.7613
  323MOL    H4839332   1.065   4.269   3.553 -0.0162 -1.0664  1.2419
  323MOL    H4939333   1.080   4.005   3.536  0.2640 -0.3661  0.8225
  323MOL    C5039334   1.181   4.065   3.711 -1.0230 -0.5259  0.3611
  323MOL    C5139335   1.048   4.098   3.789  0.1508 -0.4837 -0.0287
  323MOL    F5239336   0.948   4.023   3.751 -0.0065 -0.3638  0.1142
  323MOL    H5339337   1.213   3.963   3.734  0.6168 -0.8780 -3.1413
  323MOL    H5439338   1.268   4.124   3.741 -0.8625 -0.1471 -0.8035
  323MOL    H5539339   1.007   4.198   3.777 -1.1224 -0.7096  2.2307
  323MOL    C5639340   1.060   4.063   3.942 -0.3630  0.1362 -0.4658
  323MOL    C5739341   1.163   4.147   4.028 -0.0842 -0.0190  0.7329
  323MOL    F5839342   1.286   4.111   3.991  0.0703  0.0258 -0.8107
  323MOL    H5939343   0.960   4.088   3.980 -0.3531 -0.4736 -0.0393
  323MOL    H6039344   1.074   3.956   3.954 -2.3616 -0.2612 -1.4660
  323MOL    H6139345   1.145   4.131   4.135 -0.8034  1.4869  0.8605
  323MOL    C6239346   1.148   4.300   3.995 -0.8171  0.5575  1.0667
  323MOL    C6339347   1.198   4.389   4.109 -0.4684 -0.7324  0.0419
  323MOL    F6439348   1.323   4.441   4.090 -0.7098  0.2750  0.0917
  323MOL    H6539349   1.203   4.321   3.903 -0.3312 -0.6372  1.0699
  323MOL    H6639350   1.045   4.327   3.975 -1.1369 -0.9194  0.6070
  323MOL    H6739351   1.208   4.337   4.204 -2.9185  2.0257  1.9270
  323MOL    C6839352   1.109   4.514   4.118 -0.1615 -0.1447 -0.0273
  323MOL    C6939353   1.113   4.616   3.992  0.3981 -0.8444 -0.1459
  323MOL    F7039354   1.026   4.571   3.900  0.3695 -0.2628  0.2141
  323MOL    H7139355   1.004   4.483   4.121 -0.4746  0.9504  0.7148
  323MOL    H7239356   1.131   4.559   4.214 -0.7648  0.1122 -0.0082
  323MOL    H7339357   1.216   4.614   3.956  0.2880  4.3560 -1.0727
  323MOL    C7439358   1.076   4.758   4.030  0.1685 -0.2686  0.0719
  323MOL    C7539359   0.930   4.794   4.039 -0.2752  0.5666 -0.4019
  323MOL    F7639360   0.879   4.721   4.137  0.4381  0.3504  0.0534
  323MOL    H7739361   1.138   4.780   4.118  1.3572  1.5455 -1.1757
  323MOL    H7839362   1.115   4.823   3.952 -1.0350  0.5917  0.1889
  323MOL    H7939363   0.886   4.746   3.951 -1.0564  1.5299 -0.5468
  323MOL    C8039364   0.892   4.945   4.054 -0.7543 -0.3384 -0.1183
  323MOL    C8139365   0.744   4.972   4.101 -0.5846 -0.8896 -0.3167
  323MOL    F8239366   0.727   5.103   4.099  0.1025 -0.0378  0.0483
  323MOL    H8339367   0.956   4.999   4.124 -1.6415  0.4461  0.1152
  323MOL    H8439368   0.912   4.999   3.961  0.2229 -2.0905 -0.9393
  323MOL    H8539369   0.732   4.932   4.202 -0.8157 -0.7293 -0.2790
  323MOL    C8639370   0.631   4.913   4.015 -0.7026  0.1349  0.6941
  323MOL    C8739371   0.488   4.936   4.064  0.2001  0.5285  0.8075
  323MOL    F8839372   0.406   4.896   3.966 -0.4729 -0.4006 -0.0018
  323MOL    H8939373   0.638   4.952   3.914 -0.1843 -0.9498  0.2970
  323MOL    H9039374   0.649   4.806   4.008  1.1677  0.5037 -0.3781
  323MOL    H9139375   0.461   5.041   4.077 -0.3928  0.3100  1.3905
  323MOL    C9239376   0.453   4.857   4.197  0.3209  0.0543  0.4651
  323MOL    C9339377   0.475   4.707   4.212  0.3297 -0.0892 -0.2891
  323MOL    F9439378   0.608   4.683   4.215 -0.4014  0.4209 -0.2052
  323MOL    H9539379   0.509   4.903   4.279  1.6666  0.5336 -0.7209
  323MOL    H9639380   0.345   4.867   4.208  0.2949  2.4000 -1.6988
  323MOL    H9739381   0.439   4.653   4.125  2.0406 -0.2663 -0.9163
  323MOL    C9839382   0.421   4.648   4.337  0.0220  0.8183 -0.7764
  323MOL    C9939383   0.423   4.489   4.355 -0.6856  0.1564 -0.1089
  323MOL   F10039384   0.350   4.430   4.256 -0.1941 -0.3800 -0.1325
  323MOL   H10139385   0.470   4.697   4.422 -1.8258  0.0781  0.7638
  323MOL   H10239386   0.316   4.677   4.349  0.7618  3.1806  0.3606
  323MOL   H10339387   0.365   4.472   4.445 -0.1688  2.5625  0.7070
  323MOL   C10439388   0.564   4.427   4.371 -0.7436 -0.5355 -0.4743
  323MOL   C10539389   0.558   4.282   4.424  0.4882 -0.2012  0.3862
  323MOL   F10639390   0.475   4.211   4.352  0.4218 -0.2507 -0.1840
  323MOL   H10739391   0.616   4.421   4.275  0.2271 -0.5133  0.0370
  323MOL   H10839392   0.610   4.493   4.445 -1.8843 -0.1087 -0.1440
  323MOL   H10939393   0.529   4.276   4.529 -2.3505 -0.4146 -0.3648
  323MOL   C11039394   0.697   4.222   4.411 -1.1126  0.2040  0.7326
  323MOL   C11139395   0.812   4.246   4.514 -0.4557  0.1930  0.0962
  323MOL   F11239396   0.804   4.170   4.619  1.1426 -0.0626 -0.2891
  323MOL   H11339397   0.687   4.114   4.402 -0.2311  0.1485  0.3186
  323MOL   H11439398   0.747   4.248   4.317 -0.2354 -1.0845  0.8444
  323MOL   H11539399   0.813   4.349   4.553  2.2565  1.2600 -2.6325
  323MOL   C11639400   0.950   4.235   4.460 -0.3306 -1.1296 -0.0896
  323MOL   C11739401   1.001   4.099   4.426  0.0897 -0.7687  0.2583
  323MOL   F11839402   0.936   4.054   4.316  0.3588 -0.1329  0.3225
  323MOL   H11939403   0.967   4.304   4.378  1.9613 -1.2204  0.2805
  323MOL   H12039404   1.016   4.283   4.532  1.1039 -2.4443 -0.5191
  323MOL   H12139405   1.002   4.017   4.497 -0.4159 -2.2512 -1.4057
  323MOL   H12239406   1.107   4.120   4.411 -0.2137  0.4985 -0.2107
  324MOL     C139407   3.163   2.697   1.653 -0.6578 -0.8703 -0.1942
  324MOL     C239408   3.106   2.685   1.511  0.1147 -0.2083  0.2355
  324MOL     F339409   3.078   2.553   1.483  0.5364  0.2624 -0.2098
  324MOL     H439410   3.190   2.797   1.689  0.7169 -0.9505 -0.9860
  324MOL     H539411   3.252   2.635   1.656  0.6518  1.0083  1.5638
  324MOL     H639412   3.173   2.724   1.434  1.4825 -0.1200  1.4479
  324MOL     H739413   3.097   2.661   1.732  1.6472 -1.5517  1.4592
  324MOL     C839414   2.980   2.768   1.504 -0.6326 -0.0234 -0.3028
  324MOL     C939415   2.909   2.780   1.364  1.2876  0.4283  0.2168
  324MOL    F1039416   2.989   2.814   1.271  0.3904 -0.4443  0.3674
  324MOL    H1139417   2.899   2.723   1.560 -1.8537  1.0619 -1.1517
  324MOL    H1239418   2.998   2.870   1.539 -1.1509 -0.2984  0.7902
  324MOL    H1339419   2.826   2.849   1.378 -1.3874 -2.5288 -0.4893
  324MOL    C1439420   2.841   2.645   1.316  0.3100 -0.1719 -0.7495
  324MOL    C1539421   2.783   2.646   1.175  0.0701 -0.1603  0.2378
  324MOL    F1639422   2.754   2.523   1.134 -0.7720  0.3839 -0.4402
  324MOL    H1739423   2.914   2.563   1.316 -0.3916 -0.8026 -0.1116
  324MOL    H1839424   2.764   2.616   1.387  0.9850 -0.2994 -0.0521
  324MOL    H1939425   2.864   2.682   1.112 -0.5358  2.5626  0.9632
  324MOL    C2039426   2.657   2.741   1.164 -0.7613 -0.0284 -0.1645
  324MOL    C2139427   2.531   2.681   1.236 -0.2467 -0.8335  0.6063
  324MOL    F2239428   2.545   2.678   1.369  0.0719 -0.3539  0.5405
  324MOL    H2339429   2.677   2.843   1.196  1.1796  0.2082 -2.0649
  324MOL    H2439430   2.636   2.747   1.058  0.9613 -0.7799 -0.5726
  324MOL    H2539431   2.514   2.576   1.212  0.4168 -0.7681 -0.1813
  324MOL    C2639432   2.405   2.767   1.210 -0.5507 -0.2212 -0.6926
  324MOL    C2739433   2.358   2.763   1.061  0.5462 -0.0426  0.5663
  324MOL    F2839434   2.308   2.640   1.042 -0.2922 -0.3898 -0.2180
  324MOL    H2939435   2.324   2.732   1.273  1.2387 -1.4993  0.9691
  324MOL    H3039436   2.430   2.870   1.235 -0.3173 -0.7752  1.4465
  324MOL    H3139437   2.444   2.773   0.995  0.1951  1.0035  0.2568
  324MOL    C3239438   2.249   2.865   1.032 -0.3272 -0.8419  0.9201
  324MOL    C3339439   2.117   2.848   1.112 -0.5260 -0.0196 -0.4905
  324MOL    F3439440   2.145   2.897   1.236  0.4713  0.6667  0.7096
  324MOL    H3539441   2.294   2.961   1.055 -1.4943  0.0622 -0.5063
  324MOL    H3639442   2.226   2.870   0.926  0.0572  1.9090  0.9403
  324MOL    H3739443   2.082   2.745   1.124  1.1056 -0.4963  0.2147
  324MOL    C3839444   2.014   2.938   1.045 -0.1714 -0.8741 -0.1153
  324MOL    C3939445   1.934   2.873   0.925 -1.0141  0.6904 -0.4276
  324MOL    F4039446   2.010   2.848   0.814  0.6380  0.5158  0.1334
  324MOL    H4139447   1.934   2.959   1.117 -0.4607  2.7136 -1.3672
  324MOL    H4239448   2.046   3.038   1.015  0.7389 -0.5185  1.9649
  324MOL    H4339449   1.866   2.949   0.885 -0.0110  1.4679 -0.6795
  324MOL    C4439450   1.847   2.751   0.953  0.4917  0.7213 -0.2363
  324MOL    C4539451   1.743   2.716   0.850  0.0384  0.1915  0.1768
  324MOL    F4639452   1.809   2.710   0.729  0.1764  0.4320  0.2426
  324MOL    H4739453   1.927   2.677   0.956  0.9998  1.1771 -1.9068
  324MOL    H4839454   1.792   2.750   1.047 -1.8781 -1.9052 -1.6163
  324MOL    H4939455   1.673   2.799   0.845 -0.1634 -0.0566 -1.4416
  324MOL    C5039456   1.671   2.582   0.870  0.6149 -0.4379 -0.5041
  324MOL    C5139457   1.574   2.597   0.987 -0.6344  1.0630 -0.2074
  324MOL    F5239458   1.483   2.691   0.980  0.3442 -0.2648 -0.1228
  324MOL    H5339459   1.618   2.564   0.776 -1.4231 -1.4380  0.8158
  324MOL    H5439460   1.746   2.506   0.892  0.7451 -0.6560 -1.6572
  324MOL    H5539461   1.625   2.625   1.079 -3.2366  1.1038  1.2739
  324MOL    C5639462   1.508   2.462   1.023  0.4054 -0.4751 -0.1143
  324MOL    C5739463   1.421   2.409   0.915 -0.3263 -0.6496 -0.6411
  324MOL    F5839464   1.494   2.337   0.827 -0.3511 -0.2904 -0.1774
  324MOL    H5939465   1.587   2.396   1.060  1.5125  0.0728 -1.4603
  324MOL    H6039466   1.438   2.473   1.107  0.3474  1.3511 -0.3640
  324MOL    H6139467   1.390   2.489   0.849 -0.9979 -0.2868  0.1037
  324MOL    C6239468   1.298   2.328   0.959 -0.2383 -0.2172  0.0492
  324MOL    C6339469   1.213   2.283   0.846  0.1868  0.4111 -0.6291
  324MOL    F6439470   1.266   2.165   0.802  0.2476 -0.3026  0.6557
  324MOL    H6539471   1.334   2.240   1.013  1.1363 -2.1969 -3.9126
  324MOL    H6639472   1.235   2.393   1.020  0.9387  3.2322 -2.2613
  324MOL    H6739473   1.217   2.345   0.756 -0.5253  0.5506 -0.5728
  324MOL    C6839474   1.063   2.245   0.879 -0.3150  0.3522 -0.1788
  324MOL    C6939475   0.972   2.365   0.887  0.5600 -0.1487 -0.5182
  324MOL    F7039476   0.951   2.426   0.772 -0.2347  0.1045  0.5654
  324MOL    H7139477   1.020   2.185   0.799 -0.6355 -2.4343  2.0034
  324MOL    H7239478   1.051   2.186   0.970  0.2785 -1.7263 -1.4137
  324MOL    H7339479   1.020   2.448   0.940  0.1077 -0.1625 -0.0727
  324MOL    C7439480   0.833   2.323   0.953  1.0854 -0.7602 -0.0184
  324MOL    C7539481   0.728   2.440   0.970 -0.3365  0.0884  0.3028
  324MOL    F7639482   0.695   2.506   0.856 -0.1883  0.5331 -0.0416
  324MOL    H7739483   0.787   2.248   0.890 -0.5251  0.7282 -0.6582
  324MOL    H7839484   0.833   2.282   1.054 -0.6633 -2.3764 -0.6423
  324MOL    H7939485   0.766   2.516   1.039 -2.3236 -0.2479  1.8331
  324MOL    C8039486   0.587   2.397   1.015 -0.3168 -0.7585 -0.3532
  324MOL    C8139487   0.586   2.369   1.159  0.3371 -0.1135  0.4304
  324MOL    F8239488   0.598   2.482   1.221 -0.7073 -0.2056 -0.5961
  324MOL    H8339489   0.517   2.479   0.999 -0.8180 -0.6246  2.3131
  324MOL    H8439490   0.564   2.308   0.956 -0.4910 -1.0208  0.1153
  324MOL    H8539491   0.669   2.306   1.193 -0.4052 -1.1724  0.3105
  324MOL    C8639492   0.451   2.300   1.185 -0.0591 -0.5807 -0.4052
  324MOL    C8739493   0.437   2.209   1.307 -1.0065  0.3132 -0.0083
  324MOL    F8839494   0.530   2.112   1.315 -0.0007  0.5375 -0.0685
  324MOL    H8939495   0.372   2.374   1.202  1.5985  1.0026  0.4854
  324MOL    H9039496   0.419   2.245   1.096  0.0015  0.8248 -1.3071
  324MOL    H9139497   0.344   2.153   1.295 -2.4317  2.4755  0.6922
  324MOL    C9239498   0.425   2.285   1.436 -0.1501 -0.7933  0.2353
  324MOL    C9339499   0.375   2.201   1.558 -0.3784 -0.0371 -1.0079
  324MOL    F9439500   0.247   2.170   1.535 -0.4412  0.1354  0.4779
  324MOL    H9539501   0.521   2.329   1.463 -0.2958 -0.1243 -0.3327
  324MOL    H9639502   0.353   2.366   1.431 -1.4187 -1.9321 -0.1920
  324MOL    H9739503   0.379   2.266   1.645  2.4508  0.7963 -1.7006
  324MOL    C9839504   0.458   2.077   1.584 -1.0044 -0.6331 -0.8639
  324MOL    C9939505   0.594   2.106   1.644  0.0116  0.3776  0.7826
  324MOL   F10039506   0.578   2.137   1.771 -0.0244 -0.1071 -0.1646
  324MOL   H10139507   0.405   2.015   1.656 -0.6297 -0.3992 -0.3852
  324MOL   H10239508   0.476   2.010   1.500 -0.3041 -1.4407 -0.0811
  324MOL   H10339509   0.640   2.194   1.599  0.2853  0.0742  0.4646
  324MOL   C10439510   0.690   1.989   1.648 -0.2559 -0.0443  0.3673
  324MOL   C10539511   0.779   1.982   1.525  0.3299 -0.1206  0.5457
  324MOL   F10639512   0.870   2.073   1.547 -0.4109  0.3374 -0.5049
  324MOL   H10739513   0.748   1.996   1.741  0.4154  1.8906 -0.1836
  324MOL   H10839514   0.636   1.895   1.651 -0.1492 -0.0775  1.5640
  324MOL   H10939515   0.717   1.985   1.435  1.1200  1.4310  0.0399
  324MOL   C11039516   0.856   1.847   1.514  0.5911 -0.2591 -0.2349
  324MOL   C11139517   0.970   1.857   1.412  0.1181  0.5356  1.0024
  324MOL   F11239518   1.026   1.733   1.422 -0.2116  0.2307  0.1341
  324MOL   H11339519   0.898   1.815   1.609 -0.1771  0.4667  0.3631
  324MOL   H11439520   0.784   1.774   1.475 -0.7176  1.0258 -0.2579
  324MOL   H11539521   1.051   1.923   1.443 -1.0328  1.2975  2.4887
  324MOL   C11639522   0.924   1.902   1.272 -0.3848  0.6806  1.0253
  324MOL   C11739523   1.047   1.912   1.180  0.0102 -0.2849 -0.2512
  324MOL   F11839524   1.018   1.969   1.064 -0.0756  0.1219 -0.0574
  324MOL   H11939525   0.860   1.830   1.221  2.9933  0.3191 -2.9186
  324MOL   H12039526   0.874   1.998   1.276 -0.8138  0.5155 -0.3624
  324MOL   H12139527   1.089   1.815   1.153  1.0502 -0.3670  1.5675
  324MOL   H12239528   1.111   1.982   1.232 -1.2954 -0.1022  1.1447
  325MOL     C139529   4.923   3.050   5.727  0.3139  0.4852 -0.7451
  325MOL     C239530   5.061   2.986   5.747  0.5083  0.9338  0.3615
  325MOL     F339531   5.045   2.894   5.845  0.4730 -0.1268  0.1317
  325MOL     H439532   4.856   2.982   5.674 -0.0789  0.2795  0.0076
  325MOL     H539533   4.942   3.147   5.680  1.0721  0.6049 -0.1976
  325MOL     H639534   5.130   3.063   5.779  1.9631  0.8010 -2.2798
  325MOL     H739535   4.884   3.072   5.826  2.3200 -0.9651  0.3967
  325MOL     C839536   5.117   2.920   5.621  0.1798  0.6524  0.0614
  325MOL     C939537   5.270   2.870   5.621 -0.3454  0.2340  0.1703
  325MOL    F1039538   5.297   2.811   5.504 -0.2871 -0.6401 -0.8416
  325MOL    H1139539   5.059   2.829   5.610  2.2937 -0.9614  1.7163
  325MOL    H1239540   5.103   2.994   5.543  0.4091  0.3276 -0.2895
  325MOL    H1339541   5.273   2.793   5.699 -1.4980  0.0942  0.0772
  325MOL    C1439542   5.379   2.973   5.658  0.4596  0.0148  0.2151
  325MOL    C1539543   5.397   3.089   5.563  0.8929  0.3868  0.8954
  325MOL    F1639544   5.289   3.165   5.576 -0.1649 -0.7336 -0.3271
  325MOL    H1739545   5.356   3.002   5.761  0.2113  0.2302  0.0998
  325MOL    H1839546   5.470   2.914   5.655 -0.6561 -1.7280 -0.3271
  325MOL    H1939547   5.411   3.066   5.458  2.3831  4.1637  0.1554
  325MOL    C2039548   5.516   3.179   5.617  0.2847 -0.6362  0.0543
  325MOL    C2139549   5.530   3.308   5.543 -0.7446 -0.4743 -0.0901
  325MOL    F2239550   5.597   3.394   5.622 -0.5126 -0.2766 -0.2622
  325MOL    H2339551   5.496   3.194   5.723 -1.2156  2.0177 -0.5558
  325MOL    H2439552   5.607   3.121   5.601  0.4867 -0.8300  1.7985
  325MOL    H2539553   5.431   3.354   5.536 -0.4807  0.2370  0.8456
  325MOL    C2639554   5.601   3.302   5.405  0.0262 -0.5471  0.0991
  325MOL    C2739555   5.566   3.415   5.318 -0.5188 -0.2246  0.6215
  325MOL    F2839556   5.618   3.529   5.369 -0.0135 -0.1285 -0.7045
  325MOL    H2939557   5.709   3.291   5.409 -0.0350 -0.5990  2.7603
  325MOL    H3039558   5.565   3.213   5.355  1.8195 -0.8064 -0.7765
  325MOL    H3139559   5.458   3.425   5.313 -0.5427 -1.2502 -1.2861
  325MOL    C3239560   5.618   3.397   5.175 -0.0443 -0.0251  0.1897
  325MOL    C3339561   5.521   3.459   5.076 -0.4443  0.1357 -0.4701
  325MOL    F3439562   5.525   3.587   5.110  0.0005 -0.2036  0.3685
  325MOL    H3539563   5.724   3.423   5.178  0.0766 -0.6019  0.8204
  325MOL    H3639564   5.621   3.289   5.159 -2.4022  0.0567 -1.0925
  325MOL    H3739565   5.424   3.412   5.094  1.0314 -2.7621  0.2479
  325MOL    C3839566   5.550   3.448   4.923  0.1432  0.0070 -0.1299
  325MOL    C3939567   5.587   3.311   4.876 -0.6890 -0.3120  0.2032
  325MOL    F4039568   5.491   3.235   4.934 -0.5328  0.1970 -0.0932
  325MOL    H4139569   5.468   3.491   4.865  0.6486 -0.2784 -1.0667
  325MOL    H4239570   5.637   3.504   4.890  0.6575 -1.5041 -1.4106
  325MOL    H4339571   5.682   3.277   4.919 -0.5812  0.9388  0.9794
  325MOL    C4439572   5.599   3.303   4.719  0.2259 -0.1060 -0.1936
  325MOL    C4539573   5.745   3.322   4.671  0.1238  0.2780  0.3252
  325MOL    F4639574   5.821   3.233   4.737 -0.6788  0.1251 -0.0437
  325MOL    H4739575   5.564   3.207   4.682 -0.4122  0.0556 -0.0115
  325MOL    H4839576   5.523   3.368   4.675 -0.3140 -1.3281 -1.0821
  325MOL    H4939577   5.785   3.418   4.701  1.6162  0.7704 -3.0375
  325MOL    C5039578   5.784   3.301   4.522  0.0208 -0.3325  0.7717
  325MOL    C5139579   5.733   3.413   4.431 -0.4285 -0.3141  0.1745
  325MOL    F5239580   5.788   3.531   4.458 -0.2168 -0.1971  0.1311
  325MOL    H5339581   5.891   3.316   4.509 -0.2751  1.4836  0.2614
  325MOL    H5439582   5.771   3.198   4.490  1.6215 -0.6340  1.0898
  325MOL    H5539583   5.626   3.430   4.424 -0.6012 -0.9815  1.1182
  325MOL    C5639584   5.794   3.394   4.289  0.0127  0.2868  0.6112
  325MOL    C5739585   5.755   3.502   4.179  0.1178  0.3896  0.3364
  325MOL    F5839586   5.832   3.469   4.085 -0.0080 -0.3524  0.1829
  325MOL    H5939587   5.902   3.397   4.299  0.0861 -1.7934  0.6209
  325MOL    H6039588   5.773   3.299   4.239  2.3485  0.7147 -1.2820
  325MOL    H6139589   5.787   3.601   4.213  0.0921  0.9072 -1.1244
  325MOL    C6239590   5.614   3.483   4.123  0.2906 -0.0965  0.1582
  325MOL    C6339591   5.558   3.580   4.016  0.7438 -0.1986  0.1602
  325MOL    F6439592   5.426   3.564   4.021 -0.2636 -0.3960 -0.0256
  325MOL    H6539593   5.617   3.383   4.079 -1.6287 -0.5577  1.0100
  325MOL    H6639594   5.546   3.475   4.208 -2.1584 -1.0089 -1.8382
  325MOL    H6739595   5.596   3.555   3.917  1.0354  1.3865 -0.1342
  325MOL    C6839596   5.591   3.726   4.060 -0.6342  0.8443 -0.7416
  325MOL    C6939597   5.537   3.840   3.967  0.7880 -0.9575  0.5806
  325MOL    F7039598   5.591   3.817   3.847 -0.4136 -0.7852 -0.3483
  325MOL    H7139599   5.559   3.745   4.162 -0.8179  1.7556 -0.9591
  325MOL    H7239600   5.700   3.735   4.066 -0.7797  1.4984  1.3499
  325MOL    H7339601   5.583   3.934   3.995  0.5012  0.5106 -3.5851
  325MOL    C7439602   5.383   3.851   3.940 -0.1414  0.1384  0.0121
  325MOL    C7539603   5.310   3.924   4.052  0.7597  0.6263 -0.3299
  325MOL    F7639604   5.313   4.046   4.006 -0.2427  0.3139  0.2189
  325MOL    H7739605   5.383   3.907   3.846 -0.3160  2.7712  1.5138
  325MOL    H7839606   5.348   3.749   3.927  2.2586 -0.6207 -0.8592
  325MOL    H7939607   5.370   3.907   4.142  0.9634 -1.3984 -0.8386
  325MOL    C8039608   5.159   3.887   4.069 -0.3718 -0.1049  1.1318
  325MOL    C8139609   5.100   3.945   4.196  0.0133 -0.5823  0.0887
  325MOL    F8239610   5.093   4.081   4.196  1.1786 -0.1888 -0.1277
  325MOL    H8339611   5.096   3.917   3.984 -0.8025 -3.2733  0.2473
  325MOL    H8439612   5.153   3.778   4.071 -1.3893 -0.0922 -0.1101
  325MOL    H8539613   5.160   3.927   4.285  0.0972 -0.3114  0.0872
  325MOL    C8639614   4.956   3.902   4.217  0.6101 -0.0236  0.5203
  325MOL    C8739615   4.930   3.750   4.252 -0.5850  0.7108  0.2806
  325MOL    F8839616   5.014   3.730   4.351 -0.0709 -0.5705 -0.0955
  325MOL    H8939617   4.903   3.964   4.289  1.4912  2.1645 -0.6867
  325MOL    H9039618   4.901   3.920   4.125  0.1214 -1.7914  0.4527
  325MOL    H9139619   4.962   3.684   4.172 -0.0570  0.0241  1.0492
  325MOL    C9239620   4.788   3.713   4.293 -0.6996 -0.2575 -0.3578
  325MOL    C9339621   4.753   3.569   4.319 -0.0294  0.1615  0.3503
  325MOL    F9439622   4.822   3.541   4.431  0.8380 -0.0889  0.2923
  325MOL    H9539623   4.758   3.769   4.381 -0.2277 -0.4134 -0.0976
  325MOL    H9639624   4.716   3.752   4.221 -0.5710 -0.3849 -0.5578
  325MOL    H9739625   4.794   3.511   4.237 -1.5630  0.2066 -0.4800
  325MOL    C9839626   4.603   3.543   4.348  0.0837  0.1323 -0.0321
  325MOL    C9939627   4.564   3.397   4.377  0.4766  0.3752  0.0895
  325MOL   F10039628   4.433   3.409   4.412  0.0566  0.3674 -0.6116
  325MOL   H10139629   4.576   3.594   4.441 -1.6779 -3.7280  1.6680
  325MOL   H10239630   4.545   3.591   4.269  0.2327 -0.9498 -0.8106
  325MOL   H10339631   4.614   3.360   4.466  2.0808  0.9059 -0.5749
  325MOL   C10439632   4.579   3.300   4.263  0.2887 -0.5537  0.0880
  325MOL   C10539633   4.572   3.152   4.309  0.2248  1.1998 -0.2360
  325MOL   F10639634   4.544   3.095   4.191  0.2497  0.1396  0.3889
  325MOL   H10739635   4.500   3.327   4.193 -0.9693 -1.2508  1.2233
  325MOL   H10839636   4.674   3.326   4.216 -0.0445 -0.7506 -0.7152
  325MOL   H10939637   4.500   3.137   4.389 -1.5073  0.7765 -1.8514
  325MOL   C11039638   4.707   3.090   4.340 -0.3982 -0.0274  0.1890
  325MOL   C11139639   4.767   3.122   4.474  0.1249  0.0045 -0.0734
  325MOL   F11239640   4.684   3.090   4.569 -0.1832  0.4198  0.1208
  325MOL   H11339641   4.694   2.982   4.330  0.2644  0.1014 -2.2186
  325MOL   H11439642   4.788   3.111   4.270 -0.2711  0.3291  0.4403
  325MOL   H11539643   4.785   3.230   4.483  0.8949 -0.2623  2.0164
  325MOL   C11639644   4.892   3.046   4.499 -0.1234 -0.2835 -0.1245
  325MOL   C11739645   4.877   2.897   4.515  0.2420  0.4497 -0.1346
  325MOL   F11839646   4.988   2.834   4.547 -0.0957 -0.5335 -0.0323
  325MOL   H11939647   4.969   3.066   4.424  0.6801 -1.4770  0.3702
  325MOL   H12039648   4.942   3.082   4.589 -0.9717  0.2531  0.1381
  325MOL   H12139649   4.837   2.846   4.426 -0.5079 -0.7895  0.8866
  325MOL   H12239650   4.812   2.865   4.597 -0.2767 -0.1989 -0.7856
  326MOL     C139651   5.149   2.134   6.431 -0.2200  0.2069  0.4712
  326MOL     C239652   5.006   2.147   6.476 -0.0696  0.3212 -0.0960
  326MOL     F339653   5.005   2.213   6.591 -0.5338  0.4334 -0.0241
  326MOL     H439654   5.191   2.079   6.515  1.0393  0.7527  0.2014
  326MOL     H539655   5.198   2.230   6.412 -1.4149  0.5104 -1.3023
  326MOL     H639656   4.959   2.051   6.497  1.0019 -0.3119 -0.4943
  326MOL     H739657   5.142   2.078   6.338  1.2741 -0.2138  0.5987
  326MOL     C839658   4.935   2.236   6.369 -0.1464  0.7571  1.1148
  326MOL     C939659   4.883   2.160   6.246  0.2677  0.3371 -0.0643
  326MOL    F1039660   4.777   2.089   6.286 -0.0048  0.1784  0.4530
  326MOL    H1139661   4.847   2.282   6.414 -0.7937 -0.4324  1.0920
  326MOL    H1239662   5.003   2.318   6.348  1.7891 -1.0247  0.2418
  326MOL    H1339663   4.946   2.076   6.219 -1.0436 -1.3772  2.0444
  326MOL    C1439664   4.862   2.254   6.121  0.4569  0.3701  0.2019
  326MOL    C1539665   4.805   2.180   6.001 -0.5279  0.1569 -0.8340
  326MOL    F1639666   4.675   2.158   6.020  0.4568  0.1506 -0.1688
  326MOL    H1739667   4.814   2.350   6.140 -0.6550 -0.3377  1.0552
  326MOL    H1839668   4.967   2.271   6.099  0.2794  0.6993 -0.4012
  326MOL    H1939669   4.850   2.081   5.992  0.0211  0.1058  1.9343
  326MOL    C2039670   4.813   2.263   5.870 -0.6831  0.2041  0.1170
  326MOL    C2139671   4.778   2.190   5.739 -0.3179 -0.1778  0.1995
  326MOL    F2239672   4.780   2.276   5.641 -0.0086  0.2593  0.2785
  326MOL    H2339673   4.743   2.345   5.885 -1.0877 -0.3313  1.2544
  326MOL    H2439674   4.913   2.305   5.863 -0.7380  0.7203  2.0780
  326MOL    H2539675   4.689   2.128   5.747 -0.3535 -0.5250 -2.4490
  326MOL    C2639676   4.896   2.100   5.690 -0.3220 -0.1149  0.8034
  326MOL    C2739677   4.850   2.011   5.574 -0.4322  0.0227  0.9299
  326MOL    F2839678   4.963   1.973   5.521  0.5636 -0.2896  0.3499
  326MOL    H2939679   4.983   2.159   5.662 -0.8086 -0.2891 -1.1923
  326MOL    H3039680   4.942   2.039   5.768  0.5912 -2.4857 -1.5287
  326MOL    H3139681   4.801   2.071   5.497  1.3044  1.1281  0.6487
  326MOL    C3239682   4.762   1.889   5.607  0.0122 -0.5787 -0.3614
  326MOL    C3339683   4.826   1.785   5.703  0.5539 -0.4582 -0.1587
  326MOL    F3439684   4.816   1.843   5.819  0.1624  0.4746  0.0278
  326MOL    H3539685   4.666   1.919   5.649  0.4580  0.7823 -0.3091
  326MOL    H3639686   4.730   1.846   5.511 -1.0965 -0.5425 -0.0155
  326MOL    H3739687   4.933   1.769   5.686  0.5610  1.1776 -1.8420
  326MOL    C3839688   4.745   1.653   5.719 -0.2336 -0.2576 -0.3558
  326MOL    C3939689   4.779   1.571   5.850  0.3725  0.0325 -0.1735
  326MOL    F4039690   4.691   1.466   5.851  0.3478  0.0945  0.1229
  326MOL    H4139691   4.640   1.681   5.719 -0.0212  0.5725 -1.1168
  326MOL    H4239692   4.752   1.593   5.629 -2.0454 -0.5542 -0.3205
  326MOL    H4339693   4.755   1.635   5.935 -1.3443 -1.0870  0.2081
  326MOL    C4439694   4.919   1.499   5.848  0.5686 -0.1893  0.1481
  326MOL    C4539695   4.958   1.417   5.971  0.0838  0.6202 -0.6930
  326MOL    F4639696   5.056   1.338   5.930  0.5180 -0.0901  0.6334
  326MOL    H4739697   4.927   1.436   5.759  1.2264  0.9410 -0.6196
  326MOL    H4839698   4.992   1.580   5.841  2.6912 -1.9580  1.1032
  326MOL    H4939699   4.874   1.354   5.998  0.1382  1.2520  1.0364
  326MOL    C5039700   5.002   1.487   6.101  0.2325  0.7332  0.5642
  326MOL    C5139701   5.072   1.388   6.195 -0.0265  0.1113  0.6841
  326MOL    F5239702   5.177   1.452   6.237  0.0038  0.2911 -0.0939
  326MOL    H5339703   5.068   1.570   6.078 -0.6017  0.9993 -0.9406
  326MOL    H5439704   4.913   1.528   6.149 -0.3279  0.0402  0.1237
  326MOL    H5539705   5.112   1.300   6.145 -1.4210 -0.9237  1.3505
  326MOL    C5639706   4.989   1.345   6.320 -0.4027  0.3419 -0.6742
  326MOL    C5739707   5.070   1.270   6.428 -0.1639 -0.2060  0.1591
  326MOL    F5839708   5.012   1.316   6.546 -0.4195 -0.2348  0.0125
  326MOL    H5939709   4.933   1.430   6.359 -2.4118 -1.0470 -0.4786
  326MOL    H6039710   4.915   1.274   6.283  1.0559 -0.7423 -1.5672
  326MOL    H6139711   5.173   1.306   6.425 -0.6377  1.0450 -1.7670
  326MOL    C6239712   5.069   1.118   6.416  0.6706 -0.4952 -0.3101
  326MOL    C6339713   5.138   1.052   6.546  0.3667 -0.2510  1.0977
  326MOL    F6439714   5.053   1.046   6.648 -0.5126  0.0527  0.0479
  326MOL    H6539715   4.972   1.069   6.414  1.5574 -2.2742 -1.3407
  326MOL    H6639716   5.108   1.085   6.319  1.8007  0.5987 -0.2488
  326MOL    H6739717   5.207   1.127   6.585 -0.0440  1.2789 -1.0070
  326MOL    C6839718   5.199   0.918   6.514 -0.8749 -0.2669 -0.0288
  326MOL    C6939719   5.103   0.801   6.497 -0.1891  0.4586  0.4941
  326MOL    F7039720   5.028   0.822   6.388  0.2699  0.7087 -0.1959
  326MOL    H7139721   5.262   0.916   6.425 -0.6622  2.4084  0.0148
  326MOL    H7239722   5.267   0.901   6.598 -0.3587 -0.5976 -0.5112
  326MOL    H7339723   5.039   0.783   6.583 -0.3317 -2.2840 -0.1329
  326MOL    C7439724   5.188   0.674   6.480 -0.3158 -0.2421 -0.1622
  326MOL    C7539725   5.116   0.544   6.523 -0.3437  0.4054  0.0548
  326MOL    F7639726   5.069   0.567   6.646 -0.7533 -0.3350  0.1097
  326MOL    H7739727   5.213   0.664   6.375 -0.5113 -0.8067 -0.1575
  326MOL    H7839728   5.288   0.680   6.522 -0.6563 -1.8438  0.9321
  326MOL    H7939729   5.183   0.459   6.536 -0.6087  0.4552  1.9472
  326MOL    C8039730   4.997   0.498   6.435  0.2771  0.6984 -0.3247
  326MOL    C8139731   5.027   0.484   6.279  0.4281  0.5264 -0.8114
  326MOL    F8239732   5.144   0.425   6.262 -0.0811  0.3169 -0.0147
  326MOL    H8339733   4.965   0.401   6.471  0.2050  1.0791  0.6613
  326MOL    H8439734   4.911   0.564   6.447  0.0198  0.1832  0.7539
  326MOL    H8539735   5.038   0.585   6.239 -1.0150  0.8216 -0.5063
  326MOL    C8639736   4.929   0.399   6.201  0.1456  0.5792 -0.5631
  326MOL    C8739737   4.786   0.453   6.201 -0.4516 -0.0220 -0.4362
  326MOL    F8839738   4.794   0.580   6.161  0.1706 -0.1527  0.3280
  326MOL    H8939739   4.959   0.387   6.097 -1.3788 -0.6238 -0.8661
  326MOL    H9039740   4.937   0.301   6.249 -2.7561  0.6903  0.2056
  326MOL    H9139741   4.750   0.466   6.303 -0.0482 -2.0743  0.0042
  326MOL    C9239742   4.698   0.356   6.112  0.4986 -1.0826  0.8676
  326MOL    C9339743   4.646   0.240   6.195 -0.0773 -0.4434  0.9812
  326MOL    F9439744   4.578   0.282   6.299 -0.6001 -0.5497  0.2064
  326MOL    H9539745   4.609   0.398   6.065  0.8290 -0.7617  0.5248
  326MOL    H9639746   4.759   0.328   6.026  1.3952  1.7338  0.5278
  326MOL    H9739747   4.726   0.183   6.242  1.2474  0.7575  0.1946
  326MOL    C9839748   4.562   0.147   6.110 -0.5317  0.4541  0.0152
  326MOL    C9939749   4.507   0.019   6.174  0.4779 -0.3351  0.0592
  326MOL   F10039750   4.405   0.050   6.263 -0.4883 -0.2220  0.0556
  326MOL   H10139751   4.479   0.193   6.057 -2.0831 -1.7412  0.4726
  326MOL   H10239752   4.627   0.119   6.027  1.3914  1.7004  1.0653
  326MOL   H10339753   4.585   7.981   6.238  0.5885  2.2161  1.6048
  326MOL   C10439754   4.452   7.919   6.067 -0.1244  0.2724 -0.3191
  326MOL   C10539755   4.410   7.789   6.132  0.5825  0.2421  0.0485
  326MOL   F10639756   4.332   7.730   6.048  0.1958  0.2444 -0.3406
  326MOL   H10739757   4.365   7.970   6.027  0.3186 -0.3111 -2.0930
  326MOL   H10839758   4.530   7.906   5.992  1.4749  0.3153  1.3010
  326MOL   H10939759   4.361   7.811   6.226  0.6467  0.1655  0.0990
  326MOL   C11039760   4.525   7.697   6.179  0.4166 -0.2606  0.2145
  326MOL   C11139761   4.471   7.560   6.240 -0.6868  0.2805 -0.6131
  326MOL   F11239762   4.575   7.481   6.269 -0.4728  0.3989  0.2849
  326MOL   H11339763   4.595   7.675   6.098 -0.0955 -1.8387  0.1838
  326MOL   H11439764   4.579   7.742   6.263  1.6790 -0.1944 -0.6175
  326MOL   H11539765   4.403   7.520   6.164 -1.8930 -0.6949  0.9617
  326MOL   C11639766   4.396   7.576   6.375 -0.3151  0.7528 -0.3489
  326MOL   C11739767   4.343   7.443   6.431  0.5463  0.2953 -0.0871
  326MOL   F11839768   4.270   7.466   6.542  0.5638 -0.1525  0.3062
  326MOL   H11939769   4.462   7.623   6.448  0.6587  1.5440 -1.7155
  326MOL   H12039770   4.306   7.638   6.370  0.2374  1.6776  0.8818
  326MOL   H12139771   4.418   7.377   6.475  0.5733 -0.4120 -1.1678
  326MOL   H12239772   4.291   7.380   6.358 -1.4871 -0.1541  1.7109
  327MOL     C139773   1.890   7.505   7.049  0.7124  0.3323 -1.0573
  327MOL     C239774   1.770   7.498   7.155  0.3205  0.0328  0.5180
  327MOL     F339775   1.829   7.521   7.276  0.5187  0.5680 -0.1051
  327MOL     H439776   1.972   7.436   7.068  0.9583  0.8928 -0.0334
  327MOL     H539777   1.938   7.603   7.050 -0.1667  0.7633 -1.1325
  327MOL     H639778   1.724   7.400   7.163  2.5319 -0.9192  2.1361
  327MOL     H739779   1.849   7.490   6.949 -1.7836  0.4508 -0.0805
  327MOL     C839780   1.654   7.595   7.134 -0.1107  0.2931 -0.3831
  327MOL     C939781   1.543   7.543   7.051  0.4838  0.5149 -0.1325
  327MOL    F1039782   1.480   7.444   7.120 -0.5429 -0.2111 -0.8072
  327MOL    H1139783   1.609   7.615   7.231  0.1359 -1.1361  0.0361
  327MOL    H1239784   1.682   7.694   7.099 -0.7758 -0.0084 -1.7646
  327MOL    H1339785   1.592   7.499   6.964  2.1608 -0.9384  1.5098
  327MOL    C1439786   1.440   7.641   6.989 -0.3606  0.0576 -0.1422
  327MOL    C1539787   1.496   7.738   6.880  0.0103  0.2374  0.0661
  327MOL    F1639788   1.517   7.669   6.770  0.0555  0.5932 -0.1967
  327MOL    H1739789   1.358   7.590   6.940  1.0481 -1.1310 -1.2984
  327MOL    H1839790   1.394   7.695   7.071 -1.9945  4.8412 -3.9344
  327MOL    H1939791   1.585   7.787   6.920  1.1577 -0.9476 -0.9743
  327MOL    C2039792   1.379   7.844   6.836 -0.5189 -0.2126 -0.6680
  327MOL    C2139793   1.332   7.927   6.953  0.1158 -0.0747  0.4733
  327MOL    F2239794   1.446   7.988   6.994 -0.1980  0.1467  0.0367
  327MOL    H2339795   1.425   7.904   6.758 -0.3219  0.7312  0.1631
  327MOL    H2439796   1.289   7.797   6.796 -2.0300  1.7451  0.2915
  327MOL    H2539797   1.283   7.876   7.035 -0.0212 -0.7357 -0.0133
  327MOL    C2639798   1.249   0.040   6.896  0.5245 -0.2955 -0.3484
  327MOL    C2739799   1.107   8.001   6.854  0.7554  0.2965  0.6961
  327MOL    F2839800   1.033   7.980   6.966 -0.0658  0.3939 -0.0744
  327MOL    H2939801   1.238   0.108   6.980 -2.3939 -0.3445 -0.6537
  327MOL    H3039802   1.305   0.090   6.817 -0.3398  2.2980  0.6239
  327MOL    H3139803   1.095   7.913   6.791  1.1692  0.9322 -0.2975
  327MOL    C3239804   1.034   0.106   6.774 -0.0604  0.7856 -0.1187
  327MOL    C3339805   0.884   0.073   6.749  0.2261 -0.3363  0.0594
  327MOL    F3439806   0.832   0.188   6.703 -0.0087  0.5808 -0.0713
  327MOL    H3539807   1.024   0.184   6.850  1.2281 -0.3733  1.2882
  327MOL    H3639808   1.084   0.142   6.684 -1.3406  0.8871 -0.7984
  327MOL    H3739809   0.841   0.048   6.846 -0.3646  1.3168  0.2466
  327MOL    C3839810   0.853   7.957   6.655 -0.1047 -0.1476 -0.2139
  327MOL    C3939811   0.701   7.947   6.643 -0.3470  0.0416 -1.1078
  327MOL    F4039812   0.693   7.854   6.549  0.2995  0.0535 -0.1400
  327MOL    H4139813   0.901   7.977   6.559 -0.7973  1.4303 -0.2531
  327MOL    H4239814   0.897   7.867   6.696  0.9427  0.9813  1.1753
  327MOL    H4339815   0.661   0.039   6.606  2.9222  2.0198  0.2404
  327MOL    C4439816   0.621   7.898   6.765 -0.5389  0.2028 -0.9140
  327MOL    C4539817   0.478   7.866   6.724  0.1506  0.7363 -0.2255
  327MOL    F4639818   0.424   7.834   6.845 -0.2897  0.4117  0.4287
  327MOL    H4739819   0.665   7.813   6.817  0.7445  1.4730  0.1315
  327MOL    H4839820   0.609   7.973   6.844 -0.3652 -1.8118  1.0879
  327MOL    H4939821   0.468   7.774   6.666  1.5519  0.6827 -0.3961
  327MOL    C5039822   0.396   7.987   6.674  0.6932  0.2089  0.1828
  327MOL    C5139823   0.248   7.960   6.624  0.2654  0.7200 -0.3572
  327MOL    F5239824   0.256   7.866   6.525  0.6213  0.4719  0.1733
  327MOL    H5339825   0.392   0.053   6.758  3.3290  0.7836 -0.1000
  327MOL    H5439826   0.442   0.044   6.595  0.6434  2.1652  1.6058
  327MOL    H5539827   0.211   0.052   6.586  1.2002  0.5742 -1.6722
  327MOL    C5639828   0.153   7.909   6.730  0.2699 -0.0124  1.0664
  327MOL    C5739829   0.135   0.005   6.850  0.4407 -0.6288  0.1532
  327MOL    F5839830   0.071   0.111   6.806 -0.0749  0.1535  0.7772
  327MOL    H5939831   0.060   7.900   6.674  0.1015  0.8165  1.2176
  327MOL    H6039832   0.178   7.805   6.751 -0.1699 -0.6951 -1.6487
  327MOL    H6139833   0.229   0.043   6.891  0.5938 -0.2572 -0.5381
  327MOL    C6239834   0.051   7.955   6.960  0.7013 -0.0475  0.8028
  327MOL    C6339835   0.040   0.041   7.083  0.2130 -0.3951 -1.0559
  327MOL    F6439836   7.960   0.143   7.049 -0.3236 -0.2774 -0.0180
  327MOL    H6539837   7.958   7.944   6.911  0.8303  0.5210  0.4232
  327MOL    H6639838   0.084   7.854   6.983 -0.2933 -0.5719 -0.0272
  327MOL    H6739839   0.140   0.080   7.102  1.2058 -2.0075 -2.8228
  327MOL    C6839840   8.000   7.966   7.212 -0.2637  0.0345  0.0616
  327MOL    C6939841   7.862   7.905   7.208  0.9397 -0.0438  0.5214
  327MOL    F7039842   7.852   7.795   7.136  0.4079  0.1296  0.3943
  327MOL    H7139843   0.075   7.892   7.230  0.3359  0.5184 -0.5298
  327MOL    H7239844   0.001   0.045   7.285 -1.6845  0.5453 -0.4116
  327MOL    H7339845   7.787   7.972   7.167 -0.8462 -2.3501 -0.1105
  327MOL    C7439846   7.815   7.866   7.346 -0.1961  0.3704  0.2893
  327MOL    C7539847   7.873   7.744   7.412  0.2330  0.5064 -0.1535
  327MOL    F7639848   7.995   7.773   7.452  0.2480  0.2340 -0.7863
  327MOL    H7739849   7.846   7.948   7.410  0.1721 -0.2205  0.8737
  327MOL    H7839850   7.706   7.863   7.352 -0.0923 -0.2976  2.1697
  327MOL    H7939851   7.884   7.663   7.340  0.2299  0.9022 -0.6007
  327MOL    C8039852   7.799   7.687   7.539  0.0281 -0.4208 -0.1259
  327MOL    C8139853   7.666   7.627   7.505  0.1886  0.2556 -0.1526
  327MOL    F8239854   7.682   7.558   7.395  0.3335  0.1466 -0.2054
  327MOL    H8339855   7.862   7.611   7.586 -1.4860 -1.3353  0.4427
  327MOL    H8439856   7.771   7.761   7.614  2.0776 -2.5379  2.8572
  327MOL    H8539857   7.606   7.711   7.470 -0.4658 -0.8889 -1.8795
  327MOL    C8639858   7.587   7.575   7.624 -0.1842 -0.5046 -0.4920
  327MOL    C8739859   7.626   7.435   7.669 -0.1275  0.3470  0.3299
  327MOL    F8839860   7.752   7.439   7.718 -0.2572  0.3541  0.3588
  327MOL    H8939861   7.596   7.647   7.705  0.0166 -0.2248 -0.7570
  327MOL    H9039862   7.480   7.563   7.609  0.0911 -2.0841 -1.2725
  327MOL    H9139863   7.618   7.363   7.588  0.6103  0.0721  0.4905
  327MOL    C9239864   7.536   7.382   7.784  0.3486 -0.3179  0.1896
  327MOL    C9339865   7.552   7.234   7.804  0.2394  1.2248 -0.1560
  327MOL    F9439866   7.515   7.194   7.920 -0.3181 -0.4238 -0.3813
  327MOL    H9539867   7.550   7.449   7.868  1.6866  0.3662 -0.5668
  327MOL    H9639868   7.431   7.385   7.756 -0.2817 -1.4574  2.2887
  327MOL    H9739869   7.657   7.206   7.803 -0.1794 -0.5166  2.2961
  327MOL    C9839870   7.483   7.154   7.693  0.2224 -0.0178  0.0936
  327MOL    C9939871   7.494   7.002   7.709 -0.2688  0.0809 -0.0326
  327MOL   F10039872   7.427   6.957   7.815  0.3785  0.1087  0.0244
  327MOL   H10139873   7.375   7.166   7.688  0.2262  0.1156  0.3149
  327MOL   H10239874   7.523   7.180   7.596  2.4951 -1.7326  0.5183
  327MOL   H10339875   7.596   6.966   7.718  0.1655  1.1220 -0.7192
  327MOL   C10439876   7.427   6.928   7.595  0.1370 -0.6217 -0.1390
  327MOL   C10539877   7.445   6.775   7.601 -0.1344  0.1340 -1.0832
  327MOL   F10639878   7.351   6.734   7.514  0.0990 -0.1463 -0.4279
  327MOL   H10739879   7.320   6.945   7.598  0.2299 -0.3148  2.1077
  327MOL   H10839880   7.458   6.972   7.500 -0.5275 -0.8215 -0.4484
  327MOL   H10939881   7.412   6.728   7.693  2.1279 -3.1302 -1.8550
  327MOL   C11039882   7.584   6.720   7.578 -0.3346 -0.0831 -0.7183
  327MOL   C11139883   7.630   6.722   7.437  0.1248  0.1732  0.6721
  327MOL   F11239884   7.662   6.850   7.413 -0.0342 -0.1170 -0.2676
  327MOL   H11339885   7.668   6.773   7.622  1.5121 -3.0434 -0.5183
  327MOL   H11439886   7.574   6.618   7.615  2.8991  0.4695  1.9939
  327MOL   H11539887   7.549   6.700   7.366  1.5048 -1.2240 -0.5031
  327MOL   C11639888   7.746   6.631   7.406  0.4430  0.6612  0.0977
  327MOL   C11739889   7.790   6.656   7.263 -0.1657  0.0211 -0.0347
  327MOL   F11839890   7.884   6.560   7.235 -0.1945 -0.0041 -0.3326
  327MOL   H11939891   7.822   6.645   7.483  0.5784 -0.0450  0.0963
  327MOL   H12039892   7.722   6.526   7.422 -2.8545  1.4060  0.3431
  327MOL   H12139893   7.836   6.754   7.258 -0.1081 -0.0095 -0.1018
  327MOL   H12239894   7.712   6.653   7.188 -1.5248 -1.4814  1.3853
  328MOL     C139895   7.775   0.720   5.380  0.4689 -0.1854  0.2109
  328MOL     C239896   7.786   0.781   5.521 -0.8044 -0.4593  0.0864
  328MOL     F339897   7.910   0.791   5.553  0.2070 -0.4068 -0.5069
  328MOL     H439898   7.806   0.797   5.310  0.0272 -2.1857 -2.2885
  328MOL     H539899   7.674   0.701   5.343  0.7419  1.1703 -1.2897
  328MOL     H639900   7.730   0.715   5.588 -2.4342  0.4512 -0.3595
  328MOL     H739901   7.819   0.620   5.375 -1.1781 -0.9368  0.3743
  328MOL     C839902   7.722   0.917   5.521  0.1314  0.3531  0.1393
  328MOL     C939903   7.719   0.999   5.654 -0.1791  0.6113 -0.2765
  328MOL    F1039904   7.696   1.125   5.621  0.1995 -0.4942 -0.1292
  328MOL    H1139905   7.776   0.988   5.459 -3.3499  0.4830 -2.9028
  328MOL    H1239906   7.620   0.914   5.481  1.3069  1.3652 -3.0016
  328MOL    H1339907   7.811   0.998   5.712  0.6310 -0.9535 -1.5317
  328MOL    C1439908   7.616   0.951   5.763  0.7133 -0.1300 -0.0084
  328MOL    C1539909   7.603   1.040   5.891  0.3235  0.5041 -0.5289
  328MOL    F1639910   7.507   0.984   5.971  0.0018  0.0932  0.0684
  328MOL    H1739911   7.520   0.930   5.715  0.8927 -1.6295  0.2641
  328MOL    H1839912   7.650   0.850   5.787 -2.8255 -0.9682  1.8042
  328MOL    H1939913   7.547   1.128   5.861 -1.0095 -0.5729 -1.2600
  328MOL    C2039914   7.729   1.071   5.970  0.1433  0.0191 -0.0872
  328MOL    C2139915   7.704   1.184   6.073  0.4700 -0.3722 -0.3352
  328MOL    F2239916   7.624   1.134   6.164 -0.2681 -0.3019 -0.0025
  328MOL    H2339917   7.759   0.986   6.032 -0.1401  0.3457  0.5069
  328MOL    H2439918   7.814   1.106   5.911  0.1258 -1.3991 -0.9687
  328MOL    H2539919   7.649   1.268   6.029  1.2076 -0.2660 -1.0778
  328MOL    C2639920   7.826   1.251   6.151 -0.2270 -0.2625  0.2323
  328MOL    C2739921   7.937   1.328   6.066  0.4276 -0.6056  0.9222
  328MOL    F2839922   7.877   1.415   5.984 -0.0744 -0.0811  0.1260
  328MOL    H2939923   7.780   1.327   6.214  1.7456  0.7660  0.4932
  328MOL    H3039924   7.865   1.182   6.226 -2.8561  0.2679  2.1308
  328MOL    H3139925   7.985   1.266   5.990  0.4719 -0.2161  0.6276
  328MOL    C3239926   0.036   1.399   6.158 -0.2219  0.4845 -0.6172
  328MOL    C3339927   0.152   1.471   6.082  0.1429  0.0762  0.2182
  328MOL    F3439928   0.101   1.577   6.028 -0.3722  0.3495  0.5488
  328MOL    H3539929   7.984   1.462   6.228 -1.1478 -0.3389 -0.5849
  328MOL    H3639930   0.083   1.317   6.211 -1.7441 -0.2474 -0.3583
  328MOL    H3739931   0.187   1.411   5.998  1.1674 -0.9596  1.3648
  328MOL    C3839932   0.267   1.526   6.163  0.2541 -0.1150 -0.1689
  328MOL    C3939933   0.345   1.416   6.233  0.1664 -0.2250 -0.2963
  328MOL    F4039934   0.409   1.360   6.129 -0.6008 -0.2269  0.3394
  328MOL    H4139935   0.331   1.594   6.107 -1.0747  1.1078 -0.2235
  328MOL    H4239936   0.215   1.582   6.241  1.6445 -0.7345  1.2281
  328MOL    H4339937   0.280   1.348   6.288 -0.5682  2.0404  1.7045
  328MOL    C4439938   0.447   1.468   6.335  0.0416  0.2150  0.0309
  328MOL    C4539939   0.378   1.514   6.467 -0.3491 -0.3363  0.1223
  328MOL    F4639940   0.315   1.414   6.522  0.2504  0.0004  0.4326
  328MOL    H4739941   0.516   1.387   6.359 -0.3000 -0.1862 -0.3189
  328MOL    H4839942   0.496   1.554   6.289  1.9989 -1.0585 -0.3261
  328MOL    H4939943   0.301   1.588   6.445 -0.1224 -0.5784 -1.5644
  328MOL    C5039944   0.477   1.596   6.563  0.0270  0.1242  0.7586
  328MOL    C5139945   0.521   1.735   6.528 -0.2263  0.1810 -0.1096
  328MOL    F5239946   0.422   1.830   6.529 -0.2147  0.0116 -0.0591
  328MOL    H5339947   0.431   1.611   6.660  1.3478 -2.2429  1.8020
  328MOL    H5439948   0.556   1.525   6.587  0.2631  0.6735  1.6164
  328MOL    H5539949   0.550   1.746   6.423 -2.4455 -0.6959 -0.8408
  328MOL    C5639950   0.645   1.790   6.614 -0.1715  0.8408 -0.0549
  328MOL    C5739951   0.615   1.848   6.751  0.3995 -0.2577 -0.3856
  328MOL    F5839952   0.586   1.745   6.832 -0.0341  0.7570 -0.1576
  328MOL    H5939953   0.704   1.699   6.629 -0.7780 -0.0943 -3.0626
  328MOL    H6039954   0.713   1.855   6.559  0.6089  1.2597  1.3796
  328MOL    H6139955   0.529   1.915   6.744  0.1473 -0.6681 -1.1917
  328MOL    C6239956   0.737   1.908   6.812  0.4393 -0.2468 -0.6501
  328MOL    C6339957   0.708   1.943   6.960  0.4012  0.0290 -0.5591
  328MOL    F6439958   0.825   1.980   7.005 -0.1430  0.1912 -0.4499
  328MOL    H6539959   0.823   1.843   6.804 -0.5956 -1.7057 -0.1531
  328MOL    H6639960   0.773   1.999   6.763  0.9898  1.7676  3.2725
  328MOL    H6739961   0.672   1.861   7.023 -0.9666  0.3702 -0.8789
  328MOL    C6839962   0.621   2.062   6.996  0.8313  0.7275  0.5601
  328MOL    C6939963   0.574   2.071   7.141 -0.2338 -0.2595 -0.2169
  328MOL    F7039964   0.686   2.075   7.218  0.7466 -0.0105 -0.4240
  328MOL    H7139965   0.678   2.148   6.962  1.7070  0.1489  0.5505
  328MOL    H7239966   0.534   2.067   6.931  0.1813  1.7991  1.4892
  328MOL    H7339967   0.539   1.971   7.168 -1.2259  0.8593  2.8221
  328MOL    C7439968   0.497   2.205   7.175 -0.2835  0.7822  0.3358
  328MOL    C7539969   0.432   2.211   7.314  0.4733  0.1261 -0.2014
  328MOL    F7639970   0.327   2.130   7.315 -0.3418  0.2057  0.3590
  328MOL    H7739971   0.566   2.288   7.162  2.4268 -1.6667 -1.5245
  328MOL    H7839972   0.424   2.220   7.095 -0.4624  0.2273  0.3905
  328MOL    H7939973   0.393   2.313   7.316  1.3125  0.4551 -0.7574
  328MOL    C8039974   0.510   2.188   7.442 -0.1344  0.4600 -0.4109
  328MOL    C8139975   0.639   2.277   7.463 -0.2249 -0.6264 -0.0551
  328MOL    F8239976   0.623   2.395   7.409 -1.0350 -0.1066  0.0403
  328MOL    H8339977   0.446   2.195   7.530  0.8580 -2.1995  0.5621
  328MOL    H8439978   0.534   2.082   7.444 -3.3263 -0.3345 -1.3703
  328MOL    H8539979   0.722   2.226   7.416  2.3440  1.7093  1.7955
  328MOL    C8639980   0.668   2.285   7.611  0.6323 -0.2503 -0.3529
  328MOL    C8739981   0.675   2.161   7.696 -0.6119 -0.1615  0.6409
  328MOL    F8839982   0.774   2.091   7.653  0.0197  0.0451  0.2801
  328MOL    H8939983   0.759   2.342   7.630  0.4322  0.1948 -0.7293
  328MOL    H9039984   0.590   2.349   7.651 -0.9396 -1.4569 -1.4520
  328MOL    H9139985   0.592   2.094   7.672  0.4394 -1.4258  0.4685
  328MOL    C9239986   0.692   2.171   7.853 -0.2300  0.4142  0.2970
  328MOL    C9339987   0.828   2.227   7.897 -0.5949 -0.0578 -0.0926
  328MOL    F9439988   0.824   2.355   7.856 -0.1823 -0.1613  0.0917
  328MOL    H9539989   0.606   2.216   7.903 -2.9317 -1.2891 -2.7014
  328MOL    H9639990   0.678   2.074   7.900  0.3475 -0.6299 -1.6280
  328MOL    H9739991   0.906   2.185   7.834 -0.1469 -1.9028  1.6429
  328MOL    C9839992   0.833   2.235   0.046  0.8375 -0.8317  0.2008
  328MOL    C9939993   0.964   2.286   0.112 -0.4634  0.5451  0.3015
  328MOL   F10039994   0.962   2.421   0.099 -0.0094 -0.6798  0.1173
  328MOL   H10139995   0.755   2.304   0.079  0.2103 -1.3395 -0.2111
  328MOL   H10239996   0.813   2.135   0.084 -0.8722 -1.0739 -1.2736
  328MOL   H10339997   1.050   2.244   0.060 -1.6801 -2.3643  0.5169
  328MOL   C10439998   0.972   2.254   0.258 -0.2185  0.0327 -0.5681
  328MOL   C10539999   1.003   2.109   0.294 -0.4369 -0.0160  0.2865
  328MOL   F10640000   1.112   2.064   0.237  0.0969 -0.0772 -0.1179
  328MOL   H10740001   1.048   2.317   0.304  1.2673 -0.7186 -1.9394
  328MOL   H10840002   0.878   2.286   0.303  0.4672 -0.6856  1.4401
  328MOL   H10940003   0.924   2.046   0.252  0.8904  0.3371 -2.8323
  328MOL   C11040004   1.009   2.073   0.447  0.0225 -0.9183  0.4552
  328MOL   C11140005   1.000   1.924   0.473 -0.3707 -1.0761 -0.0267
  328MOL   F11240006   1.123   1.870   0.448  0.1996 -0.4937 -0.2912
  328MOL   H11340007   1.093   2.128   0.489 -0.8037 -0.0222  0.9295
  328MOL   H11440008   0.926   2.131   0.487  1.7046  2.4012 -0.7315
  328MOL   H11540009   0.924   1.880   0.407  1.1124  0.6357 -2.9627
  328MOL   C11640010   0.959   1.891   0.618  0.3442  0.3420 -0.2520
  328MOL   C11740011   0.897   1.749   0.630  1.0597 -0.0010 -0.4033
  328MOL   F11840012   0.862   1.732   0.758 -0.3540 -0.1867  0.0723
  328MOL   H11940013   1.046   1.903   0.683 -1.5046  2.7105  1.8395
  328MOL   H12040014   0.889   1.968   0.649  1.5079  2.2765 -2.2660
  328MOL   H12140015   0.968   1.672   0.597  0.2911 -0.9679  0.1640
  328MOL   H12240016   0.817   1.736   0.558  1.2028  0.9641 -0.7383
  329MOL     C140017   3.726   3.252   7.317 -0.0815  0.2051  0.1722
  329MOL     C240018   3.632   3.350   7.248  0.5431  0.6232 -0.3279
  329MOL     F340019   3.513   3.297   7.238  0.3664 -0.4039 -0.3155
  329MOL     H440020   3.724   3.163   7.255  0.5278  0.5458 -0.3374
  329MOL     H540021   3.694   3.223   7.418 -1.5498 -2.1758 -0.9384
  329MOL     H640022   3.669   3.367   7.146  2.6644 -0.7888  0.1738
  329MOL     H740023   3.826   3.295   7.326 -0.2004  0.4087  0.5412
  329MOL     C840024   3.620   3.489   7.306  0.4807 -0.4631 -0.0635
  329MOL     C940025   3.488   3.562   7.268  0.2627  0.0136  0.0818
  329MOL    F1040026   3.385   3.496   7.321 -0.2009 -0.3066  0.2948
  329MOL    H1140027   3.629   3.500   7.414  0.6369 -1.6901  0.0535
  329MOL    H1240028   3.713   3.536   7.276  0.1797 -0.5422 -1.1182
  329MOL    H1340029   3.461   3.547   7.163  0.2960  1.2209 -0.1020
  329MOL    C1440030   3.477   3.711   7.306  0.1430  0.6174 -0.4605
  329MOL    C1540031   3.570   3.818   7.231  0.4999  0.1557 -0.2551
  329MOL    F1640032   3.530   3.820   7.104 -0.6375 -0.3077  0.2142
  329MOL    H1740033   3.374   3.748   7.308 -0.0707  0.0414 -0.7523
  329MOL    H1840034   3.502   3.725   7.411 -0.5048  0.1511 -0.2442
  329MOL    H1940035   3.674   3.785   7.225 -0.0789 -2.2052  1.6562
  329MOL    C2040036   3.574   3.957   7.291 -0.1531  0.7320  0.5547
  329MOL    C2140037   3.662   4.056   7.222 -0.1344  0.2613 -0.6922
  329MOL    F2240038   3.629   4.077   7.096 -0.5351 -0.2263  0.5328
  329MOL    H2340039   3.473   3.997   7.282  1.1231  3.8937 -0.5382
  329MOL    H2440040   3.609   3.948   7.394  1.2945 -0.3320 -0.0043
  329MOL    H2540041   3.766   4.026   7.213 -0.2537 -0.1349 -0.7602
  329MOL    C2640042   3.674   4.184   7.308  0.2662 -0.6750 -0.0871
  329MOL    C2740043   3.765   4.286   7.233 -0.6598 -0.1925  0.1939
  329MOL    F2840044   3.704   4.327   7.125  0.0965 -0.2093 -0.3684
  329MOL    H2940045   3.579   4.237   7.312  0.4429 -0.3186 -0.4917
  329MOL    H3040046   3.719   4.175   7.407  0.1562  1.9668  0.2489
  329MOL    H3140047   3.849   4.227   7.196  1.3933  0.8668  3.0054
  329MOL    C3240048   3.804   4.409   7.311 -0.0553  0.2179  0.1728
  329MOL    C3340049   3.898   4.389   7.427  0.5671 -0.3803  1.0026
  329MOL    F3440050   4.015   4.349   7.368  0.3918 -0.4766 -0.0167
  329MOL    H3540051   3.839   4.486   7.242 -0.7664 -0.1308 -0.5830
  329MOL    H3640052   3.714   4.450   7.358  0.1859 -0.1041  0.9141
  329MOL    H3740053   3.866   4.309   7.494 -0.2576 -0.4001  0.5918
  329MOL    C3840054   3.935   4.512   7.514  1.0832  0.4253  0.3363
  329MOL    C3940055   3.896   4.519   7.665 -0.0168  0.4699  0.1298
  329MOL    F4040056   3.926   4.637   7.716 -0.0381 -0.3039 -0.0090
  329MOL    H4140057   4.042   4.525   7.503  1.4613 -0.8254  2.2001
  329MOL    H4240058   3.887   4.597   7.466 -0.3197  1.8250  4.0334
  329MOL    H4340059   3.957   4.442   7.712 -1.9871 -0.6802  0.8662
  329MOL    C4440060   3.742   4.492   7.698 -0.1498 -0.0226 -0.0296
  329MOL    C4540061   3.637   4.586   7.641  0.2487 -0.0815 -0.3777
  329MOL    F4640062   3.522   4.519   7.611 -0.4931 -0.6231 -0.0862
  329MOL    H4740063   3.723   4.396   7.650 -0.3248  0.6780 -1.3937
  329MOL    H4840064   3.728   4.486   7.805 -0.2779  3.2231  0.1943
  329MOL    H4940065   3.670   4.620   7.543  0.1467 -1.5851 -0.9562
  329MOL    C5040066   3.592   4.697   7.727  0.0961  0.1820  0.3190
  329MOL    C5140067   3.520   4.815   7.653  0.5237 -0.1675 -1.2783
  329MOL    F5240068   3.601   4.879   7.568  0.0702 -0.3821 -0.1541
  329MOL    H5340069   3.518   4.662   7.799  0.3382 -1.2041 -0.0914
  329MOL    H5440070   3.680   4.740   7.773  0.4865 -0.3540  0.0821
  329MOL    H5540071   3.485   4.892   7.722  0.9447  0.4160 -1.7004
  329MOL    C5640072   3.403   4.772   7.559 -0.6575  0.1415 -0.6110
  329MOL    C5740073   3.325   4.873   7.489 -0.0838 -0.0526 -0.5324
  329MOL    F5840074   3.404   4.924   7.389 -0.5052 -0.3414 -0.2654
  329MOL    H5940075   3.454   4.714   7.482  0.8006 -0.5856  0.8608
  329MOL    H6040076   3.343   4.699   7.613  3.2666 -0.6548  2.9919
  329MOL    H6140077   3.317   4.946   7.569  0.6881  0.0373 -0.5332
  329MOL    C6240078   3.185   4.839   7.431 -0.0643 -0.1820 -0.1873
  329MOL    C6340079   3.091   4.961   7.433 -0.0912  0.5437  0.3597
  329MOL    F6440080   3.143   5.038   7.334  0.9875  0.0171  0.9323
  329MOL    H6540081   3.184   4.794   7.332  1.2811 -1.0011  0.1538
  329MOL    H6640082   3.137   4.769   7.499  0.6130  0.2775  0.7854
  329MOL    H6740083   3.098   5.022   7.522 -1.1671  1.8080 -0.4114
  329MOL    C6840084   2.947   4.916   7.403 -0.0791 -0.0536  0.1450
  329MOL    C6940085   2.833   5.025   7.400 -0.5680  0.1180 -0.5644
  329MOL    F7040086   2.820   5.100   7.507  0.0736  0.5586 -0.3045
  329MOL    H7140087   2.942   4.853   7.314  1.6766 -0.0386  0.0195
  329MOL    H7240088   2.919   4.847   7.483  1.3904 -2.2977 -1.2022
  329MOL    H7340089   2.739   4.970   7.388 -0.4025 -0.0991 -0.8762
  329MOL    C7440090   2.841   5.119   7.279 -0.2361  0.3176  0.8199
  329MOL    C7540091   2.822   5.048   7.137  0.1913 -0.2557  0.2130
  329MOL    F7640092   2.703   5.002   7.149 -0.2633  0.3488  0.3163
  329MOL    H7740093   2.765   5.197   7.291  0.7558  1.6156 -0.9947
  329MOL    H7840094   2.937   5.171   7.282  1.5456 -2.8735  0.8686
  329MOL    H7940095   2.900   4.976   7.111  1.1097  1.3171 -1.4768
  329MOL    C8040096   2.812   5.147   7.017  0.4195  0.2832 -0.8886
  329MOL    C8140097   2.787   5.077   6.880  0.3628 -0.0881 -0.2502
  329MOL    F8240098   2.682   4.993   6.885 -0.0968  0.1938  0.5856
  329MOL    H8340099   2.731   5.213   7.049 -0.2615 -1.8500  1.9810
  329MOL    H8440100   2.899   5.213   7.010 -0.2186  1.4868  1.8040
  329MOL    H8540101   2.865   5.004   6.858  0.4591 -0.5889  1.5963
  329MOL    C8640102   2.753   5.173   6.769 -0.7511  0.6880  0.0702
  329MOL    C8740103   2.604   5.229   6.769 -0.0492 -0.2270  0.0301
  329MOL    F8840104   2.591   5.296   6.881 -0.2370 -0.0330  0.7944
  329MOL    H8940105   2.833   5.247   6.775 -0.1523  0.1844 -1.5761
  329MOL    H9040106   2.759   5.120   6.674 -1.4075  1.9531 -0.7023
  329MOL    H9140107   2.537   5.144   6.778 -0.0478 -0.3639 -1.2235
  329MOL    C9240108   2.562   5.326   6.659  0.2172 -0.7621  0.4727
  329MOL    C9340109   2.411   5.364   6.636  0.7327 -0.0447  0.2128
  329MOL    F9440110   2.351   5.254   6.596  0.3111  0.1152  0.1049
  329MOL    H9540111   2.621   5.417   6.673  0.0661 -0.1318 -2.5672
  329MOL    H9640112   2.598   5.294   6.561  1.2359  2.2622 -0.2057
  329MOL    H9740113   2.392   5.437   6.558 -1.0171 -0.5134  0.1792
  329MOL    C9840114   2.347   5.421   6.761 -0.7207  0.8089 -0.3982
  329MOL    C9940115   2.427   5.542   6.813 -0.0752  0.3052  0.5533
  329MOL   F10040116   2.424   5.639   6.724 -0.2143  0.5004 -0.2308
  329MOL   H10140117   2.243   5.442   6.735 -1.8559 -0.2126  3.1034
  329MOL   H10240118   2.352   5.345   6.839  0.8436 -0.1301 -1.3998
  329MOL   H10340119   2.535   5.526   6.823 -0.1104  0.2410  0.8388
  329MOL   C10440120   2.373   5.585   6.950 -0.1325 -0.0555 -0.5577
  329MOL   C10540121   2.467   5.674   7.030  0.5674  0.2321 -0.0483
  329MOL   F10640122   2.474   5.792   6.969  0.0304 -0.1092  0.1023
  329MOL   H10740123   2.280   5.636   6.928 -0.0492 -0.1914 -1.2428
  329MOL   H10840124   2.343   5.501   7.013 -0.1057 -0.1720 -0.7008
  329MOL   H10940125   2.569   5.639   7.042  1.0537  1.3023 -0.9336
  329MOL   C11040126   2.406   5.707   7.169  0.1832 -0.2368 -0.1396
  329MOL   C11140127   2.498   5.798   7.258 -0.6499 -0.6258  0.4129
  329MOL   F11240128   2.517   5.918   7.209 -0.3637 -0.2556 -0.0832
  329MOL   H11340129   2.311   5.761   7.172  0.3171 -0.0651  1.3631
  329MOL   H11440130   2.401   5.613   7.222  0.3181 -0.1142  0.0902
  329MOL   H11540131   2.598   5.757   7.274  0.2077  1.2553 -0.0179
  329MOL   C11640132   2.437   5.823   7.399  0.2221  0.0029 -0.5699
  329MOL   C11740133   2.513   5.910   7.495  0.2378 -0.2444 -0.5316
  329MOL   F11840134   2.452   5.888   7.607  0.4855  0.3514 -0.2909
  329MOL   H11940135   2.336   5.861   7.386 -0.1820 -0.3843  1.2207
  329MOL   H12040136   2.419   5.729   7.451 -2.3856  0.4036 -0.6594
  329MOL   H12140137   2.515   6.017   7.475 -3.4340 -0.0459 -0.0535
  329MOL   H12240138   2.612   5.870   7.515 -0.6089 -1.0674  2.1836
  330MOL     C140139   1.283   2.031   2.348  0.3936  0.1108 -0.2655
  330MOL     C240140   1.305   1.949   2.481 -0.2558  0.1773 -0.2806
  330MOL     F340141   1.280   1.822   2.448 -0.0423 -0.4076 -0.7207
  330MOL     H440142   1.297   2.139   2.353 -2.0827  0.3773  2.3160
  330MOL     H540143   1.179   2.015   2.321 -0.3799  1.3322  1.8806
  330MOL     H640144   1.228   1.991   2.546  1.4538 -0.3842  2.1657
  330MOL     H740145   1.330   1.985   2.261 -1.6426 -0.4659 -1.0801
  330MOL     C840146   1.444   1.957   2.546 -0.9430 -0.5269 -0.6891
  330MOL     C940147   1.574   1.907   2.469 -0.1745 -0.9748  0.1409
  330MOL    F1040148   1.601   1.986   2.364  0.2395 -0.1026  0.3488
  330MOL    H1140149   1.460   2.062   2.570  0.2050 -0.9048  0.2194
  330MOL    H1240150   1.447   1.903   2.641  1.2747 -0.2662 -0.6000
  330MOL    H1340151   1.550   1.815   2.416 -2.3382 -0.8031  0.7573
  330MOL    C1440152   1.705   1.876   2.551  0.0163 -0.6282  0.0277
  330MOL    C1540153   1.755   1.975   2.654  0.6001  0.0119 -0.3257
  330MOL    F1640154   1.666   1.984   2.751  0.1479 -0.0951  0.4311
  330MOL    H1740155   1.708   1.779   2.601  1.2031 -0.7287 -0.2066
  330MOL    H1840156   1.777   1.867   2.470  0.8425 -4.0448  1.0706
  330MOL    H1940157   1.770   2.073   2.609  1.5389 -0.0272 -0.0999
  330MOL    C2040158   1.888   1.945   2.723 -0.1555 -0.2381  0.4605
  330MOL    C2140159   2.013   1.958   2.630  0.6573 -0.1997  0.1927
  330MOL    F2240160   2.003   2.066   2.560  0.3269 -0.7644  0.0497
  330MOL    H2340161   1.892   2.022   2.800  1.0435 -2.1452  2.3609
  330MOL    H2440162   1.886   1.847   2.770  0.7635  0.0136  1.0246
  330MOL    H2540163   2.018   1.873   2.561  1.8563 -0.1670  0.2267
  330MOL    C2640164   2.152   1.964   2.699  0.8523  0.1725 -0.5945
  330MOL    C2740165   2.208   1.824   2.740 -0.3620  0.0928 -0.5782
  330MOL    F2840166   2.223   1.753   2.624  0.1216 -0.1137 -0.3499
  330MOL    H2940167   2.223   2.016   2.635 -1.6722  1.6589 -2.2399
  330MOL    H3040168   2.147   2.024   2.791  1.1016  0.2629 -0.6385
  330MOL    H3140169   2.136   1.774   2.805  0.8222 -0.4490  0.3337
  330MOL    C3240170   2.344   1.840   2.820  0.1859  0.5993  0.1288
  330MOL    C3340171   2.401   1.706   2.874  0.1961  0.1255  0.0113
  330MOL    F3440172   2.414   1.621   2.773 -0.1057 -0.0197 -0.1181
  330MOL    H3540173   2.417   1.889   2.755 -0.3824  1.1645 -0.0818
  330MOL    H3640174   2.325   1.917   2.893 -1.0742 -0.9356  1.4613
  330MOL    H3740175   2.339   1.660   2.950  0.3675  0.4969  0.3762
  330MOL    C3840176   2.541   1.712   2.934 -0.0090  0.6242 -0.7321
  330MOL    C3940177   2.603   1.573   2.964  0.2922  0.6532 -0.0614
  330MOL    F4040178   2.650   1.514   2.855  0.0452 -0.9768  0.3611
  330MOL    H4140179   2.607   1.769   2.869  0.7217 -1.0253 -1.4532
  330MOL    H4240180   2.535   1.770   3.026  0.0008 -0.5604  0.0326
  330MOL    H4340181   2.535   1.499   3.006  0.9313 -0.1740 -0.4642
  330MOL    C4440182   2.735   1.573   3.044  0.1210 -0.1166  0.3442
  330MOL    C4540183   2.726   1.618   3.189 -0.4597  0.4067 -0.5285
  330MOL    F4640184   2.640   1.549   3.258  0.0807 -0.0910 -0.0753
  330MOL    H4740185   2.770   1.470   3.050  2.4585  0.8172  4.1010
  330MOL    H4840186   2.808   1.628   2.984 -0.0689  0.5370  0.7130
  330MOL    H4940187   2.686   1.716   3.215 -1.0462 -0.0624  0.3689
  330MOL    C5040188   2.869   1.613   3.256 -0.7156  0.2888 -0.1654
  330MOL    C5140189   2.969   1.715   3.190  0.3849  0.3684  0.1932
  330MOL    F5240190   2.915   1.828   3.222  0.1688 -0.3304 -0.2526
  330MOL    H5340191   2.861   1.615   3.365 -1.2548 -3.2224 -0.0761
  330MOL    H5440192   2.908   1.516   3.225 -1.3194 -0.1765  0.5225
  330MOL    H5540193   2.972   1.708   3.082  1.0681 -2.5502  0.3630
  330MOL    C5640194   3.117   1.716   3.241 -0.1521 -0.0561  0.6665
  330MOL    C5740195   3.207   1.808   3.161  0.2755 -0.4470 -0.0098
  330MOL    F5840196   3.209   1.765   3.038 -0.2726 -0.3141  0.4500
  330MOL    H5940197   3.127   1.728   3.349  0.4794  1.3491  0.4640
  330MOL    H6040198   3.158   1.616   3.225  0.3253  0.4180 -1.1782
  330MOL    H6140199   3.301   1.810   3.216 -0.1547  1.3858  0.7029
  330MOL    C6240200   3.160   1.955   3.145  0.7363  0.9459 -0.2819
  330MOL    C6340201   3.166   2.019   3.284  0.1344  0.5514  0.1316
  330MOL    F6440202   3.291   2.019   3.333  0.2494  0.3249  0.0430
  330MOL    H6540203   3.211   2.017   3.071  0.6808  1.5990  0.2152
  330MOL    H6640204   3.056   1.962   3.115  0.3174  3.1007  1.4939
  330MOL    H6740205   3.111   1.979   3.369 -0.8142  0.3323 -0.5846
  330MOL    C6840206   3.133   2.169   3.268  0.1143  0.6949  0.4383
  330MOL    C6940207   3.104   2.235   3.406  0.0853  0.1872  0.1901
  330MOL    F7040208   2.992   2.196   3.456  0.3033  0.3623 -0.3564
  330MOL    H7140209   3.213   2.226   3.222  3.9543 -2.9717  2.1859
  330MOL    H7240210   3.039   2.183   3.213  0.3522 -1.9683 -0.7235
  330MOL    H7340211   3.089   2.342   3.391 -0.4340  0.1277  0.2763
  330MOL    C7440212   3.215   2.225   3.513  0.0226 -0.3081  0.0717
  330MOL    C7540213   3.185   2.292   3.655  0.6501  0.1269 -0.7697
  330MOL    F7640214   3.071   2.234   3.699  0.5526 -0.5327  0.0582
  330MOL    H7740215   3.217   2.119   3.535  1.0027 -0.2133  0.4315
  330MOL    H7840216   3.311   2.244   3.466  0.5471  0.3429  1.3913
  330MOL    H7940217   3.172   2.399   3.642  3.3071  0.5202 -0.5300
  330MOL    C8040218   3.302   2.257   3.753 -0.6067 -0.3872 -0.5770
  330MOL    C8140219   3.296   2.326   3.896  0.7212 -0.6566  0.3623
  330MOL    F8240220   3.289   2.460   3.874  0.3810  0.3846  0.3240
  330MOL    H8340221   3.317   2.149   3.759 -0.0005 -0.1571  2.4850
  330MOL    H8440222   3.401   2.289   3.721 -0.5752 -0.3921 -0.4834
  330MOL    H8540223   3.387   2.319   3.955  2.6816  2.7410 -2.0865
  330MOL    C8640224   3.174   2.284   3.975 -0.2049 -0.3831 -0.1418
  330MOL    C8740225   3.169   2.141   4.022  0.2342 -0.2370  0.0159
  330MOL    F8840226   3.278   2.120   4.095  0.1200  0.5003  0.1608
  330MOL    H8940227   3.179   2.342   4.068  0.0031 -0.5839 -0.0261
  330MOL    H9040228   3.080   2.307   3.926  0.5713 -0.4571 -1.6935
  330MOL    H9140229   3.163   2.065   3.943  0.4059  0.0072 -0.2321
  330MOL    C9240230   3.043   2.099   4.102 -0.1095  0.5052  0.6858
  330MOL    C9340231   3.042   1.989   4.206 -0.4010 -0.1296 -0.2621
  330MOL    F9440232   3.111   2.046   4.301 -0.5861  0.6804 -0.4543
  330MOL    H9540233   3.017   2.197   4.142 -2.1482 -0.0178  0.6977
  330MOL    H9640234   2.979   2.072   4.018  0.3159  1.9934 -0.1501
  330MOL    H9740235   3.097   1.897   4.187  2.2414  0.8211  2.4393
  330MOL    C9840236   2.904   1.951   4.262 -0.6402  0.4648 -0.6455
  330MOL    C9940237   2.836   1.847   4.172 -0.3958  0.1734 -0.1356
  330MOL   F10040238   2.920   1.750   4.144 -0.5741  0.4027 -0.6391
  330MOL   H10140239   2.911   1.889   4.352  0.1816 -0.1255 -1.1120
  330MOL   H10240240   2.853   2.046   4.278 -1.4419  0.1288 -1.2392
  330MOL   H10340241   2.801   1.891   4.079 -0.0739  1.2154  0.2337
  330MOL   C10440242   2.706   1.782   4.228  0.6691  0.0669  0.4540
  330MOL   C10540243   2.588   1.882   4.234  0.0141 -0.2503 -0.6900
  330MOL   F10640244   2.545   1.925   4.119 -0.5153 -0.4832  0.2261
  330MOL   H10740245   2.675   1.707   4.156  1.4249  0.8850 -0.7481
  330MOL   H10840246   2.727   1.730   4.322 -0.5380 -0.2557  0.5554
  330MOL   H10940247   2.602   1.973   4.293 -1.0513  1.1279 -2.4977
  330MOL   C11040248   2.462   1.809   4.299 -0.2718 -0.5144 -0.8112
  330MOL   C11140249   2.351   1.906   4.347  0.1297 -0.3959 -0.3472
  330MOL   F11240250   2.284   1.954   4.242 -0.5209  0.0373 -0.3708
  330MOL   H11340251   2.420   1.739   4.227 -0.2326  0.0302 -1.3701
  330MOL   H11440252   2.498   1.739   4.374 -2.9808 -0.6017  0.4358
  330MOL   H11540253   2.390   2.000   4.387 -0.7230 -0.3930  0.5087
  330MOL   C11640254   2.249   1.841   4.446 -0.3933 -0.3300 -0.3025
  330MOL   C11740255   2.292   1.780   4.581  0.3922  0.5975  0.3737
  330MOL   F11840256   2.179   1.732   4.638  0.3339  0.3995 -0.1594
  330MOL   H11940257   2.170   1.910   4.476 -2.6344 -2.4731 -1.2203
  330MOL   H12040258   2.198   1.767   4.384  1.2775 -2.1551  0.4563
  330MOL   H12140259   2.339   1.856   4.642  2.6455 -0.8868  0.5511
  330MOL   H12240260   2.359   1.695   4.569  1.4045  1.6072 -1.2987
  331MOL     C140261   2.470   4.225   6.413  0.3054 -0.1478  0.3897
  331MOL     C240262   2.453   4.341   6.312  0.4613  0.0738 -0.4588
  331MOL     F340263   2.527   4.319   6.196  0.0719 -0.0103 -0.3520
  331MOL     H440264   2.426   4.131   6.379 -0.4146  0.1052  0.6118
  331MOL     H540265   2.438   4.250   6.514  1.0055 -1.3399  0.9155
  331MOL     H640266   2.478   4.443   6.342  1.1225 -0.2302  0.0212
  331MOL     H740267   2.577   4.210   6.425  0.4280  0.8058  0.5590
  331MOL     C840268   2.305   4.358   6.288 -0.9073  0.4737  0.4148
  331MOL     C940269   2.231   4.485   6.333  0.7697 -0.5489 -0.8258
  331MOL    F1040270   2.301   4.596   6.316 -0.6343  0.6033 -0.0678
  331MOL    H1140271   2.295   4.362   6.179 -2.0862  0.5585  0.5191
  331MOL    H1240272   2.245   4.268   6.307 -2.8355  1.0607 -2.5470
  331MOL    H1340273   2.207   4.470   6.438  1.4824  0.2686 -0.5433
  331MOL    C1440274   2.100   4.498   6.257 -0.0830 -0.2122 -0.3046
  331MOL    C1540275   2.011   4.612   6.307 -0.7042  0.2578  0.2589
  331MOL    F1640276   2.073   4.721   6.268 -0.2096  0.1991 -0.0198
  331MOL    H1740277   2.135   4.509   6.155  0.2029 -0.6410 -0.2552
  331MOL    H1840278   2.042   4.406   6.261 -0.2051 -0.2014 -1.7317
  331MOL    H1940279   2.010   4.613   6.416 -2.2931 -1.2879  0.2968
  331MOL    C2040280   1.864   4.598   6.251  0.4714  0.7093  0.3242
  331MOL    C2140281   1.779   4.722   6.298 -0.2554  0.3133 -0.2602
  331MOL    F2240282   1.672   4.706   6.224 -0.3383 -0.1342  0.2953
  331MOL    H2340283   1.885   4.620   6.146  1.5937 -2.1892 -0.1117
  331MOL    H2440284   1.829   4.495   6.253  2.8697 -0.2183 -2.5640
  331MOL    H2540285   1.823   4.820   6.278  0.7321 -0.4368 -1.8390
  331MOL    C2640286   1.737   4.702   6.445  0.4696  0.7419  0.1083
  331MOL    C2740287   1.638   4.791   6.505 -0.3216 -0.1115 -0.0260
  331MOL    F2840288   1.521   4.764   6.449  0.0810 -0.4380  0.4564
  331MOL    H2940289   1.709   4.599   6.463  1.2947  0.1381 -1.9457
  331MOL    H3040290   1.825   4.720   6.506  1.2879  0.3735 -0.9496
  331MOL    H3140291   1.656   4.889   6.461 -0.2574 -0.7569 -1.4776
  331MOL    C3240292   1.641   4.800   6.660  0.1601  0.6062 -0.6636
  331MOL    C3340293   1.547   4.898   6.721  0.4704 -0.0042 -0.1823
  331MOL    F3440294   1.425   4.855   6.699 -0.1825 -0.1087 -0.3908
  331MOL    H3540295   1.605   4.704   6.696  0.1996  0.8451  0.0374
  331MOL    H3640296   1.740   4.823   6.700  1.5643 -2.3545 -2.2841
  331MOL    H3740297   1.546   4.996   6.673 -3.9659  0.4164  0.5166
  331MOL    C3840298   1.565   4.917   6.877 -0.5319  0.4891 -0.1425
  331MOL    C3940299   1.466   5.019   6.939 -0.8746  0.2662 -0.5052
  331MOL    F4040300   1.509   5.027   7.066  0.1900  0.0475  0.7409
  331MOL    H4140301   1.546   4.817   6.916  2.0741  0.6464  1.6808
  331MOL    H4240302   1.667   4.952   6.896 -0.4469  1.0598 -1.6082
  331MOL    H4340303   1.359   4.999   6.930 -1.2140  1.1541  1.2633
  331MOL    C4440304   1.484   5.156   6.868  0.2496 -0.7821  0.5411
  331MOL    C4540305   1.378   5.210   6.768  0.3149 -0.3625  0.3182
  331MOL    F4640306   1.263   5.179   6.825  0.0844  0.2311  0.6347
  331MOL    H4740307   1.476   5.222   6.954  0.0323 -1.0646  0.7339
  331MOL    H4840308   1.584   5.173   6.828 -0.1374  0.1058 -0.0867
  331MOL    H4940309   1.393   5.160   6.672  3.2594  0.4925  0.3062
  331MOL    C5040310   1.371   5.362   6.743 -0.4803 -0.4893 -0.0986
  331MOL    C5140311   1.342   5.446   6.863  0.2590  0.1922  0.0651
  331MOL    F5240312   1.448   5.443   6.943 -0.0888  0.0423  0.5151
  331MOL    H5340313   1.467   5.391   6.701 -0.7210  0.1131 -0.2441
  331MOL    H5440314   1.298   5.379   6.663 -1.9133  0.9159  1.4703
  331MOL    H5540315   1.260   5.411   6.926  0.8621  0.6364  1.1223
  331MOL    C5640316   1.310   5.592   6.826  0.0580 -0.0988 -0.2731
  331MOL    C5740317   1.279   5.686   6.943  0.3987  0.9750  0.1758
  331MOL    F5840318   1.304   5.809   6.898  0.0556  0.0298  0.2456
  331MOL    H5940319   1.382   5.626   6.752 -1.2391  2.9313 -0.2036
  331MOL    H6040320   1.220   5.592   6.765  1.6501 -0.7575 -2.6844
  331MOL    H6140321   1.330   5.664   7.037 -1.3194 -0.0427  0.9090
  331MOL    C6240322   1.122   5.694   6.967 -0.3963  1.0584  0.1189
  331MOL    C6340323   1.087   5.759   7.101  0.0824  0.1906  0.7267
  331MOL    F6440324   1.140   5.881   7.106  0.1043  0.2242 -0.2975
  331MOL    H6540325   1.068   5.735   6.882 -1.3165 -0.6069 -0.1178
  331MOL    H6640326   1.092   5.589   6.967  0.2840  0.8423  2.4221
  331MOL    H6740327   1.138   5.712   7.184  2.5276  0.5117 -0.5469
  331MOL    C6840328   0.936   5.756   7.125  0.2255  0.3791  0.0449
  331MOL    C6940329   0.888   5.609   7.159  0.3494 -0.8532 -0.1145
  331MOL    F7040330   0.955   5.563   7.270 -0.0347  0.2085  0.4179
  331MOL    H7140331   0.907   5.816   7.212  0.5853 -1.9167  1.8074
  331MOL    H7240332   0.890   5.790   7.032  0.9733  1.3146  0.0117
  331MOL    H7340333   0.901   5.534   7.081 -2.9291  0.4011 -1.9620
  331MOL    C7440334   0.742   5.590   7.196  0.3003  0.2544 -0.4128
  331MOL    C7540335   0.648   5.638   7.086  0.0007 -0.1764 -0.1113
  331MOL    F7640336   0.652   5.557   6.984  0.5110 -0.1555  0.2355
  331MOL    H7740337   0.727   5.484   7.215  0.4279  0.5558  1.4576
  331MOL    H7840338   0.724   5.646   7.288 -1.1045  0.9852 -1.1173
  331MOL    H7940339   0.663   5.733   7.035  0.9929 -1.3903 -2.1299
  331MOL    C8040340   0.505   5.645   7.132  0.2763 -0.0237 -0.0498
  331MOL    C8140341   0.400   5.651   7.020 -0.5080 -0.3258  0.0473
  331MOL    F8240342   0.383   5.529   6.969  0.0566  0.2405  0.0670
  331MOL    H8340343   0.487   5.557   7.193 -2.7268  1.2368  0.9889
  331MOL    H8440344   0.488   5.718   7.211 -1.0483  0.4440 -0.7387
  331MOL    H8540345   0.435   5.713   6.938  2.3550 -1.1069  0.6254
  331MOL    C8640346   0.266   5.702   7.062  0.0615  0.5203 -0.3025
  331MOL    C8740347   0.156   5.701   6.945  0.0683 -0.2900 -0.4718
  331MOL    F8840348   0.030   5.725   6.988 -1.0930 -0.0749  0.1288
  331MOL    H8940349   0.234   5.640   7.146  1.4661  2.1916  1.5236
  331MOL    H9040350   0.272   5.805   7.099  1.4366  0.1456  0.5590
  331MOL    H9140351   0.155   5.599   6.906 -3.3457 -0.3006 -0.5301
  331MOL    C9240352   0.179   5.798   6.824  0.2515 -0.3595 -0.3412
  331MOL    C9340353   0.058   5.802   6.723  0.2472 -0.3460  0.3031
  331MOL    F9440354   0.068   5.898   6.634  0.4671 -0.1344 -0.0140
  331MOL    H9540355   0.195   5.898   6.864 -0.7164 -0.9844  1.6514
  331MOL    H9640356   0.271   5.772   6.772 -0.5945 -0.6498 -1.7098
  331MOL    H9740357   7.978   5.828   6.789 -2.3344 -1.7424 -2.2518
  331MOL    C9840358   0.040   5.672   6.655 -0.2398  0.1886 -0.0642
  331MOL    C9940359   7.941   5.679   6.544  0.1545  0.3909  0.4649
  331MOL   F10040360   7.948   5.578   6.460 -0.4988 -0.8098  0.2179
  331MOL   H10140361   0.135   5.633   6.618 -0.7219 -2.1104  1.0085
  331MOL   H10240362   0.003   5.597   6.726  1.9300 -0.9842 -0.1434
  331MOL   H10340363   7.967   5.767   6.486  0.3066  1.6933  2.4620
  331MOL   C10440364   7.793   5.702   6.596 -0.8105  1.0509  0.6132
  331MOL   C10540365   7.723   5.583   6.657  0.2616  0.6412 -0.3236
  331MOL   F10640366   7.760   5.583   6.783  0.3204  0.2521  0.2444
  331MOL   H10740367   7.788   5.785   6.667 -0.8936  0.1529  1.6686
  331MOL   H10840368   7.728   5.739   6.517  2.3618  1.8863 -1.7185
  331MOL   H10940369   7.748   5.485   6.615 -0.8978  1.5801 -3.3274
  331MOL   C11040370   7.576   5.598   6.654  0.5128 -0.1356  0.5587
  331MOL   C11140371   7.499   5.574   6.519 -0.0406 -0.2549 -0.1147
  331MOL   F11240372   7.524   5.447   6.487  0.4407  0.1746 -0.0329
  331MOL   H11340373   7.532   5.547   6.740  1.3511  2.1745  2.4244
  331MOL   H11440374   7.565   5.703   6.682  1.7231  0.0134  0.4961
  331MOL   H11540375   7.550   5.635   6.445  0.4901  0.2940  0.6846
  331MOL   C11640376   7.350   5.602   6.519  0.6569  0.0917  0.1126
  331MOL   C11740377   7.302   5.590   6.371 -0.2331  0.6559 -0.6261
  331MOL   F11840378   7.176   5.587   6.367 -0.0611 -0.1414  0.3868
  331MOL   H11940379   7.295   5.531   6.581  1.0013  0.3823  0.7556
  331MOL   H12040380   7.338   5.705   6.554 -2.9362 -0.1192 -0.3526
  331MOL   H12140381   7.332   5.496   6.325 -1.2217  0.7236 -1.4376
  331MOL   H12240382   7.342   5.667   6.305 -0.1093 -0.1758 -1.5289
  332MOL     C140383   6.575   2.915   4.050 -0.4719 -0.0234  0.4030
  332MOL     C240384   6.517   3.040   4.135  0.1175 -0.0770 -0.3638
  332MOL     F340385   6.425   2.996   4.213 -0.0264 -0.0491  0.2477
  332MOL     H440386   6.667   2.944   4.000 -0.6230  1.7255  1.1216
  332MOL     H540387   6.509   2.878   3.971 -0.8167  1.7059 -0.1244
  332MOL     H640388   6.492   3.121   4.067  1.0880  0.3087 -0.2727
  332MOL     H740389   6.598   2.825   4.107 -0.3508  0.3910  1.0170
  332MOL     C840390   6.625   3.084   4.240 -0.1374  0.6745 -1.1896
  332MOL     C940391   6.743   3.153   4.180  0.5671 -0.6947  0.0968
  332MOL    F1040392   6.696   3.265   4.114 -0.0021  0.2119 -0.0480
  332MOL    H1140393   6.596   3.156   4.316  2.1649  0.1576  0.2441
  332MOL    H1240394   6.649   3.001   4.307 -1.9112  1.0748 -0.0315
  332MOL    H1340395   6.785   3.082   4.109  1.1391  0.2284 -0.5043
  332MOL    C1440396   6.843   3.199   4.287 -0.9270 -0.7877 -1.0754
  332MOL    C1540397   6.984   3.229   4.238  0.2206 -0.8622 -0.2491
  332MOL    F1640398   7.035   3.120   4.184 -0.2597 -0.0424 -0.0357
  332MOL    H1740399   6.811   3.277   4.356  0.2928 -1.2078 -0.0050
  332MOL    H1840400   6.855   3.116   4.356 -1.3632  1.0675  1.2804
  332MOL    H1940401   7.045   3.242   4.328  1.5770 -0.6619 -1.1884
  332MOL    C2040402   7.007   3.361   4.153 -0.2087  0.0158 -0.1967
  332MOL    C2140403   7.142   3.388   4.097 -0.7254 -0.2059 -0.4577
  332MOL    F2240404   7.145   3.494   4.012 -0.0970  0.0205  0.5663
  332MOL    H2340405   6.950   3.360   4.059 -3.2066 -0.1218  1.5657
  332MOL    H2440406   6.965   3.446   4.207  0.6688 -0.1711  0.7878
  332MOL    H2540407   7.170   3.299   4.041 -0.1044  1.1940 -2.4264
  332MOL    C2640408   7.233   3.427   4.214  0.2375  0.4291  0.0483
  332MOL    C2740409   7.377   3.371   4.202  0.4892  0.0962 -0.5529
  332MOL    F2840410   7.472   3.454   4.251 -0.2386  0.7149  0.0425
  332MOL    H2940411   7.239   3.536   4.211 -1.2386  0.4990 -0.4889
  332MOL    H3040412   7.187   3.407   4.310  1.1605 -0.3341  0.3417
  332MOL    H3140413   7.409   3.361   4.098 -1.8209  0.1525 -1.3029
  332MOL    C3240414   7.389   3.229   4.245  0.2637 -0.1292  0.0240
  332MOL    C3340415   7.521   3.158   4.217  0.2228 -0.5411  0.0033
  332MOL    F3440416   7.612   3.222   4.292 -0.7783 -0.3361 -0.2283
  332MOL    H3540417   7.348   3.206   4.344 -1.0488  0.0173 -0.4768
  332MOL    H3640418   7.317   3.177   4.182 -1.1260  1.0378  0.6224
  332MOL    H3740419   7.547   3.176   4.113  2.2004  1.9288  0.8672
  332MOL    C3840420   7.502   3.015   4.255 -0.1981 -0.5394 -0.0553
  332MOL    C3940421   7.613   2.920   4.200  0.3114 -0.2440 -0.9150
  332MOL    F4040422   7.618   2.824   4.294  0.4685  0.3123 -0.0831
  332MOL    H4140423   7.506   3.001   4.363  1.2738  2.4524  0.3229
  332MOL    H4240424   7.408   2.976   4.217 -0.2887  0.1065 -0.4980
  332MOL    H4340425   7.710   2.969   4.188  0.7043 -0.6851  0.2954
  332MOL    C4440426   7.587   2.859   4.061 -0.2639  0.5175  0.3922
  332MOL    C4540427   7.706   2.770   3.999 -0.3805 -0.3573  0.5552
  332MOL    F4640428   7.724   2.669   4.085  0.6308 -0.1603  0.4642
  332MOL    H4740429   7.495   2.801   4.060 -0.2683  0.5271 -0.0606
  332MOL    H4840430   7.570   2.937   3.987 -1.8447  0.9130  1.1657
  332MOL    H4940431   7.800   2.825   4.009 -1.2502  0.9392  1.9728
  332MOL    C5040432   7.678   2.699   3.865  0.2562 -0.3608  0.1715
  332MOL    C5140433   7.701   2.789   3.741  0.6339 -0.0287 -0.4905
  332MOL    F5240434   7.598   2.878   3.741 -0.4302  0.2412 -0.2946
  332MOL    H5340435   7.738   2.609   3.855 -0.2192 -0.6800  0.1969
  332MOL    H5440436   7.573   2.669   3.871 -0.6747  2.4257 -1.2971
  332MOL    H5540437   7.677   2.731   3.652 -1.8125  1.2272 -0.6996
  332MOL    C5640438   7.846   2.846   3.733  0.8697 -0.0510 -0.1556
  332MOL    C5740439   7.898   2.864   3.593 -0.4173  0.1659  0.7467
  332MOL    F5840440   7.810   2.952   3.536 -0.3365  0.5946  0.1021
  332MOL    H5940441   7.835   2.941   3.786 -2.1601 -0.2830 -0.2839
  332MOL    H6040442   7.914   2.777   3.784 -1.7283 -0.7779  2.4676
  332MOL    H6140443   7.901   2.771   3.537  1.8620  1.3661 -1.2153
  332MOL    C6240444   0.029   2.935   3.593 -0.5528 -0.1724 -0.0866
  332MOL    C6340445   0.088   2.969   3.454 -0.0815  0.3037  0.1922
  332MOL    F6440446   0.031   3.073   3.394 -0.5845  0.4776 -0.1495
  332MOL    H6540447   0.023   3.029   3.648 -0.2172  1.1216 -2.2122
  332MOL    H6640448   0.087   2.861   3.648 -0.4322 -0.4209 -0.5454
  332MOL    H6740449   0.062   2.892   3.382  0.0760 -0.5928  1.0757
  332MOL    C6840450   0.234   3.011   3.462  0.2425  0.7462 -0.5187
  332MOL    C6940451   0.323   2.887   3.491 -0.0986 -0.4775 -0.0110
  332MOL    F7040452   0.324   2.797   3.391 -0.2127  0.1862  0.3278
  332MOL    H7140453   0.264   3.065   3.372 -0.1459 -1.2698 -1.8807
  332MOL    H7240454   0.248   3.077   3.548  2.4490  0.2545 -0.4731
  332MOL    H7340455   0.292   2.834   3.581 -1.3685 -1.9979 -1.3073
  332MOL    C7440456   0.476   2.931   3.512 -0.2300 -0.4982 -0.3072
  332MOL    C7540457   0.558   2.834   3.596  0.3400 -0.4825  0.1056
  332MOL    F7640458   0.681   2.875   3.603 -0.4586  0.4910  0.4680
  332MOL    H7740459   0.528   2.942   3.416  0.7603  1.3263  0.4166
  332MOL    H7840460   0.478   3.032   3.553 -0.3470 -0.0557 -1.3504
  332MOL    H7940461   0.568   2.735   3.551  1.2553  0.0200 -0.8187
  332MOL    C8040462   0.515   2.818   3.744  0.4875  0.1801  0.4357
  332MOL    C8140463   0.483   2.949   3.822  0.7162  0.2122 -0.2868
  332MOL    F8240464   0.378   3.004   3.771  0.1499 -0.0394 -0.0548
  332MOL    H8340465   0.430   2.750   3.754  0.8745 -0.3362  0.2342
  332MOL    H8440466   0.598   2.770   3.795  0.6150 -1.7348 -1.4887
  332MOL    H8540467   0.575   3.004   3.800  0.2928  1.1775  0.3619
  332MOL    C8640468   0.481   2.940   3.977  0.1152 -0.3313  0.2354
  332MOL    C8740469   0.474   3.078   4.053 -0.7030 -0.6756  0.5537
  332MOL    F8840470   0.413   3.050   4.167  0.4838  0.0681 -0.1744
  332MOL    H8940471   0.394   2.880   4.002 -0.1591 -0.6604 -1.4659
  332MOL    H9040472   0.573   2.884   3.996  0.1301 -0.5326 -0.4359
  332MOL    H9140473   0.410   3.148   4.000  1.6156 -0.5341 -2.1786
  332MOL    C9240474   0.614   3.138   4.079 -0.4114  0.3769  0.9910
  332MOL    C9340475   0.621   3.267   4.159 -0.4350  0.1423 -0.7535
  332MOL    F9440476   0.578   3.236   4.280  0.0822  0.5328 -0.0391
  332MOL    H9540477   0.673   3.068   4.138 -0.6899 -1.7907 -1.2392
  332MOL    H9640478   0.671   3.151   3.987 -0.1132 -0.6621  1.0267
  332MOL    H9740479   0.553   3.340   4.115 -0.5959  1.6568  1.8977
  332MOL    C9840480   0.764   3.318   4.176 -0.2986 -0.2195  0.1995
  332MOL    C9940481   0.765   3.466   4.228 -0.0935 -0.3245 -0.0960
  332MOL   F10040482   0.694   3.467   4.340  0.1530  0.3885  0.6539
  332MOL   H10140483   0.825   3.255   4.240 -4.1684 -0.7521  3.5168
  332MOL   H10240484   0.813   3.326   4.078  0.4750  1.2106  0.6767
  332MOL   H10340485   0.714   3.527   4.153 -0.6176  0.8550  1.1874
  332MOL   C10440486   0.899   3.526   4.270  0.6580 -0.0757 -0.9639
  332MOL   C10540487   0.902   3.665   4.326 -0.3940  0.0137 -0.6837
  332MOL   F10640488   0.832   3.668   4.438 -0.5869 -0.1883  0.1378
  332MOL   H10740489   0.942   3.460   4.345 -0.7756 -0.7235 -0.7043
  332MOL   H10840490   0.957   3.531   4.177  0.4189 -1.5846 -1.2158
  332MOL   H10940491   0.846   3.734   4.262 -0.8657 -1.5345 -1.9670
  332MOL   C11040492   1.036   3.729   4.363  0.0688  0.2776 -0.0444
  332MOL   C11140493   1.136   3.747   4.244  0.0144  0.1628 -0.5614
  332MOL   F11240494   1.090   3.821   4.146 -0.2232 -0.0855 -0.0670
  332MOL   H11340495   1.026   3.826   4.412 -0.5347 -0.5323  1.5003
  332MOL   H11440496   1.076   3.657   4.436 -1.4168 -0.2142  0.3042
  332MOL   H11540497   1.145   3.641   4.220 -1.8195  0.0410 -0.7520
  332MOL   C11640498   1.259   3.815   4.294  0.7152  0.2080 -0.0260
  332MOL   C11740499   1.370   3.828   4.197  0.5980  0.0121  0.0050
  332MOL   F11840500   1.426   3.712   4.161  0.1882 -0.1716 -0.0283
  332MOL   H11940501   1.236   3.915   4.333  0.6016  0.1587  0.0341
  332MOL   H12040502   1.295   3.758   4.379 -0.3149  0.9746  0.9383
  332MOL   H12140503   1.452   3.880   4.248 -0.1151  0.5409  0.6210
  332MOL   H12240504   1.339   3.878   4.105  0.7654 -0.2206 -0.1781
  333MOL     C140505   2.857   1.809   2.087 -0.4503 -0.2337 -0.1056
  333MOL     C240506   2.998   1.756   2.036  0.2944 -0.2966  0.3357
  333MOL     F340507   2.975   1.679   1.928  0.0572 -0.5539 -0.0373
  333MOL     H440508   2.867   1.867   2.179 -1.1107 -0.2288 -0.0345
  333MOL     H540509   2.785   1.728   2.100  0.8021 -1.5517 -1.1723
  333MOL     H640510   3.032   1.694   2.119  0.7000  0.1270  0.4928
  333MOL     H740511   2.820   1.867   2.002 -1.9500  0.2006  0.8303
  333MOL     C840512   3.098   1.875   2.010  0.4107  0.3285 -0.3560
  333MOL     C940513   3.132   1.970   2.125 -0.2764  0.7105 -0.1704
  333MOL    F1040514   3.175   1.897   2.227 -0.0663 -0.2502 -0.3578
  333MOL    H1140515   3.198   1.840   1.984  0.9272  1.9522 -0.6182
  333MOL    H1240516   3.062   1.916   1.916 -0.4644  1.3976  0.4462
  333MOL    H1340517   3.042   2.027   2.146 -0.1925 -0.1768  2.8205
  333MOL    C1440518   3.230   2.085   2.099  0.9073  0.7954 -0.5794
  333MOL    C1540519   3.256   2.166   2.225 -0.2052 -0.6065  0.3026
  333MOL    F1640520   3.323   2.083   2.312  0.7172  0.3969  0.1695
  333MOL    H1740521   3.323   2.039   2.065  0.3822 -2.1453  1.7703
  333MOL    H1840522   3.202   2.147   2.014  0.5071  0.9462 -0.3424
  333MOL    H1940523   3.166   2.199   2.276 -0.8831 -0.5036 -0.9458
  333MOL    C2040524   3.353   2.285   2.184 -0.0200 -0.3838  0.2003
  333MOL    C2140525   3.431   2.347   2.298 -0.4377  0.8119  0.1247
  333MOL    F2240526   3.497   2.452   2.254  0.5542 -0.0349 -0.2899
  333MOL    H2340527   3.432   2.252   2.116 -0.5395 -0.1437 -0.5318
  333MOL    H2440528   3.294   2.361   2.133 -1.1250 -1.4054 -0.0590
  333MOL    H2540529   3.508   2.275   2.327  0.8801  1.8909 -0.6509
  333MOL    C2640530   3.357   2.392   2.427 -0.5657  0.5891  0.5264
  333MOL    C2740531   3.445   2.442   2.541 -0.0073 -0.0969  0.0270
  333MOL    F2840532   3.370   2.504   2.625  0.2534 -0.1778  0.0794
  333MOL    H2940533   3.286   2.473   2.409 -2.2294 -0.5948  1.7109
  333MOL    H3040534   3.311   2.297   2.455  0.2416 -0.0770 -0.3700
  333MOL    H3140535   3.511   2.525   2.516 -1.6156  1.4860  0.9012
  333MOL    C3240536   3.529   2.339   2.616  0.1227 -0.4749  0.0948
  333MOL    C3340537   3.479   2.198   2.647  0.2104 -0.0567 -0.4256
  333MOL    F3440538   3.570   2.136   2.712  0.4483 -0.3783 -0.6861
  333MOL    H3540539   3.626   2.339   2.565 -0.7023  1.7769 -1.5311
  333MOL    H3640540   3.556   2.380   2.714  0.2842 -3.2712  1.2756
  333MOL    H3740541   3.463   2.147   2.552  0.0593  0.0935 -0.4802
  333MOL    C3840542   3.341   2.181   2.722 -0.8976  0.5135  0.1771
  333MOL    C3940543   3.306   2.042   2.773 -0.0236 -0.2349 -0.4792
  333MOL    F4040544   3.196   2.061   2.839 -0.0740  0.7178 -0.1722
  333MOL    H4140545   3.342   2.241   2.813 -0.5611  1.3920 -0.3996
  333MOL    H4240546   3.259   2.214   2.658 -0.9002 -0.6510 -0.4418
  333MOL    H4340547   3.380   1.998   2.840  0.3820 -1.0777 -1.4582
  333MOL    C4440548   3.269   1.951   2.660 -0.0757  0.0937  0.4191
  333MOL    C4540549   3.237   1.801   2.694 -0.4556 -0.4489 -0.4034
  333MOL    F4640550   3.124   1.799   2.760  0.1222 -0.4280 -0.1693
  333MOL    H4740551   3.189   1.992   2.599  0.1088  1.8348  1.3233
  333MOL    H4840552   3.361   1.943   2.602  0.1234 -1.7234  0.9466
  333MOL    H4940553   3.313   1.760   2.760 -2.3288  0.0795  2.1485
  333MOL    C5040554   3.220   1.707   2.568  0.2621  0.3177 -0.2231
  333MOL    C5140555   3.349   1.706   2.474  0.1496  0.0409  0.2971
  333MOL    F5240556   3.452   1.685   2.555 -0.1034 -0.2856  0.6297
  333MOL    H5340557   3.204   1.606   2.606  1.1185 -0.6170 -2.2796
  333MOL    H5440558   3.130   1.740   2.515  0.0586  1.4436  0.8087
  333MOL    H5540559   3.364   1.810   2.443 -3.4609  1.1932  2.0025
  333MOL    C5640560   3.328   1.615   2.355 -0.3767  0.1031  0.8186
  333MOL    C5740561   3.436   1.641   2.248 -0.2106 -0.1989  0.5066
  333MOL    F5840562   3.549   1.582   2.285  0.0107 -0.0045 -0.7070
  333MOL    H5940563   3.313   1.511   2.384  2.6524 -0.1248  1.8057
  333MOL    H6040564   3.230   1.634   2.312  0.8224  0.1005 -2.0771
  333MOL    H6140565   3.473   1.743   2.238  0.4325 -0.1529  3.0364
  333MOL    C6240566   3.388   1.591   2.113  0.0672  0.1399 -0.3525
  333MOL    C6340567   3.450   1.659   1.990 -0.4806  0.5159  0.6039
  333MOL    F6440568   3.584   1.654   1.987 -0.0482 -0.4951 -0.0389
  333MOL    H6540569   3.408   1.484   2.115  3.0822  0.6599  1.9794
  333MOL    H6640570   3.280   1.599   2.106 -0.1290 -1.4923  0.4376
  333MOL    H6740571   3.429   1.766   1.986  1.5292  0.9120 -0.6723
  333MOL    C6840572   3.394   1.588   1.865  0.1225 -0.7292 -0.2696
  333MOL    C6940573   3.406   1.663   1.739 -0.6442  1.0699 -0.4134
  333MOL    F7040574   3.532   1.697   1.726 -0.2825  0.1160 -0.1985
  333MOL    H7140575   3.435   1.488   1.857  1.3793 -0.2693  0.1571
  333MOL    H7240576   3.287   1.570   1.872  0.1107 -0.9681 -1.0306
  333MOL    H7340577   3.345   1.753   1.754 -0.8007  0.9504 -0.3306
  333MOL    C7440578   3.360   1.585   1.613 -0.6392  0.8907  0.5420
  333MOL    C7540579   3.215   1.532   1.604 -0.0099 -0.0657 -0.2230
  333MOL    F7640580   3.125   1.630   1.626 -0.1858 -0.2465  0.1557
  333MOL    H7740581   3.381   1.651   1.529 -0.5693 -0.6006 -0.6362
  333MOL    H7840582   3.432   1.504   1.598  0.1730  0.8861  4.0585
  333MOL    H7940583   3.202   1.468   1.691 -1.1638  2.8004  1.7951
  333MOL    C8040584   3.182   1.476   1.467  0.6167  0.5989  0.6527
  333MOL    C8140585   3.050   1.401   1.454 -0.0613  0.0563  0.0602
  333MOL    F8240586   3.050   1.347   1.334  0.7200 -0.0833  0.0220
  333MOL    H8340587   3.193   1.551   1.390  2.4891 -0.4479 -0.1321
  333MOL    H8440588   3.262   1.407   1.439 -1.4232 -1.5448 -0.1014
  333MOL    H8540589   2.976   1.480   1.469 -0.5325 -0.1116 -1.3167
  333MOL    C8640590   3.025   1.285   1.554 -0.2629  0.9541 -0.2445
  333MOL    C8740591   2.897   1.208   1.517 -0.6837  0.6532  0.2798
  333MOL    F8840592   2.910   1.091   1.576  0.1184 -0.3511  0.1681
  333MOL    H8940593   3.111   1.219   1.542 -0.2139  1.3708 -2.2919
  333MOL    H9040594   3.024   1.314   1.659 -1.0711 -0.7826  0.2498
  333MOL    H9140595   2.890   1.195   1.409  0.2902 -1.0373  0.4034
  333MOL    C9240596   2.772   1.285   1.565 -0.1204  0.1304 -0.4077
  333MOL    C9340597   2.636   1.217   1.547  0.1141 -0.4283 -0.8412
  333MOL    F9440598   2.629   1.167   1.427  0.0021 -0.2662 -0.5205
  333MOL    H9540599   2.786   1.306   1.671 -0.5161  0.7058 -0.4647
  333MOL    H9640600   2.770   1.376   1.505 -1.2441 -0.4129 -1.2335
  333MOL    H9740601   2.559   1.295   1.547 -1.5074 -2.0018 -0.2335
  333MOL    C9840602   2.602   1.110   1.651  0.2612  0.3830  1.0260
  333MOL    C9940603   2.480   1.022   1.621  0.1791  0.2976  0.5375
  333MOL   F10040604   2.501   0.944   1.512 -0.2190  0.3258  0.6159
  333MOL   H10140605   2.688   1.048   1.674  0.6032 -0.0062 -1.1771
  333MOL   H10240606   2.579   1.152   1.749 -1.7716 -0.1458  0.8145
  333MOL   H10340607   2.397   1.092   1.605 -0.4659 -0.5963 -0.0348
  333MOL   C10440608   2.447   0.912   1.722 -1.1569 -0.3445 -0.7514
  333MOL   C10540609   2.333   0.822   1.692  0.1943  0.0258 -0.2757
  333MOL   F10640610   2.315   0.740   1.797 -0.0394  0.0497 -0.4361
  333MOL   H10740611   2.531   0.845   1.739 -0.9277 -0.0489 -0.7360
  333MOL   H10840612   2.411   0.953   1.816 -0.2460 -0.8789 -0.1617
  333MOL   H10940613   2.341   0.764   1.600 -2.0769 -1.4853  0.4083
  333MOL   C11040614   2.193   0.896   1.677 -0.3635  0.0540 -0.2861
  333MOL   C11140615   2.069   0.812   1.630  0.0995 -0.4455  0.0171
  333MOL   F11240616   1.957   0.874   1.677  0.0434 -0.4769 -0.7712
  333MOL   H11340617   2.158   0.926   1.776  0.6751  2.7182 -0.7020
  333MOL   H11440618   2.200   0.988   1.620  0.8028 -1.1946 -2.2164
  333MOL   H11540619   2.080   0.709   1.662 -0.8695  0.0293  1.9589
  333MOL   C11640620   2.054   0.808   1.480  0.1334  0.1905 -0.2576
  333MOL   C11740621   1.939   0.717   1.436  0.1165 -0.6278  0.2419
  333MOL   F11840622   1.973   0.591   1.448 -0.2089  0.2629 -0.3338
  333MOL   H11940623   2.037   0.911   1.450 -1.7703  0.1965  0.8175
  333MOL   H12040624   2.145   0.777   1.428  0.4898 -1.2906  1.2024
  333MOL   H12140625   1.896   0.736   1.337  1.0300  2.0603  0.3306
  333MOL   H12240626   1.860   0.729   1.510 -2.0755 -3.3693 -1.5321
  334MOL     C140627   5.555   5.149   0.451  0.2768 -0.0273 -0.2400
  334MOL     C240628   5.588   5.213   0.594 -0.4102 -0.0544  0.5111
  334MOL     F340629   5.605   5.115   0.683  0.8426 -0.4888 -0.3011
  334MOL     H440630   5.462   5.092   0.452  0.0197  0.3894  0.8437
  334MOL     H540631   5.633   5.078   0.423  0.9775  0.6074  0.0936
  334MOL     H640632   5.499   5.267   0.628 -1.8398 -1.5056 -0.8730
  334MOL     H740633   5.545   5.220   0.370  2.2004  0.4020 -0.1301
  334MOL     C840634   5.697   5.318   0.604  0.1356  0.4381  0.3662
  334MOL     C940635   5.695   5.413   0.727 -0.2291 -1.1292 -0.3521
  334MOL    F1040636   5.809   5.481   0.727 -0.2345 -0.7229 -0.1168
  334MOL    H1140637   5.790   5.261   0.602 -0.5917 -0.7651  0.2359
  334MOL    H1240638   5.702   5.375   0.511 -1.3345 -0.2783 -0.1632
  334MOL    H1340639   5.707   5.354   0.818 -1.5081  1.5590  1.6240
  334MOL    C1440640   5.582   5.518   0.744 -0.2075  0.3602 -0.3476
  334MOL    C1540641   5.573   5.628   0.631 -0.1701 -0.2689 -0.0755
  334MOL    F1640642   5.539   5.569   0.514  0.2573 -0.0227  0.0371
  334MOL    H1740643   5.488   5.463   0.741 -0.1112  0.0785  1.3435
  334MOL    H1840644   5.590   5.563   0.843 -0.0748  0.8007 -0.5539
  334MOL    H1940645   5.666   5.679   0.607 -1.7924  2.3902 -0.8947
  334MOL    C2040646   5.467   5.733   0.655  0.8880 -0.2770  0.0363
  334MOL    C2140647   5.492   5.831   0.777  0.1081 -0.3142 -0.0627
  334MOL    F2240648   5.607   5.897   0.746  0.0980  0.1477  0.2070
  334MOL    H2340649   5.456   5.788   0.561 -1.5866 -1.0317 -0.1537
  334MOL    H2440650   5.372   5.683   0.675  1.6308 -0.8617  2.2262
  334MOL    H2540651   5.506   5.773   0.868 -1.1687  0.8057  0.8626
  334MOL    C2640652   5.383   5.938   0.793 -0.3600  0.1609 -0.6313
  334MOL    C2740653   5.242   5.889   0.814 -0.6597 -0.1254 -0.1464
  334MOL    F2840654   5.243   5.795   0.911  0.2667 -0.3985 -0.1590
  334MOL    H2940655   5.421   5.987   0.883 -0.6259 -0.0307 -0.4133
  334MOL    H3040656   5.386   6.012   0.713  0.1924 -1.0699 -1.7618
  334MOL    H3140657   5.208   5.837   0.725  0.2301 -0.8727 -0.0536
  334MOL    C3240658   5.148   6.011   0.844  0.3667  0.2474  0.6672
  334MOL    C3340659   5.003   5.975   0.869 -0.0806 -0.1074  1.0151
  334MOL    F3440660   4.983   5.910   0.983  0.2039 -0.1983  0.0285
  334MOL    H3540661   5.184   6.057   0.936  1.8594  1.4546 -0.5158
  334MOL    H3640662   5.152   6.066   0.750 -1.5657 -0.4877  0.1149
  334MOL    H3740663   4.961   5.912   0.791 -0.2097  1.4455 -0.2005
  334MOL    C3840664   4.896   6.084   0.876 -0.1365 -0.5569 -0.6432
  334MOL    C3940665   4.921   6.196   0.980  0.2050  0.6322 -0.0641
  334MOL    F4040666   5.015   6.280   0.927  0.2874 -0.2004  0.3236
  334MOL    H4140667   4.894   6.125   0.775 -1.0046 -0.3852 -0.5633
  334MOL    H4240668   4.798   6.036   0.880  0.9032 -2.7970 -1.8336
  334MOL    H4340669   4.971   6.162   1.071 -0.3204  4.3702  1.7513
  334MOL    C4440670   4.798   6.266   1.026 -0.0078 -0.2307  0.2996
  334MOL    C4540671   4.705   6.192   1.125  0.1213 -0.1022  0.1908
  334MOL    F4640672   4.778   6.194   1.242 -0.2564  0.3083  0.5231
  334MOL    H4740673   4.820   6.362   1.073 -1.3669  0.3677 -0.2530
  334MOL    H4840674   4.740   6.297   0.940  1.7922 -0.6325 -1.0890
  334MOL    H4940675   4.694   6.088   1.096  0.5094 -0.0493 -0.1626
  334MOL    C5040676   4.562   6.250   1.133 -0.1833  0.0029  0.6058
  334MOL    C5140677   4.476   6.220   1.010  0.5666 -0.3131  0.8952
  334MOL    F5240678   4.455   6.087   1.018 -0.0208  0.0657  0.1889
  334MOL    H5340679   4.510   6.212   1.220  0.6733  0.3924  1.2985
  334MOL    H5440680   4.569   6.358   1.148 -0.6981  0.4314 -1.8575
  334MOL    H5540681   4.535   6.231   0.919  1.1365 -3.0103  0.8958
  334MOL    C5640682   4.338   6.290   0.992 -0.1952  0.2488  0.2129
  334MOL    C5740683   4.272   6.254   0.863  0.4717 -0.0115 -0.2098
  334MOL    F5840684   4.150   6.291   0.867  0.2001 -0.3115 -0.3137
  334MOL    H5940685   4.278   6.261   1.078  1.1147  0.3362  1.1701
  334MOL    H6040686   4.350   6.399   0.999  0.3975  0.1587  0.7261
  334MOL    H6140687   4.282   6.147   0.845 -1.0048  0.1126 -1.8641
  334MOL    C6240688   4.330   6.317   0.735  0.7837 -0.3451  0.1191
  334MOL    C6340689   4.272   6.256   0.607 -0.4339 -0.9648 -0.2755
  334MOL    F6440690   4.274   6.340   0.502 -0.0345  0.3266 -0.1530
  334MOL    H6540691   4.310   6.424   0.739 -0.1300 -0.3539 -3.1451
  334MOL    H6640692   4.438   6.316   0.742  0.8070 -1.9237 -0.1716
  334MOL    H6740693   4.165   6.238   0.622 -0.3944 -2.1598 -1.3862
  334MOL    C6840694   4.344   6.117   0.573  0.3809  0.2162 -0.6988
  334MOL    C6940695   4.494   6.128   0.534 -0.1502  1.0101  0.7956
  334MOL    F7040696   4.567   6.137   0.649  0.3772 -0.0645  0.4976
  334MOL    H7140697   4.337   6.041   0.651  1.3001 -0.2100 -1.0268
  334MOL    H7240698   4.295   6.082   0.482 -1.3483  1.8717 -0.4494
  334MOL    H7340699   4.511   6.211   0.465  0.7178 -0.3542 -0.6479
  334MOL    C7440700   4.537   5.993   0.473 -0.1023 -0.4167 -0.0586
  334MOL    C7540701   4.678   5.987   0.419  0.0129 -0.5551  0.1991
  334MOL    F7640702   4.703   5.876   0.351  0.1361 -0.2052  0.2931
  334MOL    H7740703   4.516   5.916   0.547 -1.4351  1.9967  2.1372
  334MOL    H7840704   4.468   5.960   0.395 -1.0453  1.8049 -0.2050
  334MOL    H7940705   4.747   5.999   0.503  1.6134 -0.4594 -1.1073
  334MOL    C8040706   4.704   6.107   0.324  0.4499 -0.1749  0.2338
  334MOL    C8140707   4.817   6.081   0.213  0.4973  0.4455 -0.9349
  334MOL    F8240708   4.818   6.194   0.143 -0.4124 -0.0340  0.3386
  334MOL    H8340709   4.618   6.117   0.259  0.4024 -1.1565  0.1381
  334MOL    H8440710   4.721   6.201   0.376 -0.7507 -0.1430  0.5664
  334MOL    H8540711   4.781   6.003   0.147 -2.1016  1.0152 -0.2605
  334MOL    C8640712   4.961   6.057   0.263 -0.3686  0.8222 -0.0902
  334MOL    C8740713   5.007   6.174   0.346  0.0339  0.1417 -0.0687
  334MOL    F8840714   4.958   6.174   0.475  0.4466  0.0644 -0.1631
  334MOL    H8940715   4.967   5.968   0.325  1.7134  0.3796 -0.8960
  334MOL    H9040716   5.015   6.042   0.170  1.9702  3.1853  0.8212
  334MOL    H9140717   4.961   6.259   0.296 -1.7567 -0.4368  0.5677
  334MOL    C9240718   5.155   6.190   0.333  0.0461 -0.3578  0.5590
  334MOL    C9340719   5.202   6.308   0.421 -0.0999 -0.1919  0.0964
  334MOL    F9440720   5.190   6.265   0.545  0.0613  0.1541  0.3762
  334MOL    H9540721   5.212   6.101   0.359 -0.9288 -1.1900 -0.1436
  334MOL    H9640722   5.180   6.213   0.229  0.7582  0.3240  0.8752
  334MOL    H9740723   5.142   6.399   0.416  1.1526  0.6238 -0.3632
  334MOL    C9840724   5.351   6.354   0.398 -0.1824 -0.3867  0.2293
  334MOL    C9940725   5.407   6.462   0.496 -0.0689  0.3520  0.2151
  334MOL   F10040726   5.436   6.408   0.613 -0.1830  0.2230 -0.7168
  334MOL   H10140727   5.423   6.273   0.414 -1.6711 -1.7950 -0.1535
  334MOL   H10240728   5.361   6.376   0.292 -0.9062 -2.0237 -0.1875
  334MOL   H10340729   5.329   6.536   0.516  2.0127  1.9257  2.9565
  334MOL   C10440730   5.533   6.525   0.433  0.0137  0.2484 -0.9697
  334MOL   C10540731   5.582   6.634   0.526  0.7448 -0.1190  0.3021
  334MOL   F10640732   5.622   6.584   0.645 -0.2760  0.2362 -0.0200
  334MOL   H10740733   5.610   6.450   0.413 -1.7921 -2.0694  0.5088
  334MOL   H10840734   5.489   6.567   0.343 -0.5318  1.2737 -0.2319
  334MOL   H10940735   5.509   6.708   0.559  1.5547  0.9102 -0.1832
  334MOL   C11040736   5.713   6.700   0.464  0.2135  0.7973 -0.7506
  334MOL   C11140737   5.724   6.851   0.486 -0.0429  0.5179  0.1672
  334MOL   F11240738   5.847   6.891   0.439 -0.6565  0.4393 -0.1302
  334MOL   H11340739   5.798   6.659   0.518 -0.5573 -2.2599 -1.7670
  334MOL   H11440740   5.719   6.677   0.358  0.0647 -0.1395 -0.5564
  334MOL   H11540741   5.719   6.860   0.595 -1.3658  1.3513  0.0509
  334MOL   C11640742   5.616   6.940   0.418 -0.3082  0.3145  0.2367
  334MOL   C11740743   5.602   6.925   0.272 -0.4196 -0.1169 -0.0212
  334MOL   F11840744   5.551   6.806   0.232  0.1483  0.0195 -0.1821
  334MOL   H11940745   5.520   6.919   0.467 -0.1303 -1.2658 -0.0424
  334MOL   H12040746   5.636   7.046   0.433 -0.6391  0.5036 -0.6631
  334MOL   H12140747   5.695   6.938   0.215 -0.0616  0.3035  0.6597
  334MOL   H12240748   5.534   7.004   0.240 -0.7986  0.2670  1.7198
  335MOL     C140749   6.025   0.712   1.062 -0.3469  0.1699  0.5950
  335MOL     C240750   6.026   0.616   0.947  0.6897  0.3798  0.4860
  335MOL     F340751   6.154   0.604   0.924 -0.2114  0.5950 -0.0899
  335MOL     H440752   5.923   0.732   1.094 -1.0989  0.5960 -1.9392
  335MOL     H540753   6.068   0.808   1.033  0.0482  0.5310  2.3367
  335MOL     H640754   5.977   0.651   0.856 -2.2019 -1.5019  1.2544
  335MOL     H740755   6.085   0.669   1.142  2.1062  2.8715  0.3192
  335MOL     C840756   5.985   0.477   0.993  0.8904  0.4262  0.1256
  335MOL     C940757   5.954   0.378   0.878 -0.8824 -0.8068 -0.6523
  335MOL    F1040758   5.949   0.254   0.925  0.1354 -0.0700 -0.8216
  335MOL    H1140759   6.063   0.434   1.055 -0.3055 -3.4055 -0.9136
  335MOL    H1240760   5.893   0.473   1.052  0.2015  1.6040 -0.8233
  335MOL    H1340761   6.035   0.371   0.805 -1.1779  2.3039 -1.3116
  335MOL    C1440762   5.821   0.394   0.800 -0.1666 -0.6769 -0.5961
  335MOL    C1540763   5.827   0.360   0.647 -0.4439  0.5838  0.2820
  335MOL    F1640764   5.920   0.442   0.595  0.0139 -0.3744  0.6721
  335MOL    H1740765   5.734   0.351   0.850 -2.8661  2.4981 -2.3917
  335MOL    H1840766   5.808   0.502   0.802  0.8512 -0.5619  2.2658
  335MOL    H1940767   5.734   0.386   0.597  0.5557  1.7266 -1.0576
  335MOL    C2040768   5.849   0.210   0.612  0.0679 -0.2161 -0.5642
  335MOL    C2140769   5.750   0.115   0.674  0.5511  0.2368  0.2573
  335MOL    F2240770   5.633   0.159   0.627  0.3185  0.3770 -0.0131
  335MOL    H2340771   5.849   0.183   0.506  0.5015  1.2093 -0.9365
  335MOL    H2440772   5.950   0.188   0.647  1.1248  0.8489 -2.8135
  335MOL    H2540773   5.754   0.123   0.782  1.8797  0.4153  0.1960
  335MOL    C2640774   5.769   7.975   0.641 -0.6111 -0.4593  0.1146
  335MOL    C2740775   5.661   7.873   0.676 -0.8313 -0.7243  0.4436
  335MOL    F2840776   5.694   7.762   0.604 -0.0504 -0.3636  0.2387
  335MOL    H2940777   5.775   7.978   0.532 -0.1138 -1.6279  0.0918
  335MOL    H3040778   5.873   7.953   0.669 -0.1133  0.8361 -0.6930
  335MOL    H3140779   5.572   7.906   0.622 -1.8715  0.1456  2.6213
  335MOL    C3240780   5.649   7.830   0.829  0.2625 -0.6711 -0.5884
  335MOL    C3340781   5.792   7.799   0.895  0.3158 -0.1041  0.0999
  335MOL    F3440782   5.869   7.912   0.894  0.1130  0.0424 -0.2898
  335MOL    H3540783   5.604   7.913   0.884 -0.0322  0.6569 -2.7826
  335MOL    H3640784   5.578   7.751   0.852  0.6003 -0.8606 -0.1749
  335MOL    H3740785   5.844   7.716   0.847 -1.6321 -1.0289 -0.4437
  335MOL    C3840786   5.780   7.741   1.039  0.3325  0.3291 -0.5539
  335MOL    C3940787   5.911   7.709   1.110  0.6409 -0.5637  0.1699
  335MOL    F4040788   5.978   7.816   1.128  0.5023 -0.7291  0.2121
  335MOL    H4140789   5.725   7.808   1.105  0.0794 -0.6762  0.2691
  335MOL    H4240790   5.720   7.650   1.035 -0.6967  0.9756 -0.1770
  335MOL    H4340791   5.973   7.643   1.049 -1.1190 -0.7344 -1.4818
  335MOL    C4440792   5.896   7.652   1.254  0.0391 -0.4000 -0.1376
  335MOL    C4540793   5.846   7.507   1.255 -0.2028  0.5685 -0.3868
  335MOL    F4640794   5.929   7.424   1.189 -0.6384 -0.5856 -0.3889
  335MOL    H4740795   5.984   7.672   1.315  0.2208 -2.4637  0.3081
  335MOL    H4840796   5.822   7.704   1.314 -0.5106 -0.7997 -0.4619
  335MOL    H4940797   5.751   7.503   1.201 -0.4604  2.5855 -0.1233
  335MOL    C5040798   5.846   7.450   1.400  0.4628  0.8319  0.2538
  335MOL    C5140799   5.733   7.500   1.490  0.1006  0.1422  0.7639
  335MOL    F5240800   5.604   7.483   1.446  0.5830  0.1964  0.4624
  335MOL    H5340801   5.850   7.341   1.391 -0.7245  0.7935  0.0675
  335MOL    H5440802   5.944   7.467   1.445  0.4425 -1.4121  1.2301
  335MOL    H5540803   5.743   7.608   1.488 -0.0620  0.1544  0.6060
  335MOL    C5640804   5.743   7.460   1.634  0.0103 -0.0571  0.3345
  335MOL    C5740805   5.673   7.548   1.735  0.4069 -0.2199  0.5005
  335MOL    F5840806   5.548   7.562   1.703  0.2679 -0.5623  0.0107
  335MOL    H5940807   5.712   7.356   1.642  0.2946 -0.2705 -1.3439
  335MOL    H6040808   5.848   7.442   1.658  0.9074  2.4545 -1.4796
  335MOL    H6140809   5.718   7.647   1.728  0.8640 -0.4074  0.7640
  335MOL    C6240810   5.691   7.483   1.877  0.7295 -0.8722  0.8794
  335MOL    C6340811   5.646   7.577   1.991 -0.3063  0.0000  0.0397
  335MOL    F6440812   5.514   7.587   2.000  0.1776 -0.1045 -0.0489
  335MOL    H6540813   5.653   7.380   1.875 -0.8471 -0.3127  1.3835
  335MOL    H6640814   5.799   7.481   1.888  0.7675  0.5808  0.7963
  335MOL    H6740815   5.678   7.681   1.979  1.3876 -0.5664 -0.3537
  335MOL    C6840816   5.696   7.527   2.121  0.2248 -0.4044  0.5658
  335MOL    C6940817   5.814   7.599   2.191  0.1917 -0.6109 -0.3961
  335MOL    F7040818   5.781   7.731   2.203 -0.1581  0.4922  0.5781
  335MOL    H7140819   5.610   7.539   2.187 -0.7407 -2.9807 -0.1561
  335MOL    H7240820   5.710   7.420   2.111 -2.1623 -0.8430  1.6778
  335MOL    H7340821   5.895   7.593   2.118  0.9381 -0.0785  0.3811
  335MOL    C7440822   5.863   7.533   2.321 -0.1775  0.2799 -0.7823
  335MOL    C7540823   5.948   7.401   2.303  0.3846  0.0414 -0.1555
  335MOL    F7640824   6.040   7.400   2.206 -0.1483 -0.1617 -0.5252
  335MOL    H7740825   5.931   7.597   2.376  0.8807  1.6773 -3.6163
  335MOL    H7840826   5.771   7.510   2.376 -0.4234 -0.3011 -1.4201
  335MOL    H7940827   5.881   7.322   2.268  2.3781 -0.8919 -1.9476
  335MOL    C8040828   6.010   7.351   2.435  0.2691  0.5467 -0.2974
  335MOL    C8140829   5.991   7.204   2.460 -0.2733 -0.3229  0.5570
  335MOL    F8240830   5.858   7.172   2.472 -0.1944  0.5199 -0.0924
  335MOL    H8340831   6.114   7.383   2.434 -0.5889  3.5976  0.1275
  335MOL    H8440832   5.964   7.389   2.526 -2.1146 -2.4440 -0.1841
  335MOL    H8540833   6.037   7.194   2.559  1.5815 -3.1051 -0.5050
  335MOL    C8640834   6.074   7.118   2.357  0.5264  0.6062  0.3850
  335MOL    C8740835   6.069   6.960   2.371 -0.0535  0.1429  0.1980
  335MOL    F8840836   6.143   6.929   2.482  0.7470  0.0420 -0.9240
  335MOL    H8940837   6.054   7.132   2.250  1.5569  1.9650  0.3604
  335MOL    H9040838   6.176   7.153   2.365  0.4553  0.7292  0.7457
  335MOL    H9140839   6.124   6.925   2.284  0.5930  2.0932 -0.1883
  335MOL    C9240840   5.928   6.907   2.381  0.2583 -0.5874  0.2039
  335MOL    C9340841   5.915   6.758   2.330  0.3428  0.9261  0.6892
  335MOL    F9440842   5.951   6.663   2.417 -0.2532  0.3801  0.1040
  335MOL    H9540843   5.894   6.929   2.482  1.6518 -1.9199  0.9936
  335MOL    H9640844   5.872   6.972   2.315 -2.1573 -1.9591  0.8208
  335MOL    H9740845   5.980   6.732   2.247 -0.9990 -0.9070  0.1711
  335MOL    C9840846   5.774   6.719   2.299  0.2147 -0.2431 -0.1471
  335MOL    C9940847   5.676   6.699   2.409  0.4883 -0.8181 -0.3469
  335MOL   F10040848   5.673   6.813   2.467  0.5198  0.1595  0.3470
  335MOL   H10140849   5.732   6.794   2.232  0.3909 -0.4075 -0.4433
  335MOL   H10240850   5.778   6.623   2.247  2.3536 -0.6738  0.7606
  335MOL   H10340851   5.713   6.619   2.473  1.5988  1.5141  2.0276
  335MOL   C10440852   5.533   6.651   2.363 -0.0086 -0.2972 -0.0534
  335MOL   C10540853   5.535   6.509   2.313  0.5836 -0.1560  0.4123
  335MOL   F10640854   5.581   6.442   2.418 -0.1950  0.2574 -0.0248
  335MOL   H10740855   5.461   6.663   2.444  0.3716 -0.4662  0.3098
  335MOL   H10840856   5.499   6.716   2.283  0.8177 -0.0527 -0.2064
  335MOL   H10940857   5.602   6.498   2.228  0.2544 -0.0841  0.1421
  335MOL   C11040858   5.397   6.466   2.275  0.4543  0.4564 -0.1636
  335MOL   C11140859   5.393   6.324   2.213  0.0620 -0.2637 -0.2921
  335MOL   F11240860   5.487   6.314   2.117 -0.3743 -0.2034  0.0922
  335MOL   H11340861   5.320   6.469   2.352  0.5573 -0.1329 -0.0308
  335MOL   H11440862   5.358   6.535   2.201 -0.6853  0.8934  0.8357
  335MOL   H11540863   5.294   6.303   2.172  0.0803  1.3279 -1.1818
  335MOL   C11640864   5.417   6.208   2.309  0.0510  0.4781  0.7114
  335MOL   C11740865   5.318   6.189   2.423 -0.0060 -0.0541 -0.5446
  335MOL   F11840866   5.348   6.090   2.502  0.2107  0.1124 -0.4826
  335MOL   H11940867   5.420   6.114   2.253  1.6728  1.5307 -1.0111
  335MOL   H12040868   5.512   6.220   2.362  0.7485 -0.5076 -0.2932
  335MOL   H12140869   5.215   6.174   2.391 -0.3658  1.7543 -0.3050
  335MOL   H12240870   5.304   6.278   2.484 -1.1020 -0.5921  0.0100
  336MOL     C140871   2.274   2.615   6.658  0.0439  0.7003  0.2042
  336MOL     C240872   2.365   2.615   6.776 -0.8763  0.0038  0.4849
  336MOL     F340873   2.292   2.621   6.889 -0.1623 -0.0234 -0.0795
  336MOL     H440874   2.210   2.527   6.667 -0.4686  0.9462 -1.0072
  336MOL     H540875   2.326   2.614   6.562 -1.2547 -0.9189 -0.5186
  336MOL     H640876   2.429   2.703   6.782  1.6955 -1.5972 -2.5426
  336MOL     H740877   2.202   2.695   6.642 -0.9518 -0.2421 -0.0590
  336MOL     C840878   2.455   2.493   6.773 -0.0913 -0.4056 -0.6357
  336MOL     C940879   2.573   2.505   6.671  0.0725  0.0471  0.1614
  336MOL    F1040880   2.633   2.620   6.700 -0.1818 -0.1178  0.2249
  336MOL    H1140881   2.493   2.490   6.876  1.6178 -0.3756 -1.2571
  336MOL    H1240882   2.395   2.403   6.771 -0.9664  0.1519 -0.0274
  336MOL    H1340883   2.540   2.510   6.567  0.3501  0.1396  0.0788
  336MOL    C1440884   2.677   2.387   6.694  0.3663 -0.0749  0.2753
  336MOL    C1540885   2.796   2.371   6.599  0.0263  0.2666 -0.2151
  336MOL    F1640886   2.842   2.494   6.568  0.3607 -0.1145 -0.3023
  336MOL    H1740887   2.734   2.403   6.786  0.9007  0.5991 -0.1712
  336MOL    H1840888   2.624   2.292   6.703 -1.3267  0.7123 -1.0275
  336MOL    H1940889   2.753   2.334   6.506 -2.3889  0.6692  0.7013
  336MOL    C2040890   2.909   2.284   6.661  0.2506  0.2891  0.3432
  336MOL    C2140891   3.029   2.253   6.567 -0.0936 -0.6095 -0.2793
  336MOL    F2240892   3.114   2.172   6.626  0.0825  0.2117  0.0623
  336MOL    H2340893   2.953   2.341   6.744 -0.4049 -1.2840  1.7920
  336MOL    H2440894   2.877   2.194   6.713  0.8169  0.3110  0.7421
  336MOL    H2540895   3.096   2.334   6.540  0.5335 -1.2985 -0.8015
  336MOL    C2640896   3.002   2.188   6.432 -0.3638  0.1653  0.1291
  336MOL    C2740897   2.915   2.059   6.457 -0.3793  0.0307  1.1618
  336MOL    F2840898   2.783   2.091   6.460 -0.2690  0.1452  0.1068
  336MOL    H2940899   2.953   2.263   6.371 -1.1723  1.0638  1.8705
  336MOL    H3040900   3.099   2.166   6.386 -0.0762  0.5836  0.5372
  336MOL    H3140901   2.927   2.013   6.555 -3.3349 -4.6798 -0.4927
  336MOL    C3240902   2.936   1.956   6.338  0.0205 -0.6516  0.3137
  336MOL    C3340903   2.843   1.838   6.326  0.6829  0.3140  0.7196
  336MOL    F3440904   2.885   1.777   6.218  0.1981 -0.5916 -0.3699
  336MOL    H3540905   2.946   2.011   6.244 -1.7086 -0.0321  0.4745
  336MOL    H3640906   3.035   1.912   6.353 -0.2224 -1.8693 -1.5268
  336MOL    H3740907   2.740   1.863   6.302  0.0845 -2.3243  0.3723
  336MOL    C3840908   2.856   1.739   6.448 -0.1104 -0.4579  1.0435
  336MOL    C3940909   2.817   1.589   6.429  0.4613  0.0254 -0.5982
  336MOL    F4040910   2.875   1.508   6.523  0.5528 -0.1413 -0.1173
  336MOL    H4140911   2.964   1.745   6.459  0.0497  2.8678 -1.7017
  336MOL    H4240912   2.803   1.779   6.535  0.2462  2.5283 -0.0638
  336MOL    H4340913   2.848   1.550   6.332  0.7071  1.3816 -1.0730
  336MOL    C4440914   2.670   1.550   6.427  0.3970 -0.0789  0.0803
  336MOL    C4540915   2.591   1.577   6.554 -0.3168 -0.0254  0.4424
  336MOL    F4640916   2.534   1.698   6.545 -0.3027 -0.4281  0.1595
  336MOL    H4740917   2.629   1.598   6.337  0.3819  1.1510  0.7299
  336MOL    H4840918   2.657   1.445   6.399  1.1154 -0.6261  1.7480
  336MOL    H4940919   2.649   1.574   6.646  0.2968  1.2724  0.1099
  336MOL    C5040920   2.462   1.492   6.573 -0.2398  0.7406  0.0020
  336MOL    C5140921   2.494   1.343   6.609  0.6551 -0.1496  0.0087
  336MOL    F5240922   2.531   1.335   6.739  0.4382  0.3552 -0.4614
  336MOL    H5340923   2.403   1.539   6.651  2.0351  0.3163  2.0341
  336MOL    H5440924   2.406   1.500   6.479  0.6956  0.6719 -0.5729
  336MOL    H5540925   2.581   1.312   6.551  1.3507  0.0766  0.9217
  336MOL    C5640926   2.374   1.240   6.592  0.0549  0.3096  0.1676
  336MOL    C5740927   2.333   1.227   6.449 -0.0370  0.1412  0.2376
  336MOL    F5840928   2.444   1.198   6.384 -0.1005  0.4191  0.0407
  336MOL    H5940929   2.400   1.144   6.635 -1.1097  0.0406  0.2944
  336MOL    H6040930   2.284   1.276   6.641 -0.5457 -0.9489 -0.0034
  336MOL    H6140931   2.295   1.319   6.404  0.1697  0.1605  0.0976
  336MOL    C6240932   2.225   1.125   6.423  0.4033  0.1989 -0.8516
  336MOL    C6340933   2.192   1.107   6.270 -0.1862 -0.5168 -0.1233
  336MOL    F6440934   2.091   1.022   6.266 -0.5100  0.1609 -0.2426
  336MOL    H6540935   2.266   1.029   6.455 -0.0069 -0.0937 -1.1910
  336MOL    H6640936   2.134   1.159   6.473  0.0410  0.7571 -1.8815
  336MOL    H6740937   2.269   1.059   6.210 -1.0843  0.4656 -2.0992
  336MOL    C6840938   2.149   1.234   6.190 -0.6866  0.1313  0.2204
  336MOL    C6940939   2.091   1.204   6.048  0.1424 -0.0184  0.0592
  336MOL    F7040940   2.050   1.313   5.987  0.0814  0.4702  0.1515
  336MOL    H7140941   2.074   1.286   6.250  0.1917  1.4828  0.1812
  336MOL    H7240942   2.224   1.312   6.172 -2.2306  0.9667 -2.9073
  336MOL    H7340943   2.005   1.141   6.071 -0.7386  1.0546 -0.2693
  336MOL    C7440944   2.180   1.128   5.945 -0.5224  0.1498 -0.2758
  336MOL    C7540945   2.299   1.217   5.905  0.0048 -0.9377 -0.7861
  336MOL    F7640946   2.382   1.227   6.005 -0.4024 -0.5958  0.3844
  336MOL    H7740947   2.221   1.036   5.987  0.3317 -0.1166 -1.6720
  336MOL    H7840948   2.117   1.091   5.865  0.9182 -0.1829 -1.2748
  336MOL    H7940949   2.268   1.320   5.894  0.2552 -0.6399  1.0758
  336MOL    C8040950   2.386   1.165   5.789 -0.6534 -0.4796  0.0998
  336MOL    C8140951   2.332   1.166   5.637  0.9698  0.0060  0.6287
  336MOL    F8240952   2.285   1.292   5.606  0.0022  0.7872 -0.3365
  336MOL    H8340953   2.481   1.220   5.794 -2.2802  2.3893  0.6888
  336MOL    H8440954   2.425   1.066   5.813 -1.7412 -0.9987 -0.2818
  336MOL    H8540955   2.242   1.105   5.645 -0.3549  1.8291  0.0243
  336MOL    C8640956   2.439   1.136   5.537 -0.6963  0.6117  0.1501
  336MOL    C8740957   2.480   0.994   5.526 -0.1878 -0.1911  0.3931
  336MOL    F8840958   2.513   0.945   5.645  0.4265  0.8814  0.0569
  336MOL    H8940959   2.414   1.170   5.437 -0.4985  1.8078  0.4956
  336MOL    H9040960   2.532   1.188   5.561 -0.4122 -0.0213  0.4311
  336MOL    H9140961   2.573   0.990   5.468 -0.6616 -0.0631 -0.3897
  336MOL    C9240962   2.376   0.883   5.466  0.1730 -0.3638  0.1669
  336MOL    C9340963   2.392   0.879   5.312  0.0091 -0.4214  0.0356
  336MOL    F9440964   2.522   0.857   5.282  0.0234 -0.5055  0.2147
  336MOL    H9540965   2.408   0.780   5.478 -3.5957 -1.6896 -0.4123
  336MOL    H9640966   2.275   0.889   5.507  0.0124  0.2769 -0.3066
  336MOL    H9740967   2.368   0.979   5.276  1.0624 -0.0977  0.2082
  336MOL    C9840968   2.316   0.775   5.230 -0.8753  0.7734  0.3006
  336MOL    C9940969   2.166   0.800   5.217  0.4530  0.3168  0.4479
  336MOL   F10040970   2.153   0.909   5.148  0.2487  0.0035  0.2844
  336MOL   H10140971   2.342   0.774   5.124 -4.2801  4.2776 -0.6837
  336MOL   H10240972   2.355   0.678   5.262  3.4187  1.6103 -2.0969
  336MOL   H10340973   2.120   0.817   5.315  1.6730  1.5047  0.8171
  336MOL   C10440974   2.096   0.683   5.144  0.4685 -0.2332 -0.2306
  336MOL   C10540975   1.936   0.698   5.138 -0.6630 -0.1062  0.2320
  336MOL   F10640976   1.903   0.621   5.034 -0.3134 -0.1735 -0.4735
  336MOL   H10740977   2.126   0.692   5.039 -2.0720  1.6100 -0.8459
  336MOL   H10840978   2.126   0.588   5.189  3.1840  1.6149  2.0060
  336MOL   H10940979   1.919   0.799   5.101  0.3065 -0.1103 -0.2304
  336MOL   C11040980   1.847   0.649   5.256 -0.8687  0.3300 -0.5152
  336MOL   C11140981   1.862   0.506   5.305  0.3140 -0.3192  0.1206
  336MOL   F11240982   1.984   0.496   5.360  0.5602  0.0341  0.6952
  336MOL   H11340983   1.863   0.720   5.337  2.1812 -1.5962  0.6382
  336MOL   H11440984   1.741   0.665   5.232 -1.0943  1.0230  0.8787
  336MOL   H11540985   1.864   0.441   5.218  4.7792  1.0228 -0.9009
  336MOL   C11640986   1.762   0.462   5.414  0.0108  0.0854 -1.1448
  336MOL   C11740987   1.816   0.345   5.493  0.0526 -0.2755  0.6507
  336MOL   F11840988   1.755   0.310   5.607  0.2695 -0.2764 -0.0777
  336MOL   H11940989   1.756   0.542   5.488  0.1096 -1.1209  0.1882
  336MOL   H12040990   1.660   0.458   5.378 -0.6144  2.4954  0.2663
  336MOL   H12140991   1.922   0.355   5.517  0.3509 -0.8735 -0.3987
  336MOL   H12240992   1.809   0.254   5.433  0.0320 -1.2476  2.0844
  337MOL     C140993   0.127   6.663   0.042 -0.8142  0.4118  0.4817
  337MOL     C240994   0.210   6.691   7.920  0.6261  0.0124 -0.5048
  337MOL     F340995   0.224   6.581   7.846  0.7331  0.5696 -0.4381
  337MOL     H440996   0.039   6.605   0.016  0.7633 -1.7739 -0.1752
  337MOL     H540997   0.101   6.759   0.085  0.1340  1.7589 -1.8946
  337MOL     H640998   0.308   6.713   7.962  0.8147 -0.1874 -0.8390
  337MOL     H740999   0.199   6.618   0.111  0.5442  2.6647  0.5854
  337MOL     C841000   0.161   6.803   7.834  0.1290 -0.1824 -0.4639
  337MOL     C941001   0.070   6.767   7.721  0.2569 -0.7784  0.5295
  337MOL    F1041002   7.952   6.766   7.774  0.2232  0.5255  0.4050
  337MOL    H1141003   0.126   6.884   7.899  1.0262  0.0979 -0.3124
  337MOL    H1241004   0.254   6.833   7.785 -1.3331  0.5907 -2.8209
  337MOL    H1341005   0.088   6.667   7.681  1.5373 -0.2315 -0.2931
  337MOL    C1441006   0.062   6.867   7.606 -0.1943 -0.5826  0.6863
  337MOL    C1541007   0.026   7.011   7.650  0.2951 -0.0265  0.1742
  337MOL    F1641008   0.122   7.062   7.728 -0.3157 -0.0888 -0.0958
  337MOL    H1741009   0.156   6.860   7.552 -1.3111  0.7425 -1.5209
  337MOL    H1841010   7.987   6.831   7.539  2.1372 -0.4691 -2.1578
  337MOL    H1941011   7.937   7.015   7.708  0.2025  0.4453 -0.0047
  337MOL    C2041012   0.003   7.106   7.535 -0.4448 -0.0514  0.4931
  337MOL    C2141013   7.862   7.110   7.468  0.5179 -0.3829  0.9480
  337MOL    F2241014   7.777   7.111   7.574  0.4884 -0.1821 -0.3029
  337MOL    H2341015   0.030   7.207   7.565 -0.7850  0.3706 -0.5692
  337MOL    H2441016   0.076   7.097   7.455 -0.1221 -1.6550  0.9570
  337MOL    H2541017   7.842   7.026   7.403  0.8923 -0.0093  0.3454
  337MOL    C2641018   7.838   7.238   7.387 -1.0784 -0.1661 -0.0873
  337MOL    C2741019   7.913   7.252   7.254  0.2265 -0.3113 -0.6652
  337MOL    F2841020   7.899   7.144   7.184 -0.5527 -0.5595  0.1242
  337MOL    H2941021   7.730   7.246   7.380 -1.1339 -0.0497  0.7652
  337MOL    H3041022   7.867   7.320   7.453 -0.8284  0.1589 -0.5994
  337MOL    H3141023   0.016   7.260   7.277  0.4946 -2.2040 -1.1742
  337MOL    C3241024   7.871   7.359   7.160 -0.6092  0.3312  0.5904
  337MOL    C3341025   7.938   7.353   7.022  0.3039  0.1587 -0.2669
  337MOL    F3441026   7.888   7.251   6.943 -0.5985 -0.4728  0.0184
  337MOL    H3541027   7.763   7.353   7.151 -0.4484  1.4820 -2.8243
  337MOL    H3641028   7.901   7.449   7.213 -0.4859 -0.0509  1.1837
  337MOL    H3741029   0.040   7.332   7.044  0.2254 -0.8595 -0.8124
  337MOL    C3841030   7.924   7.481   6.946  0.0988  0.0579  0.1729
  337MOL    C3941031   7.779   7.501   6.883  0.2211 -0.1858  0.6302
  337MOL    F4041032   7.694   7.517   6.984  0.0117  0.5382 -0.2267
  337MOL    H4141033   7.947   7.572   7.001 -1.8656  1.4754 -1.2528
  337MOL    H4241034   7.993   7.485   6.861  0.3701 -0.6645  0.3566
  337MOL    H4341035   7.756   7.408   6.831  0.1936  0.6485 -0.8696
  337MOL    C4441036   7.765   7.626   6.792  0.2942  0.2042 -1.0062
  337MOL    C4541037   7.843   7.634   6.663  0.2225  0.3637 -0.4365
  337MOL    F4641038   7.805   7.530   6.578  0.2794 -0.3493 -0.4172
  337MOL    H4741039   7.664   7.630   6.751  0.6236  1.5880 -1.6937
  337MOL    H4841040   7.765   7.720   6.848 -2.0437 -1.0509  1.2200
  337MOL    H4941041   7.947   7.607   6.678  0.2635  0.9868  0.4385
  337MOL    C5041042   7.831   7.761   6.569  0.0908  0.4766  0.4054
  337MOL    C5141043   7.923   7.755   6.435  0.1643 -0.0296  0.5989
  337MOL    F5241044   7.879   7.655   6.358  0.0464  0.1100  0.4219
  337MOL    H5341045   7.724   7.763   6.549  0.0007  0.6351  0.9016
  337MOL    H5441046   7.846   7.849   6.631 -2.2644 -1.0282  3.1926
  337MOL    H5541047   0.021   7.732   6.467  0.2040  0.7301  1.0212
  337MOL    C5641048   7.931   7.888   6.352  0.4838  0.8219 -0.5871
  337MOL    C5741049   0.033   7.893   6.248  0.2120  0.4849  0.1732
  337MOL    F5841050   7.996   7.806   6.154 -0.8978  0.0478  0.2019
  337MOL    H5941051   7.830   7.912   6.320  0.1572  1.7968  1.1054
  337MOL    H6041052   7.949   7.973   6.418 -0.1772  0.3535  0.2032
  337MOL    H6141053   0.129   7.860   6.286  0.6887  0.6645 -0.8566
  337MOL    C6241054   0.043   0.027   6.172  0.7374  0.0274  1.0037
  337MOL    C6341055   0.104   0.142   6.252 -0.3913  0.2497  0.1270
  337MOL    F6441056   0.206   0.083   6.305 -0.3257 -0.2785 -0.4511
  337MOL    H6541057   0.113   8.001   6.093 -0.0802 -0.8432  0.5877
  337MOL    H6641058   7.953   0.058   6.125  0.5548 -0.5532  0.9789
  337MOL    H6741059   0.036   0.174   6.331 -0.1826  0.1761  0.3366
  337MOL    C6841060   0.145   0.253   6.159  0.2545 -1.4217 -0.0429
  337MOL    C6941061   0.208   0.376   6.223  0.3730  0.3134 -0.3460
  337MOL    F7041062   0.120   0.452   6.295  0.1967 -0.2155 -0.0672
  337MOL    H7141063   0.223   0.226   6.089  0.1516 -1.7310 -0.0397
  337MOL    H7241064   0.056   0.290   6.108 -0.1699 -0.3109  1.4737
  337MOL    H7341065   0.228   0.442   6.139 -1.4346 -1.4721 -2.2411
  337MOL    C7441066   0.335   0.345   6.306  0.7509  0.0921  0.2266
  337MOL    C7541067   0.406   0.465   6.346 -0.4058  0.2611 -0.4484
  337MOL    F7641068   0.332   0.540   6.428  0.5318  0.2538  0.0554
  337MOL    H7741069   0.306   0.298   6.399  0.9767  1.2794  0.8988
  337MOL    H7841070   0.396   0.279   6.243 -0.4728 -1.0371  0.2164
  337MOL    H7941071   0.432   0.530   6.263 -0.2620  0.6209 -0.1271
  337MOL    C8041072   0.540   0.436   6.430  1.1734  0.9867 -0.4569
  337MOL    C8141073   0.647   0.349   6.359  0.4559 -0.0453 -0.6390
  337MOL    F8241074   0.661   0.407   6.242  0.6214 -0.2567  0.1408
  337MOL    H8341075   0.593   0.530   6.448  1.1500  0.9086  0.0393
  337MOL    H8441076   0.524   0.401   6.532 -1.7359  3.4593  0.0263
  337MOL    H8541077   0.608   0.248   6.348  0.7573 -0.2738  0.3045
  337MOL    C8641078   0.786   0.363   6.433  0.6272  0.4364  0.0995
  337MOL    C8741079   0.895   0.285   6.370 -0.0916  0.1695 -0.1290
  337MOL    F8841080   0.919   0.327   6.246 -0.1993 -0.0914  0.3094
  337MOL    H8941081   0.820   0.464   6.412  1.1115  0.2257 -0.1370
  337MOL    H9041082   0.787   0.353   6.542 -0.9545  1.8319  0.2736
  337MOL    H9141083   0.868   0.180   6.363 -0.9229  0.4676 -1.6558
  337MOL    C9241084   1.026   0.304   6.439 -0.2113  0.1507 -0.4205
  337MOL    C9341085   1.117   0.183   6.405  0.4237 -0.0490  0.2762
  337MOL    F9441086   1.124   0.160   6.275  0.1178 -0.2647  0.1711
  337MOL    H9541087   1.072   0.403   6.431  0.8304 -0.0265  2.6417
  337MOL    H9641088   0.995   0.295   6.543  0.0731  0.0363 -0.3448
  337MOL    H9741089   1.060   0.106   6.457  1.0425 -0.3695  0.4710
  337MOL    C9841090   1.261   0.192   6.463 -0.8820 -0.0352 -0.5453
  337MOL    C9941091   1.330   0.056   6.471  0.2863  0.1410 -0.4869
  337MOL   F10041092   1.238   7.978   6.522 -0.7641 -0.0305 -0.0962
  337MOL   H10141093   1.320   0.259   6.400  0.0297 -0.5820 -0.2729
  337MOL   H10241094   1.234   0.227   6.563 -0.2108  0.0185 -0.3824
  337MOL   H10341095   1.418   0.054   6.535 -0.0592 -0.5501 -0.0361
  337MOL   C10441096   1.374   0.008   6.336 -0.3663 -0.1409  0.6411
  337MOL   C10541097   1.440   7.872   6.321  0.2206 -0.6161 -0.2565
  337MOL   F10641098   1.366   7.778   6.379  0.0561 -0.2761  0.1825
  337MOL   H10741099   1.280   0.002   6.282 -0.1099  1.2149  0.0222
  337MOL   H10841100   1.436   0.081   6.283  2.7991 -2.0665  1.5175
  337MOL   H10941101   1.520   7.866   6.395  0.0212 -0.3219 -0.0190
  337MOL   C11041102   1.490   7.829   6.185 -0.1140  0.0454  0.4700
  337MOL   C11141103   1.602   7.717   6.186 -0.3116  0.8574 -0.3687
  337MOL   F11241104   1.569   7.605   6.245 -0.2977 -0.1069  0.1091
  337MOL   H11341105   1.410   7.795   6.120 -0.2680 -1.2841  1.3436
  337MOL   H11441106   1.532   7.917   6.136 -0.2985  0.1539  0.5047
  337MOL   H11541107   1.695   7.743   6.238 -0.9232  0.6560  0.8474
  337MOL   C11641108   1.646   7.677   6.042 -0.7854 -0.2221 -0.2654
  337MOL   C11741109   1.723   7.787   5.966 -0.0120 -0.4593  0.1666
  337MOL   F11841110   1.814   7.857   6.032  0.3781 -0.4692 -0.4384
  337MOL   H11941111   1.718   7.595   6.038 -1.3543 -0.7518  0.2282
  337MOL   H12041112   1.563   7.630   5.990 -0.0157 -0.8891 -0.9210
  337MOL   H12141113   1.656   7.858   5.917  1.3198  0.8255  0.1601
  337MOL   H12241114   1.779   7.745   5.882  1.5599 -0.4172  1.1762
  338MOL     C141115   5.539   2.453   7.702 -0.6508  1.1162  0.2467
  338MOL     C241116   5.650   2.353   7.689  0.0360 -0.3750 -0.2907
  338MOL     F341117   5.748   2.353   7.783  0.0942 -0.8127  0.0050
  338MOL     H441118   5.480   2.450   7.794 -0.8913  2.1237  0.1309
  338MOL     H541119   5.465   2.428   7.625  0.2235 -1.2160  0.1262
  338MOL     H641120   5.695   2.364   7.590  1.8917 -0.1804  0.5582
  338MOL     H741121   5.582   2.552   7.690 -0.9005  1.0716 -1.0919
  338MOL     C841122   5.589   2.208   7.693  0.3614 -0.1055  0.3752
  338MOL     C941123   5.701   2.114   7.641 -0.4325  0.5354  0.1327
  338MOL    F1041124   5.779   2.082   7.745  0.3542  0.2255  0.1795
  338MOL    H1141125   5.558   2.191   7.797  1.1455  2.1411  1.0020
  338MOL    H1241126   5.509   2.195   7.620  1.0706  1.1674 -0.6526
  338MOL    H1341127   5.756   2.162   7.560 -1.6320  3.9912  1.2732
  338MOL    C1441128   5.652   1.984   7.565 -0.1137  0.2559 -0.3020
  338MOL    C1541129   5.758   1.921   7.477  0.5608 -0.2135  1.1568
  338MOL    F1641130   5.858   1.871   7.544  0.1208  0.1676 -0.3508
  338MOL    H1741131   5.610   1.913   7.636 -0.8566  1.4414  0.4609
  338MOL    H1841132   5.565   2.011   7.505  0.6124  0.4262 -1.2880
  338MOL    H1941133   5.807   1.992   7.411 -0.3662 -0.4220  0.2339
  338MOL    C2041134   5.700   1.807   7.385  0.1107 -0.7895  0.5721
  338MOL    C2141135   5.801   1.748   7.292 -0.2206 -0.2611  0.5234
  338MOL    F2241136   5.841   1.841   7.207  0.5181 -0.5900 -0.4517
  338MOL    H2341137   5.655   1.737   7.455 -3.6262  0.6241 -0.2543
  338MOL    H2441138   5.617   1.841   7.322  1.2047  1.6660  0.3964
  338MOL    H2541139   5.749   1.684   7.221  1.4718 -2.7247  1.4633
  338MOL    C2641140   5.919   1.670   7.355 -0.0506  0.6129  0.5382
  338MOL    C2741141   6.014   1.592   7.257 -0.7402  0.4374 -0.2488
  338MOL    F2841142   6.126   1.560   7.322  0.2815 -0.2028 -1.2571
  338MOL    H2941143   5.985   1.738   7.408 -0.9844  1.1011  1.0852
  338MOL    H3041144   5.883   1.602   7.432 -0.1957  1.6259  1.3805
  338MOL    H3141145   6.065   1.657   7.186  0.2766  0.6687  0.6828
  338MOL    C3241146   5.957   1.458   7.195 -0.2533 -0.0258  0.6170
  338MOL    C3341147   6.040   1.398   7.080 -0.1231 -0.4516  0.2442
  338MOL    F3441148   6.051   1.494   6.983 -0.0123  0.0964  0.2559
  338MOL    H3541149   5.948   1.395   7.283  1.5821 -0.1109  0.7550
  338MOL    H3641150   5.856   1.480   7.160 -0.0072  0.6199  0.3024
  338MOL    H3741151   5.976   1.328   7.026 -0.3719  0.7954 -1.1153
  338MOL    C3841152   6.175   1.338   7.118  0.3112 -0.1739 -0.2068
  338MOL    C3941153   6.169   1.215   7.215 -0.2786  0.8466 -0.4485
  338MOL    F4041154   6.073   1.131   7.186  0.2315  0.2549  0.2334
  338MOL    H4141155   6.222   1.311   7.024  0.3178 -3.3820  0.6631
  338MOL    H4241156   6.245   1.412   7.156  1.3328 -0.8125 -0.8235
  338MOL    H4341157   6.142   1.257   7.312 -0.6020  0.5134 -0.3937
  338MOL    C4441158   6.303   1.139   7.230  0.4460  0.2554 -0.0410
  338MOL    C4541159   6.403   1.224   7.312 -0.5039 -1.1757 -0.1684
  338MOL    F4641160   6.368   1.220   7.442 -0.1791 -0.9256  0.5559
  338MOL    H4741161   6.274   1.050   7.285 -0.7417  0.2930 -0.5804
  338MOL    H4841162   6.350   1.117   7.134  1.6573 -2.1695  1.0579
  338MOL    H4941163   6.388   1.328   7.283  1.1134 -0.7091  0.6057
  338MOL    C5041164   6.556   1.188   7.290  0.8512 -0.1127 -0.0227
  338MOL    C5141165   6.651   1.256   7.391  0.0384  0.3806 -0.1218
  338MOL    F5241166   6.758   1.184   7.385  0.4424  0.5633 -0.6103
  338MOL    H5341167   6.573   1.082   7.309 -1.7090 -0.2381  1.9028
  338MOL    H5441168   6.582   1.214   7.187 -2.6189 -1.7628 -1.3947
  338MOL    H5541169   6.613   1.225   7.488  0.2187 -2.8580 -1.0278
  338MOL    C5641170   6.667   1.409   7.360 -0.0193 -0.0904 -0.4255
  338MOL    C5741171   6.744   1.506   7.453 -0.1704  0.4720 -0.6458
  338MOL    F5841172   6.873   1.473   7.449 -0.0265  0.0521 -0.2555
  338MOL    H5941173   6.707   1.408   7.259 -2.4039  1.3414 -1.4192
  338MOL    H6041174   6.568   1.454   7.352  0.6537  1.6918  0.8519
  338MOL    H6141175   6.711   1.491   7.556  1.0072 -0.0145 -0.3265
  338MOL    C6241176   6.729   1.656   7.421  1.0858 -0.2784  0.0197
  338MOL    C6341177   6.583   1.705   7.453 -0.2701  0.0296  0.2880
  338MOL    F6441178   6.561   1.680   7.582  0.3416 -0.4856  0.4025
  338MOL    H6541179   6.797   1.715   7.482 -1.7305 -0.0359  3.0552
  338MOL    H6641180   6.763   1.665   7.318  0.9224  2.2477  0.1545
  338MOL    H6741181   6.509   1.646   7.399  1.8269 -1.2991 -1.2121
  338MOL    C6841182   6.568   1.858   7.447 -0.2809  0.2184 -0.4321
  338MOL    C6941183   6.448   1.918   7.519  1.0683  0.2074  0.2022
  338MOL    F7041184   6.477   2.044   7.532  0.2802  0.5969 -0.0229
  338MOL    H7141185   6.659   1.897   7.491 -0.3874 -0.4387  0.3770
  338MOL    H7241186   6.564   1.897   7.345  0.7181 -0.5864 -0.7960
  338MOL    H7341187   6.432   1.865   7.613  2.1899 -2.7177 -1.1895
  338MOL    C7441188   6.319   1.893   7.433  0.1163  0.1982 -0.3988
  338MOL    C7541189   6.190   1.930   7.510  0.2863  0.0050 -0.2814
  338MOL    F7641190   6.189   1.830   7.604  0.2591 -0.3499  0.3225
  338MOL    H7741191   6.319   1.934   7.333 -0.1609  0.0899 -0.4446
  338MOL    H7841192   6.317   1.786   7.411 -1.2645  0.4056 -1.3351
  338MOL    H7941193   6.103   1.909   7.448 -2.3783  2.1171  2.6208
  338MOL    C8041194   6.165   2.072   7.563 -0.6631  0.5526 -0.3131
  338MOL    C8141195   6.143   2.180   7.459 -0.5634 -0.0393  0.6223
  338MOL    F8241196   6.058   2.131   7.370  0.2831 -0.0625 -0.4872
  338MOL    H8341197   6.069   2.067   7.614  0.6759 -1.0100  2.1842
  338MOL    H8441198   6.246   2.098   7.631 -0.1779 -2.0945  0.2036
  338MOL    H8541199   6.231   2.201   7.397  0.8931  1.0023  2.9318
  338MOL    C8641200   6.099   2.315   7.510  0.1578  0.4650  0.3248
  338MOL    C8741201   6.205   2.381   7.601  0.0049 -0.0606  0.1120
  338MOL    F8841202   6.307   2.439   7.543  0.1729  0.0524 -0.2826
  338MOL    H8941203   6.079   2.381   7.426  0.2296  0.3209  0.1935
  338MOL    H9041204   6.006   2.301   7.565  0.3022 -1.6121  0.0829
  338MOL    H9141205   6.258   2.310   7.664  0.0624  0.4876  0.6893
  338MOL    C9241206   6.159   2.503   7.685 -0.0057  0.2982 -0.3009
  338MOL    C9341207   6.090   2.459   7.814  0.2889 -0.3536 -0.6259
  338MOL    F9441208   6.174   2.390   7.891  0.1160  0.1437  0.0897
  338MOL    H9541209   6.244   2.570   7.695  0.4539  0.0401 -2.1307
  338MOL    H9641210   6.084   2.553   7.624 -0.6642 -1.5926 -1.0761
  338MOL    H9741211   6.014   2.386   7.784  0.5601 -0.2887 -1.5063
  338MOL    C9841212   6.028   2.575   7.895  0.0775  0.3469  0.2574
  338MOL    C9941213   5.900   2.529   7.968  0.5143 -0.4605 -0.2847
  338MOL   F10041214   5.901   2.399   8.003  0.1852 -0.3028  0.0310
  338MOL   H10141215   6.106   2.594   7.969 -0.3491  0.8445  0.5827
  338MOL   H10241216   6.012   2.661   7.830 -0.4254  0.7258  0.8789
  338MOL   H10341217   5.818   2.540   7.898  0.1080 -1.8460 -0.0560
  338MOL   C10441218   5.853   2.620   0.088  0.3179 -0.4539 -0.1623
  338MOL   C10541219   5.944   2.613   0.212 -0.2757 -0.4397 -0.3916
  338MOL   F10641220   6.066   2.648   0.180  0.3628 -0.5273  0.4735
  338MOL   H10741221   5.853   2.725   0.056  0.5334 -0.0504  1.1326
  338MOL   H10841222   5.750   2.589   0.108  0.1112  0.9138  0.9435
  338MOL   H10941223   5.953   2.507   0.234 -2.2949 -0.4914  0.2758
  338MOL   C11041224   5.899   2.702   0.329 -0.5067 -0.4268 -0.0927
  338MOL   C11141225   5.969   2.683   0.467 -0.8079 -1.0469  0.0661
  338MOL   F11241226   6.075   2.759   0.474  0.5930  0.2170  0.1799
  338MOL   H11341227   5.908   2.808   0.302  0.7301 -0.8473 -1.3670
  338MOL   H11441228   5.792   2.694   0.348 -1.1606  1.0832 -2.8504
  338MOL   H11541229   6.007   2.581   0.479  2.1349 -0.0930 -0.8624
  338MOL   C11641230   5.863   2.721   0.573 -0.8119  0.8089 -0.7482
  338MOL   C11741231   5.922   2.702   0.709  0.1474 -0.7779  0.1492
  338MOL   F11841232   5.855   2.760   0.807 -0.3848  0.1417 -0.3946
  338MOL   H11941233   5.867   2.827   0.549  0.9709  0.6446 -1.2967
  338MOL   H12041234   5.768   2.675   0.545 -1.8800  1.9628  0.9498
  338MOL   H12141235   6.029   2.722   0.718  0.0963 -1.2736  2.0817
  338MOL   H12241236   5.929   2.598   0.739 -1.1034 -0.6800  0.8347
  339MOL     C141237   5.405   3.295   7.721  0.1807  0.8012 -0.3782
  339MOL     C241238   5.447   3.314   7.866  0.0651 -0.5022  0.0118
  339MOL     F341239   5.552   3.394   7.859 -0.1312  0.0831 -0.5720
  339MOL     H441240   5.332   3.216   7.704 -0.3449  1.0318  0.7857
  339MOL     H541241   5.485   3.284   7.648 -0.7189  0.1959 -1.2865
  339MOL     H641242   5.481   3.229   7.923  0.4288 -1.4346 -1.5653
  339MOL     H741243   5.362   3.394   7.705  0.5435  1.7172  3.7611
  339MOL     C841244   5.341   3.383   7.951  0.6032 -0.4689  1.3293
  339MOL     C941245   5.224   3.292   7.984 -0.0321 -0.4380 -0.5506
  339MOL    F1041246   5.274   3.185   0.047 -0.2127 -0.0256  0.5843
  339MOL    H1141247   5.388   3.414   0.041  2.4082  0.2436  0.2194
  339MOL    H1241248   5.306   3.477   7.907 -0.4399 -2.8150 -3.1706
  339MOL    H1341249   5.194   3.251   7.888 -0.1711  0.0452 -0.7139
  339MOL    C1441250   5.107   3.344   0.062 -0.3396  0.1240  0.9255
  339MOL    C1541251   5.135   3.399   0.198  0.2127 -0.4672  0.2862
  339MOL    F1641252   5.182   3.520   0.168 -0.1105 -0.1273  0.0479
  339MOL    H1741253   5.048   3.406   7.997 -3.5942  0.1256  3.5946
  339MOL    H1841254   5.034   3.263   0.071  0.2300 -0.6547 -1.2323
  339MOL    H1941255   5.211   3.346   0.256  2.0301  2.4365  0.6338
  339MOL    C2041256   5.014   3.410   0.293 -0.0164  0.0968 -0.3225
  339MOL    C2141257   4.896   3.496   0.238  0.7981  0.2177 -0.6033
  339MOL    F2241258   4.791   3.460   0.317 -0.3395 -0.0580 -0.3483
  339MOL    H2341259   4.990   3.307   0.322 -1.1122  0.8914  1.7432
  339MOL    H2441260   5.047   3.460   0.384  0.6357 -0.9722  0.0407
  339MOL    H2541261   4.886   3.470   0.133  0.4652  0.4850 -0.6399
  339MOL    C2641262   4.903   3.649   0.263 -0.0130 -0.1567 -0.3220
  339MOL    C2741263   4.779   3.730   0.223  0.7731 -0.5369 -0.0413
  339MOL    F2841264   4.780   3.855   0.268  0.2157 -0.0967  0.1855
  339MOL    H2941265   4.913   3.667   0.370  1.2032 -1.3318 -0.2284
  339MOL    H3041266   4.992   3.684   0.213 -1.8226  1.9748 -2.0992
  339MOL    H3141267   4.702   3.677   0.278  1.8661 -1.3928  0.7029
  339MOL    C3241268   4.749   3.733   0.076  0.1022 -0.4309 -0.0401
  339MOL    C3341269   4.847   3.821   7.992 -0.3347  0.4276 -0.0539
  339MOL    F3441270   4.959   3.751   7.981 -0.0443  0.0341 -0.4317
  339MOL    H3541271   4.747   3.630   0.043 -0.1706 -0.8139  1.1378
  339MOL    H3641272   4.645   3.756   0.052 -0.4325 -1.9633  0.7823
  339MOL    H3741273   4.875   3.917   0.032  0.7901  0.1735 -0.1956
  339MOL    C3841274   4.793   3.845   7.847 -0.4000 -0.2597  0.0818
  339MOL    C3941275   4.878   3.950   7.771 -0.3135  0.7321 -0.0960
  339MOL    F4041276   4.844   3.944   7.642 -0.2125 -0.4371 -0.2644
  339MOL    H4141277   4.798   3.744   7.806 -5.9008  0.0839 -1.7256
  339MOL    H4241278   4.695   3.892   7.851 -0.5846 -0.6445  0.0737
  339MOL    H4341279   4.981   3.918   7.785 -0.9893 -0.5508  2.0384
  339MOL    C4441280   4.854   4.098   7.813 -0.4202  0.3216 -0.2023
  339MOL    C4541281   4.944   4.191   7.736  0.5789 -0.6708  0.8577
  339MOL    F4641282   4.880   4.307   7.708  0.2120 -0.5436  0.0041
  339MOL    H4741283   4.748   4.119   7.795 -0.7226 -2.1095 -1.4402
  339MOL    H4841284   4.870   4.115   7.919 -2.2492  0.3934  0.0810
  339MOL    H4941285   4.954   4.148   7.636 -0.1365 -1.3765  1.0789
  339MOL    C5041286   5.080   4.210   7.802 -0.5644  0.2962  0.2012
  339MOL    C5141287   5.185   4.307   7.735  0.3451 -0.2085  0.0930
  339MOL    F5241288   5.202   4.258   7.615 -0.0021  0.4997  0.2140
  339MOL    H5341289   5.078   4.243   7.905 -0.2266  0.8097  0.0458
  339MOL    H5441290   5.132   4.115   7.809  1.9296  1.7400  1.7317
  339MOL    H5541291   5.281   4.307   7.787 -0.4733  2.0199  1.6813
  339MOL    C5641292   5.149   4.454   7.722 -0.9013 -0.2475 -0.3220
  339MOL    C5741293   5.262   4.550   7.704 -0.2628 -0.1223 -0.3650
  339MOL    F5841294   5.349   4.549   7.807 -0.2346  0.2090 -0.2706
  339MOL    H5941295   5.096   4.475   7.629  0.3759 -3.9167 -2.0278
  339MOL    H6041296   5.090   4.492   7.805 -1.8736 -0.6735 -0.8144
  339MOL    H6141297   5.231   4.654   7.693  1.4803  0.2624 -2.0760
  339MOL    C6241298   5.347   4.526   7.575  0.1934 -0.1699 -0.2643
  339MOL    C6341299   5.277   4.562   7.445  0.3987  0.2530 -0.6978
  339MOL    F6441300   5.234   4.690   7.448 -0.1987 -0.1962  0.0498
  339MOL    H6541301   5.450   4.561   7.573  1.3601 -3.4346 -2.0580
  339MOL    H6641302   5.379   4.422   7.571  1.1096  0.1137 -0.3038
  339MOL    H6741303   5.188   4.500   7.440 -0.2943  1.2359 -0.7575
  339MOL    C6841304   5.361   4.535   7.319 -0.3041 -0.3137 -0.0381
  339MOL    C6941305   5.297   4.555   7.183 -0.4199 -0.0497 -0.6231
  339MOL    F7041306   5.260   4.686   7.187 -0.5105  0.0615 -0.0168
  339MOL    H7141307   5.442   4.609   7.319 -0.2390 -0.3831  0.3627
  339MOL    H7241308   5.404   4.435   7.330 -0.1197 -0.2887 -0.5043
  339MOL    H7341309   5.204   4.500   7.189 -0.5100  0.2495  1.2278
  339MOL    C7441310   5.381   4.511   7.058 -0.3189  0.2966  0.0210
  339MOL    C7541311   5.304   4.508   6.925 -0.9064  0.1104  0.1257
  339MOL    F7641312   5.274   4.632   6.878  0.5731 -0.4774  0.0486
  339MOL    H7741313   5.474   4.565   7.041  0.1581 -0.0029  1.5697
  339MOL    H7841314   5.414   4.410   7.080 -1.4408 -0.5517 -2.0866
  339MOL    H7941315   5.206   4.469   6.951 -0.3016 -0.9784  0.8108
  339MOL    C8041316   5.362   4.433   6.807 -0.7561 -0.7505  0.3811
  339MOL    C8141317   5.282   4.431   6.673  0.2712  0.2248 -0.4502
  339MOL    F8241318   5.343   4.363   6.575 -0.1669  0.1974 -0.6719
  339MOL    H8341319   5.463   4.469   6.790 -0.6981  0.0121  2.2183
  339MOL    H8441320   5.373   4.329   6.838  0.9086 -0.5846  0.4286
  339MOL    H8541321   5.274   4.532   6.633  0.7399  0.4598  0.0497
  339MOL    C8641322   5.145   4.365   6.692 -0.1581  1.0405  0.7864
  339MOL    C8741323   5.133   4.227   6.757 -0.5219 -0.1767  0.3745
  339MOL    F8841324   5.166   4.243   6.886 -0.8596  0.2671  0.3148
  339MOL    H8941325   5.076   4.431   6.744 -0.0529 -0.2022  2.5635
  339MOL    H9041326   5.098   4.358   6.594  0.0845  2.2425  0.5794
  339MOL    H9141327   5.217   4.173   6.715 -0.6917 -0.9164  0.9814
  339MOL    C9241328   4.989   4.171   6.734  0.4612  0.4327 -0.2110
  339MOL    C9341329   4.965   4.042   6.803  0.3078 -0.1416  0.2047
  339MOL    F9441330   4.950   4.062   6.937  0.3049  0.1704 -0.0188
  339MOL    H9541331   4.914   4.246   6.758  2.0596  3.1152 -3.0975
  339MOL    H9641332   4.974   4.151   6.628  0.7190 -1.2534  0.0498
  339MOL    H9741333   5.047   3.971   6.804  0.3634 -0.0771  1.9366
  339MOL    C9841334   4.829   3.975   6.762 -0.4978 -0.1666  0.4410
  339MOL    C9941335   4.815   3.824   6.796 -0.0607  0.7787 -0.1055
  339MOL   F10041336   4.919   3.759   6.743 -0.4384  0.0775 -0.1149
  339MOL   H10141337   4.749   4.036   6.805 -1.8491 -1.1587 -0.6046
  339MOL   H10241338   4.813   3.971   6.654 -0.2202  0.8623  0.3509
  339MOL   H10341339   4.726   3.775   6.756  0.2179 -0.8408  1.1870
  339MOL   C10441340   4.819   3.786   6.943  0.0887 -0.2011  0.3520
  339MOL   C10541341   4.702   3.836   7.036  0.2226  0.1400 -0.3435
  339MOL   F10641342   4.596   3.776   6.979  0.5552  0.9617  0.2822
  339MOL   H10741343   4.829   3.678   6.951 -0.4732 -0.2201  0.8374
  339MOL   H10841344   4.910   3.823   6.989 -0.8047  2.6415 -0.0612
  339MOL   H10941345   4.696   3.945   7.042 -3.2068 -0.0072  0.0367
  339MOL   C11041346   4.713   3.783   7.175 -1.3515  0.2975 -0.2340
  339MOL   C11141347   4.613   3.831   7.278 -0.5836  0.3889  0.1686
  339MOL   F11241348   4.490   3.811   7.225  0.1080  0.0677  0.3188
  339MOL   H11341349   4.720   3.674   7.177  0.2236  0.3978  0.3076
  339MOL   H11441350   4.808   3.822   7.210 -0.9120 -1.3012  0.3766
  339MOL   H11541351   4.631   3.936   7.303  3.9919 -0.5355  1.1972
  339MOL   C11641352   4.619   3.759   7.416 -0.3145 -1.0489  0.1806
  339MOL   C11741353   4.535   3.821   7.527  0.1695 -0.3893 -0.2180
  339MOL   F11841354   4.537   3.733   7.632 -0.0684  0.0293 -0.3539
  339MOL   H11941355   4.589   3.656   7.402 -1.9384 -0.6865  0.8893
  339MOL   H12041356   4.720   3.743   7.453 -0.7791  0.0373  2.0063
  339MOL   H12141357   4.432   3.828   7.490  0.4381 -0.8734 -1.0795
  339MOL   H12241358   4.576   3.917   7.558  0.3740 -0.6404  0.2913
  340MOL     C141359   3.518   1.560   7.842 -0.5753  0.3842  0.0799
  340MOL     C241360   3.441   1.435   7.787  0.2220  0.5461 -0.7836
  340MOL     F341361   3.448   1.342   7.880  0.1866  0.1148  1.1665
  340MOL     H441362   3.616   1.531   7.880  0.2620  0.4947 -1.9342
  340MOL     H541363   3.468   1.605   7.927 -1.1796 -0.8166  0.3650
  340MOL     H641364   3.491   1.396   7.698  0.8457 -0.4396 -0.0204
  340MOL     H741365   3.519   1.636   7.763 -0.4089 -0.9828 -1.2608
  340MOL     C841366   3.292   1.459   7.751 -0.1004 -0.5453  0.2029
  340MOL     C941367   3.272   1.543   7.628 -1.0059  0.0883 -0.1071
  340MOL    F1041368   3.315   1.468   7.530 -0.1333 -0.0948 -0.1526
  340MOL    H1141369   3.233   1.367   7.756 -0.4121 -0.3874 -0.5313
  340MOL    H1241370   3.249   1.520   7.829 -2.1387 -1.9552  0.2208
  340MOL    H1341371   3.326   1.638   7.629  0.8720 -0.9552  0.0418
  340MOL    C1441372   3.129   1.571   7.609 -0.4755  0.3611 -0.0330
  340MOL    C1541373   3.109   1.664   7.486 -0.2050  0.3832  0.1159
  340MOL    F1641374   3.161   1.597   7.382  0.2094 -0.1173 -0.1379
  340MOL    H1741375   3.071   1.480   7.596 -1.6178  0.7977  1.8111
  340MOL    H1841376   3.091   1.624   7.697 -1.6020 -1.3184  0.5078
  340MOL    H1941377   3.168   1.755   7.495  0.1164  0.4036 -1.8063
  340MOL    C2041378   2.961   1.700   7.455  0.0093  0.1559  0.3033
  340MOL    C2141379   2.908   1.804   7.555  0.5421 -0.5800  0.0070
  340MOL    F2241380   2.986   1.914   7.552 -0.1305 -0.0227 -0.1205
  340MOL    H2341381   2.949   1.734   7.352  0.8114 -1.8273 -0.4625
  340MOL    H2441382   2.897   1.613   7.461  0.5499 -0.1883  1.1949
  340MOL    H2541383   2.916   1.765   7.656 -0.8211 -1.2017 -0.1103
  340MOL    C2641384   2.755   1.838   7.522 -0.5135 -0.4815 -0.1480
  340MOL    C2741385   2.679   1.912   7.633 -0.5195  0.5694 -0.0230
  340MOL    F2841386   2.638   1.822   7.729 -0.8543  0.1461  0.1145
  340MOL    H2941387   2.769   1.910   7.441 -1.1897 -0.3187 -0.1261
  340MOL    H3041388   2.698   1.753   7.486 -0.1156 -0.8869  0.1765
  340MOL    H3141389   2.588   1.940   7.581 -1.8226 -2.3858  0.5733
  340MOL    C3241390   2.753   2.041   7.693 -0.1494  0.6374 -0.3504
  340MOL    C3341391   2.660   2.124   7.774 -0.3849  0.1841 -0.6181
  340MOL    F3441392   2.612   2.048   7.871 -0.3000 -0.1822  0.0686
  340MOL    H3541393   2.829   2.011   7.765 -0.5669  0.3286 -0.0298
  340MOL    H3641394   2.788   2.108   7.615 -0.5347  0.7358 -0.4404
  340MOL    H3741395   2.576   2.141   7.708 -0.0710 -0.2456 -1.1343
  340MOL    C3841396   2.718   2.258   7.821 -0.5742 -0.0938 -0.1574
  340MOL    C3941397   2.617   2.352   7.885 -0.6104  0.3244 -0.5753
  340MOL    F4041398   2.677   2.466   7.885 -0.0636 -0.6197 -0.3660
  340MOL    H4141399   2.802   2.231   7.885 -1.0802 -2.5404 -0.4632
  340MOL    H4241400   2.767   2.308   7.738 -0.1890  1.3004  0.8980
  340MOL    H4341401   2.608   2.346   7.994  1.7905 -0.5729 -0.3934
  340MOL    C4441402   2.474   2.372   7.810  0.0329  0.0824 -0.1406
  340MOL    C4541403   2.363   2.291   7.865 -0.3813  0.4240 -0.0557
  340MOL    F4641404   2.351   2.328   7.992 -0.2674 -0.0420  0.0830
  340MOL    H4741405   2.449   2.479   7.809 -0.5714 -0.0398  0.9764
  340MOL    H4841406   2.481   2.347   7.705 -1.6696 -2.8479  0.3942
  340MOL    H4941407   2.376   2.183   7.862  1.6580  0.7175 -2.9912
  340MOL    C5041408   2.229   2.327   7.802  0.0752 -0.3867 -0.1295
  340MOL    C5141409   2.195   2.294   7.658  0.0194 -0.5243 -0.5664
  340MOL    F5241410   2.235   2.174   7.620 -0.5790  0.3248  0.1954
  340MOL    H5341411   2.160   2.287   7.876 -0.7639  2.2117  0.5299
  340MOL    H5441412   2.216   2.435   7.806 -0.1730 -0.4397  0.5658
  340MOL    H5541413   2.237   2.368   7.590 -1.1251 -0.8638 -1.6714
  340MOL    C5641414   2.042   2.309   7.636  0.9805  0.2568  0.0656
  340MOL    C5741415   1.988   2.451   7.658  0.3195  0.1558 -0.0409
  340MOL    F5841416   2.040   2.532   7.566  0.1961  0.3039 -0.3057
  340MOL    H5941417   2.016   2.270   7.538 -2.8005 -1.3984  1.6047
  340MOL    H6041418   1.996   2.235   7.702 -1.4440  0.7287 -1.0163
  340MOL    H6141419   2.012   2.486   7.758 -0.1680 -0.0961  0.1662
  340MOL    C6241420   1.828   2.467   7.661  0.1340  1.0332  0.0187
  340MOL    C6341421   1.764   2.395   7.773  0.0987 -0.5635 -0.5314
  340MOL    F6441422   1.824   2.415   7.889 -0.3320 -0.1783  0.4151
  340MOL    H6541423   1.815   2.574   7.681 -0.9902  0.7274  0.9793
  340MOL    H6641424   1.779   2.451   7.566  0.0519 -0.4613  0.3015
  340MOL    H6741425   1.760   2.288   7.750  0.3933 -0.7854  0.4143
  340MOL    C6841426   1.616   2.443   7.788 -0.3470 -0.5064 -0.4692
  340MOL    C6941427   1.543   2.375   7.906  0.6462 -0.2555  0.8728
  340MOL    F7041428   1.576   2.449   0.010 -0.2878 -0.7871 -0.1131
  340MOL    H7141429   1.601   2.550   7.803 -1.1537 -0.4104 -1.9048
  340MOL    H7241430   1.573   2.427   7.689 -1.6698  0.2427 -0.0316
  340MOL    H7341431   1.572   2.273   7.930  1.8492 -0.7626 -2.4413
  340MOL    C7441432   1.392   2.388   7.890 -0.0345 -0.1707 -0.2746
  340MOL    C7541433   1.313   2.289   7.803  0.3798 -0.2595 -0.0197
  340MOL    F7641434   1.307   2.168   7.858  0.0262  0.1372 -0.3926
  340MOL    H7741435   1.334   2.367   7.980 -0.1401  0.7612 -0.1268
  340MOL    H7841436   1.369   2.485   7.846  2.7327 -0.3942 -2.3390
  340MOL    H7941437   1.366   2.279   7.708 -1.0645  1.2802 -1.0339
  340MOL    C8041438   1.167   2.327   7.758 -0.1333  0.0703 -0.7836
  340MOL    C8141439   1.157   2.465   7.682  0.2522 -0.3768  0.1622
  340MOL    F8241440   1.263   2.468   7.601  0.0216  0.3490  0.1873
  340MOL    H8341441   1.124   2.246   7.700 -1.9626  0.5732 -0.1478
  340MOL    H8441442   1.092   2.326   7.838  0.3234  2.4586 -0.2942
  340MOL    H8541443   1.185   2.549   7.746  0.2945  0.5821 -1.0962
  340MOL    C8641444   1.020   2.495   7.624  0.1386  0.0962  0.2703
  340MOL    C8741445   1.006   2.635   7.562  0.2642 -0.2637  0.5274
  340MOL    F8841446   1.084   2.653   7.452  0.4490 -0.2564 -0.2124
  340MOL    H8941447   0.987   2.416   7.558 -0.8186 -0.5917  1.5573
  340MOL    H9041448   0.941   2.497   7.699  0.4950  0.4772  0.6373
  340MOL    H9141449   1.044   2.713   7.629 -1.1328  0.5817  0.3648
  340MOL    C9241450   0.860   2.674   7.530 -0.8052  0.3771 -0.5432
  340MOL    C9341451   0.827   2.822   7.501  0.3398 -0.0016  0.0212
  340MOL    F9441452   0.862   2.890   7.607 -0.7548 -0.0972  0.4970
  340MOL    H9541453   0.816   2.606   7.457  0.1397  0.8461 -1.5638
  340MOL    H9641454   0.809   2.652   7.624 -0.5967  1.1749 -0.2416
  340MOL    H9741455   0.722   2.846   7.489  0.2989 -1.6168 -3.2532
  340MOL    C9841456   0.897   2.870   7.374 -0.0937 -0.4389 -0.6646
  340MOL    C9941457   0.850   2.790   7.246 -0.4493 -0.0234 -0.5004
  340MOL   F10041458   0.720   2.770   7.229 -0.3686  0.1717 -0.2340
  340MOL   H10141459   0.872   2.976   7.366  0.5761 -0.0891  1.6070
  340MOL   H10241460   1.004   2.867   7.392  0.1740  1.3486 -1.8201
  340MOL   H10341461   0.893   2.690   7.259 -1.2319 -0.6354 -2.4106
  340MOL   C10441462   0.915   2.853   7.124 -1.2707 -0.2557  0.0877
  340MOL   C10541463   1.069   2.826   7.097  0.3852  0.8831 -0.2132
  340MOL   F10641464   1.098   2.699   7.118 -0.0778  0.2540 -0.0289
  340MOL   H10741465   0.865   2.829   7.030  0.8357  0.1477 -1.1748
  340MOL   H10841466   0.891   2.960   7.118  1.3675  0.3157 -1.1629
  340MOL   H10941467   1.121   2.885   7.173 -2.2431  1.2104  1.3788
  340MOL   C11041468   1.126   2.881   6.965 -0.6582  0.2687 -0.5590
  340MOL   C11141469   1.279   2.868   6.962 -0.7222 -0.3660 -0.5204
  340MOL   F11241470   1.330   2.906   6.849 -0.2177  0.6044 -0.2185
  340MOL   H11341471   1.086   2.836   6.874 -1.9651  0.4216 -0.0654
  340MOL   H11441472   1.104   2.988   6.959 -2.0356 -0.0128 -0.5532
  340MOL   H11541473   1.313   2.767   6.981 -0.1683  0.0768  0.9075
  340MOL   C11641474   1.355   2.974   7.057 -0.2894 -0.0060  0.4435
  340MOL   C11741475   1.496   2.919   7.066  0.4135 -0.0369 -0.3828
  340MOL   F11841476   1.509   2.790   7.109 -0.0030  0.4199 -0.5139
  340MOL   H11941477   1.364   3.070   7.007  1.1265 -1.5240 -2.3024
  340MOL   H12041478   1.308   2.990   7.155  1.9640  1.9600  1.2311
  340MOL   H12141479   1.563   2.980   7.128 -0.0302 -0.1152  0.1766
  340MOL   H12241480   1.551   2.914   6.972 -0.5723 -0.1717 -0.9584
  341MOL     C141481   7.280   5.844   2.171  0.3892 -0.1818 -0.6516
  341MOL     C241482   7.231   5.986   2.129 -0.4237  0.4049  0.6287
  341MOL     F341483   7.139   6.033   2.207  0.3361 -0.2769 -0.0778
  341MOL     H441484   7.360   5.809   2.106 -1.2880  0.4022 -3.1225
  341MOL     H541485   7.190   5.782   2.169 -0.5399  1.0269  1.5168
  341MOL     H641486   7.193   5.986   2.027  0.5356  0.3609  0.2587
  341MOL     H741487   7.309   5.847   2.276 -1.1779  1.5364 -0.2466
  341MOL     C841488   7.345   6.088   2.125  0.0544  0.2731  0.3532
  341MOL     C941489   7.460   6.072   2.019 -0.8548 -0.0417 -0.1125
  341MOL    F1041490   7.410   6.119   1.904  0.0375 -0.5445 -0.2649
  341MOL    H1141491   7.298   6.184   2.107  1.1082  0.8430  0.6000
  341MOL    H1241492   7.392   6.085   2.224 -0.2247  1.2840  0.5199
  341MOL    H1341493   7.495   5.971   1.997 -1.0753 -0.1189 -0.1200
  341MOL    C1441494   7.566   6.176   2.053 -0.1616 -0.2101 -0.1567
  341MOL    C1541495   7.651   6.137   2.175 -0.4003 -0.1343 -0.3346
  341MOL    F1641496   7.654   6.003   2.186  0.4218 -0.4026  0.2631
  341MOL    H1741497   7.635   6.211   1.976  0.7553 -1.2910  0.1558
  341MOL    H1841498   7.519   6.271   2.075  0.7568  0.0065  0.9594
  341MOL    H1941499   7.599   6.186   2.258 -1.4503  1.2425 -1.7776
  341MOL    C2041500   7.803   6.179   2.178  0.2551  0.4004 -0.5219
  341MOL    C2141501   7.818   6.332   2.181 -0.8307 -0.1835 -0.2687
  341MOL    F2241502   7.723   6.386   2.258  0.3607 -0.3133 -0.4242
  341MOL    H2341503   7.841   6.136   2.270  1.3284  0.0129 -1.1319
  341MOL    H2441504   7.856   6.129   2.096 -3.9937  0.1401 -3.2575
  341MOL    H2541505   7.795   6.356   2.077  1.3806 -0.4078 -0.8272
  341MOL    C2641506   7.965   6.379   2.209  0.0227 -0.6515  0.3797
  341MOL    C2741507   7.983   6.534   2.221 -0.7593 -0.0032 -0.3633
  341MOL    F2841508   0.091   6.553   2.300 -0.0517  0.1968 -0.1000
  341MOL    H2941509   7.991   6.344   2.309 -2.3408 -0.3777  1.1269
  341MOL    H3041510   0.036   6.341   2.138  0.1237  2.0385 -1.0467
  341MOL    H3141511   7.900   6.580   2.275  0.6732  0.5482  1.3986
  341MOL    C3241512   0.010   6.610   2.083 -0.0158  0.1246  0.3304
  341MOL    C3341513   7.960   6.758   2.080  0.0861 -0.2786  0.1894
  341MOL    F3441514   7.830   6.763   2.084 -0.3597  0.6916 -0.3391
  341MOL    H3541515   0.114   6.600   2.054  0.0755  0.1756  0.6353
  341MOL    H3641516   7.956   6.555   2.009  0.7491 -1.1202  0.6482
  341MOL    H3741517   7.977   6.791   1.978 -0.2485  0.7835  0.4709
  341MOL    C3841518   0.020   6.850   2.179 -0.0090  0.4090 -0.5217
  341MOL    C3941519   0.166   6.879   2.164 -0.3082  0.2258  0.0328
  341MOL    F4041520   0.178   6.940   2.037 -0.0370 -0.0067  0.0931
  341MOL    H4141521   7.974   6.945   2.161  0.6144  1.2128  1.8388
  341MOL    H4241522   0.001   6.817   2.281 -1.2049 -1.6779 -1.3916
  341MOL    H4341523   0.224   6.787   2.172  2.4590  1.9203  0.0705
  341MOL    C4441524   0.221   6.980   2.267  0.4789 -0.8135  0.1676
  341MOL    C4541525   0.246   6.920   2.410 -0.0077 -0.0689  0.2267
  341MOL    F4641526   0.332   6.815   2.391  0.0851 -0.4887 -0.6421
  341MOL    H4741527   0.313   7.012   2.219 -1.3377 -0.9107 -3.5713
  341MOL    H4841528   0.159   7.069   2.274  1.8668  0.3504 -1.8558
  341MOL    H4941529   0.150   6.877   2.436 -0.3902  1.4105  1.2750
  341MOL    C5041530   0.306   7.016   2.520  0.8116  0.3341 -0.1724
  341MOL    C5141531   0.443   7.076   2.483 -0.6707  0.2341  0.1411
  341MOL    F5241532   0.429   7.145   2.368 -0.1692  0.2162  0.4326
  341MOL    H5341533   0.239   7.098   2.546 -0.1941 -0.5861  0.1681
  341MOL    H5441534   0.326   6.945   2.600  1.7528 -3.5611 -3.7086
  341MOL    H5541535   0.521   7.004   2.459 -0.2234 -0.6160  3.8944
  341MOL    C5641536   0.493   7.168   2.588  0.1583 -0.7108  0.1094
  341MOL    C5741537   0.503   7.103   2.729 -0.4189 -0.0763  0.0677
  341MOL    F5841538   0.610   7.154   2.785 -0.2575  0.0052  0.1472
  341MOL    H5941539   0.590   7.198   2.547 -0.3893 -0.4131 -0.9769
  341MOL    H6041540   0.431   7.257   2.596  3.5531  1.7995 -0.3340
  341MOL    H6141541   0.521   6.998   2.706  0.2896  0.1210 -0.2878
  341MOL    C6241542   0.386   7.098   2.830  0.2559 -0.0036  0.2079
  341MOL    C6341543   0.414   7.029   2.965 -0.1732  0.0464  0.4719
  341MOL    F6441544   0.409   6.904   2.935 -0.3767  0.4759  0.3298
  341MOL    H6541545   0.348   7.197   2.856 -2.9980 -0.7712 -1.3253
  341MOL    H6641546   0.294   7.065   2.781  0.1365  1.8480 -0.8586
  341MOL    H6741547   0.336   7.044   3.041 -2.0623 -4.1847 -0.5172
  341MOL    C6841548   0.550   7.076   3.038  0.1120 -0.5203  1.0074
  341MOL    C6941549   0.577   7.010   3.178 -0.0992 -0.0534  0.1137
  341MOL    F7041550   0.469   7.039   3.250 -0.1702  0.1417  0.1612
  341MOL    H7141551   0.646   7.074   2.987  0.3827  1.7758  1.3730
  341MOL    H7241552   0.540   7.184   3.055 -1.2090 -0.7394  1.6552
  341MOL    H7341553   0.659   7.073   3.213  0.6033  0.0073 -1.6106
  341MOL    C7441554   0.615   6.866   3.189 -0.5941  0.3596  0.3501
  341MOL    C7541555   0.649   6.819   3.333  0.0377 -0.7188  0.4478
  341MOL    F7641556   0.594   6.704   3.360 -0.4800  0.6594  0.1506
  341MOL    H7741557   0.532   6.805   3.156 -1.2530  0.6900  1.3942
  341MOL    H7841558   0.701   6.846   3.125 -1.2685 -1.9700  0.1241
  341MOL    H7941559   0.609   6.878   3.415  0.9697 -0.3127  0.6083
  341MOL    C8041560   0.798   6.800   3.357  0.0639 -0.3401 -0.0446
  341MOL    C8141561   0.863   6.925   3.433  0.2720  0.7129 -0.2196
  341MOL    F8241562   0.829   7.041   3.371  0.1781  0.4035  0.1749
  341MOL    H8341563   0.820   6.704   3.403 -0.7470 -0.6695 -0.3333
  341MOL    H8441564   0.850   6.810   3.262  2.6767 -0.2037  1.3784
  341MOL    H8541565   0.972   6.916   3.428  0.1916 -0.3733 -0.1553
  341MOL    C8641566   0.833   6.934   3.589 -0.2568  0.1071  0.4904
  341MOL    C8741567   0.913   6.834   3.670 -0.8737  0.5492  0.1677
  341MOL    F8841568   1.044   6.847   3.645  0.1494 -0.1029  0.0940
  341MOL    H8941569   0.855   7.034   3.626  0.3564  0.6986 -1.4227
  341MOL    H9041570   0.725   6.926   3.597 -0.0202 -0.3130  3.6415
  341MOL    H9141571   0.883   6.736   3.632 -2.4805  1.5902 -1.2918
  341MOL    C9241572   0.897   6.855   3.825  0.1223  0.3722  0.0990
  341MOL    C9341573   0.752   6.829   3.875 -0.3623  0.1981 -0.1339
  341MOL    F9441574   0.710   6.707   3.836  0.5310 -0.2305  0.1166
  341MOL    H9541575   0.957   6.780   3.876 -1.4929 -0.0908  1.3344
  341MOL    H9641576   0.936   6.954   3.845  3.0253 -0.7002 -0.0192
  341MOL    H9741577   0.691   6.903   3.822  1.3483  0.9724 -1.0746
  341MOL    C9841578   0.737   6.844   4.028  0.3756  0.4719 -0.4723
  341MOL    C9941579   0.776   6.987   4.082 -0.3226 -0.0323  0.0248
  341MOL   F10041580   0.699   7.075   4.023 -0.1297  0.0655  0.0809
  341MOL   H10141581   0.636   6.809   4.046  1.1693 -1.8373 -0.3083
  341MOL   H10241582   0.804   6.768   4.069  0.4230  0.0847 -1.2446
  341MOL   H10341583   0.877   7.011   4.050 -0.2983 -0.6247 -0.3577
  341MOL   C10441584   0.780   6.983   4.236 -0.1695  0.2239 -0.5978
  341MOL   C10541585   0.651   6.975   4.312 -0.3226 -0.2519 -0.4028
  341MOL   F10641586   0.601   6.854   4.310 -0.5424  0.2573  0.1596
  341MOL   H10741587   0.839   6.895   4.261 -1.3492 -0.1231  1.0469
  341MOL   H10841588   0.834   7.068   4.278  0.4052  0.2205 -1.3302
  341MOL   H10941589   0.576   7.048   4.283  0.1209 -0.2288 -1.5035
  341MOL   C11041590   0.682   7.000   4.461  0.4021 -0.9300 -0.4845
  341MOL   C11141591   0.735   6.880   4.547  0.5242 -0.4935 -0.3175
  341MOL   F11241592   0.863   6.874   4.520 -0.2246  0.4818  0.2022
  341MOL   H11341593   0.743   7.090   4.468 -1.1622 -0.0372  2.6914
  341MOL   H11441594   0.593   7.033   4.514  0.7625  1.3023 -1.2145
  341MOL   H11541595   0.688   6.785   4.521 -0.4154 -0.6829  1.9273
  341MOL   C11641596   0.723   6.910   4.699  0.0635 -0.1922  0.2448
  341MOL   C11741597   0.810   6.814   4.780  0.0146 -0.5416 -0.4154
  341MOL   F11841598   0.777   6.856   4.898  0.4642  0.5966 -0.2530
  341MOL   H11941599   0.747   7.015   4.717 -0.0174  0.3232 -2.5675
  341MOL   H12041600   0.617   6.902   4.724  0.2104 -0.7462  0.7266
  341MOL   H12141601   0.919   6.817   4.780 -0.0196  1.3445 -1.5299
  341MOL   H12241602   0.787   6.710   4.761 -0.4757 -0.7462  1.2042
  342MOL     C141603   1.219   7.602   4.136 -0.6775 -0.1072  0.1507
  342MOL     C241604   1.221   7.662   3.991  0.1700 -0.0459 -0.7011
  342MOL     F341605   1.114   7.635   3.919  0.5821 -0.0547  0.6614
  342MOL     H441606   1.197   7.495   4.144  2.6787 -1.2490 -3.7870
  342MOL     H541607   1.156   7.660   4.202  0.4442 -0.2025  1.3295
  342MOL     H641608   1.309   7.631   3.934  0.1723  1.2799 -1.4196
  342MOL     H741609   1.323   7.615   4.167 -0.7868 -0.5987  0.7463
  342MOL     C841610   1.233   7.817   4.001 -0.5295  0.4358 -0.3266
  342MOL     C941611   1.354   7.887   4.076  0.2263  1.0235  0.3393
  342MOL    F1041612   1.471   7.856   4.026 -0.2207  0.0638  0.3254
  342MOL    H1141613   1.248   7.851   3.898  1.2191 -2.4960 -1.0940
  342MOL    H1241614   1.139   7.860   4.035 -0.5940 -0.8384  1.1915
  342MOL    H1341615   1.371   7.852   4.178 -0.1232 -3.2424 -0.9882
  342MOL    C1441616   1.358   0.036   4.078 -0.1923 -0.4129  0.4617
  342MOL    C1541617   1.241   0.101   4.157  0.5127 -0.2805 -0.4619
  342MOL    F1641618   1.266   0.081   4.282  0.1882 -0.4700  0.1083
  342MOL    H1741619   1.459   0.059   4.113 -0.0931  0.9792 -0.7054
  342MOL    H1841620   1.346   0.084   3.981 -0.7448 -0.1307  0.6641
  342MOL    H1941621   1.139   0.067   4.140 -0.0585  1.8620 -1.5004
  342MOL    C2041622   1.241   0.255   4.136 -0.4413 -0.5735  0.3617
  342MOL    C2141623   1.194   0.311   4.001  0.8364  0.2983  0.0165
  342MOL    F2241624   1.070   0.267   3.993  0.1805  0.0103 -0.0322
  342MOL    H2341625   1.180   0.301   4.214  1.1655  2.2806 -0.0347
  342MOL    H2441626   1.343   0.287   4.156  0.3919 -2.5137 -0.6897
  342MOL    H2541627   1.253   0.279   3.915 -1.0126  2.6226 -2.2250
  342MOL    C2641628   1.203   0.462   3.997 -0.4517 -0.2056 -0.0566
  342MOL    C2741629   1.192   0.525   3.859  0.2173 -0.5380  0.2183
  342MOL    F2841630   1.193   0.658   3.878  0.2507 -0.2720  0.3306
  342MOL    H2941631   1.116   0.495   4.052 -0.0292  2.8086 -1.1260
  342MOL    H3041632   1.291   0.491   4.054  0.2710 -0.6811 -0.9061
  342MOL    H3141633   1.092   0.502   3.821 -0.6070  0.2913  1.8127
  342MOL    C3241634   1.303   0.492   3.759 -0.1900  0.4441  0.1986
  342MOL    C3341635   1.444   0.500   3.807  0.6396 -0.3335 -0.1332
  342MOL    F3441636   1.488   0.381   3.840 -0.0708 -0.2944  0.3137
  342MOL    H3541637   1.290   0.391   3.720 -2.5886  1.1941 -1.0008
  342MOL    H3641638   1.292   0.554   3.670  1.0186 -1.2307 -1.1714
  342MOL    H3741639   1.455   0.559   3.898  2.1716 -3.9177  2.0942
  342MOL    C3841640   1.539   0.555   3.699  0.3666 -0.2832 -0.0513
  342MOL    C3941641   1.681   0.604   3.751  0.8671  0.4679 -0.1059
  342MOL    F4041642   1.769   0.626   3.648 -0.4818  0.6108  0.1550
  342MOL    H4141643   1.568   0.491   3.615 -2.2528  1.2053 -2.1765
  342MOL    H4241644   1.483   0.639   3.657 -2.3155 -0.5226  2.8951
  342MOL    H4341645   1.723   0.516   3.801 -0.2709 -0.1657 -0.2498
  342MOL    C4441646   1.675   0.729   3.848  0.0439 -0.2509 -0.0549
  342MOL    C4541647   1.806   0.808   3.855 -0.4260 -0.2626 -0.0071
  342MOL    F4641648   1.785   0.914   3.930 -0.2743 -0.5570  0.2275
  342MOL    H4741649   1.604   0.805   3.814  0.6995  0.2883 -0.2129
  342MOL    H4841650   1.645   0.696   3.947  0.3654  0.5034  0.2962
  342MOL    H4941651   1.840   0.843   3.758 -0.7651 -0.5822 -0.2430
  342MOL    C5041652   1.932   0.738   3.909  0.0950 -0.0859 -0.3439
  342MOL    C5141653   2.040   0.691   3.815  0.2298  0.3517 -0.1940
  342MOL    F5241654   2.081   0.786   3.738  0.5309 -0.5927  0.8492
  342MOL    H5341655   1.975   0.820   3.965 -1.4281  1.8027 -1.8453
  342MOL    H5441656   1.894   0.650   3.962 -0.9640 -0.4411 -1.6629
  342MOL    H5541657   2.005   0.612   3.749 -0.2073  2.5832 -2.7392
  342MOL    C5641658   2.167   0.657   3.891 -0.2172  0.1673 -0.0026
  342MOL    C5741659   2.285   0.608   3.806  0.2871  0.4440  0.4444
  342MOL    F5841660   2.348   0.701   3.737  0.5075 -0.3164  0.8122
  342MOL    H5941661   2.203   0.746   3.941 -0.8344  0.1751  0.4265
  342MOL    H6041662   2.148   0.580   3.966  0.5866 -0.3513 -0.3215
  342MOL    H6141663   2.262   0.524   3.740  0.4279 -0.2050  1.2152
  342MOL    C6241664   2.392   0.561   3.911 -1.1619  0.0981 -0.4769
  342MOL    C6341665   2.509   0.484   3.849 -0.4836 -0.2214 -0.9229
  342MOL    F6441666   2.571   0.575   3.767  0.3500  0.6495 -0.4526
  342MOL    H6541667   2.440   0.639   3.969 -0.0754 -1.3087  0.5621
  342MOL    H6641668   2.339   0.496   3.981 -0.1474  0.5845  0.7591
  342MOL    H6741669   2.472   0.404   3.785  0.4491 -1.6892  0.3464
  342MOL    C6841670   2.624   0.437   3.944  0.0537  0.5828 -0.0802
  342MOL    C6941671   2.574   0.322   4.043  0.1751  0.2749  0.0603
  342MOL    F7041672   2.511   0.224   3.981 -0.3423 -0.4307  0.2839
  342MOL    H7141673   2.712   0.401   3.891 -0.4371  2.7210 -2.4693
  342MOL    H7241674   2.660   0.522   4.002  1.6624  2.3552 -3.5088
  342MOL    H7341675   2.501   0.378   4.103  0.1450  1.1290 -0.7655
  342MOL    C7441676   2.688   0.267   4.123  0.0554 -0.2535  0.0115
  342MOL    C7541677   2.655   0.189   4.246 -0.0886 -0.1925  0.2434
  342MOL    F7641678   2.574   0.099   4.205 -0.3926 -0.2279  0.3120
  342MOL    H7741679   2.745   0.212   4.048 -1.2143 -0.9958 -0.4266
  342MOL    H7841680   2.738   0.359   4.153 -1.4993  0.3923  0.7068
  342MOL    H7941681   2.610   0.258   4.317 -1.5790  0.5499 -1.3963
  342MOL    C8041682   2.778   0.115   4.315  0.3085 -0.1103 -0.0125
  342MOL    C8141683   2.900   0.205   4.337  0.4562 -0.4659  0.4500
  342MOL    F8241684   2.845   0.308   4.414  0.0552 -0.4158 -0.2145
  342MOL    H8341685   2.750   0.076   4.413 -0.0009 -0.3578 -0.1981
  342MOL    H8441686   2.806   0.023   4.263  0.2097 -0.8200  1.1757
  342MOL    H8541687   2.932   0.256   4.246  1.3510  0.8124  1.4428
  342MOL    C8641688   3.018   0.140   4.404 -0.0140  0.1987  0.0970
  342MOL    C8741689   3.084   0.048   4.312 -0.4515  0.1867  0.8130
  342MOL    F8841690   3.137   0.111   4.212  0.2421 -0.2498  0.2489
  342MOL    H8941691   3.095   0.206   4.442 -1.1570  0.5092  1.9184
  342MOL    H9041692   2.983   0.085   4.491  0.9824 -1.2313 -0.3871
  342MOL    H9141693   3.007   7.995   4.260 -0.3024 -1.7603  2.6113
  342MOL    C9241694   3.192   7.964   4.378 -0.4731 -0.2848  0.4548
  342MOL    C9341695   3.125   7.853   4.455 -0.6078 -0.0943 -0.2009
  342MOL    F9441696   3.032   7.780   4.396  0.0878 -0.2557  0.8082
  342MOL    H9541697   3.267   7.920   4.313 -0.2196 -2.0678  1.9041
  342MOL    H9641698   3.260   0.015   4.444 -1.3024  0.1726  0.9465
  342MOL    H9741699   3.069   7.899   4.536  1.3052  0.5879  0.7784
  342MOL    C9841700   3.221   7.758   4.532 -0.9327 -0.0271  0.4862
  342MOL    C9941701   3.154   7.641   4.610  0.3847  0.2521  0.2652
  342MOL   F10041702   3.260   7.581   4.657  0.2118  0.4524  0.0567
  342MOL   H10141703   3.285   7.697   4.470  0.3233  1.1118  0.6296
  342MOL   H10241704   3.282   7.813   4.604 -1.4226 -1.2638  1.8585
  342MOL   H10341705   3.096   7.578   4.542  0.4839 -0.9077  1.2290
  342MOL   C10441706   3.069   7.679   4.732  0.4732 -0.0412 -0.3293
  342MOL   C10541707   2.980   7.568   4.817  0.2706 -0.0587 -0.5181
  342MOL   F10641708   3.066   7.489   4.881 -0.2586  0.7378  0.1480
  342MOL   H10741709   3.145   7.731   4.791 -1.1546  0.4375  1.3978
  342MOL   H10841710   3.002   7.757   4.696  0.1122  0.4039  1.2643
  342MOL   H10941711   2.911   7.508   4.758  0.6288  1.0175 -2.0773
  342MOL   C11041712   2.892   7.640   4.917 -0.0245 -0.3439  0.7970
  342MOL   C11141713   2.829   7.567   5.035  0.0336 -0.0117  0.0929
  342MOL   F11241714   2.789   7.644   5.132  0.2055  0.0105  0.2436
  342MOL   H11341715   2.960   7.715   4.959 -0.2394  0.0189  0.4959
  342MOL   H11441716   2.817   7.704   4.871  1.2419  1.1088  0.7230
  342MOL   H11541717   2.916   7.513   5.072  1.1263  2.2776  0.9433
  342MOL   C11641718   2.714   7.473   5.004 -0.2378  0.3317 -0.3632
  342MOL   C11741719   2.662   7.376   5.119  0.1423 -0.1767 -0.2140
  342MOL   F11841720   2.738   7.268   5.133 -0.2200 -0.2680 -0.2706
  342MOL   H11941721   2.626   7.511   4.953 -1.4208 -1.6680  0.1271
  342MOL   H12041722   2.758   7.409   4.927  0.8000  1.7727 -0.9908
  342MOL   H12141723   2.561   7.347   5.091 -0.6432  0.7368  1.5737
  342MOL   H12241724   2.656   7.430   5.214  1.7179 -0.3551  0.0013
  343MOL     C141725   0.339   2.873   5.579  1.0896  0.2777  0.6538
  343MOL     C241726   0.405   2.735   5.565 -0.4416 -0.0556  0.1758
  343MOL     F341727   0.334   2.644   5.502 -0.0391  0.1825 -0.1001
  343MOL     H441728   0.324   2.917   5.480  2.3907 -3.0461 -1.1001
  343MOL     H541729   0.397   2.940   5.641  0.0335 -0.3370  2.3222
  343MOL     H641730   0.415   2.693   5.665 -0.6458 -1.0071 -0.1968
  343MOL     H741731   0.235   2.862   5.611 -0.0899 -0.4718 -3.0963
  343MOL     C841732   0.537   2.740   5.489 -0.1872 -0.0585 -0.3951
  343MOL     C941733   0.652   2.805   5.569  0.1515  0.2197 -0.2154
  343MOL    F1041734   0.642   2.761   5.698  0.0583  0.0689  0.0630
  343MOL    H1141735   0.554   2.634   5.472 -0.5438 -0.2737  0.5917
  343MOL    H1241736   0.528   2.781   5.388  3.2402 -0.0952 -0.7681
  343MOL    H1341737   0.629   2.912   5.569 -1.0058 -0.0067  1.0459
  343MOL    C1441738   0.796   2.781   5.521  0.3780  0.3165  0.6650
  343MOL    C1541739   0.849   2.637   5.539 -0.1079  0.6585 -0.0482
  343MOL    F1641740   0.797   2.574   5.436 -0.0473 -0.2024  0.1153
  343MOL    H1741741   0.823   2.827   5.426  0.3036 -0.5853  0.2047
  343MOL    H1841742   0.854   2.852   5.580  0.3707  0.0827  0.9514
  343MOL    H1941743   0.813   2.603   5.636  1.3830  2.2640  1.0943
  343MOL    C2041744   1.004   2.621   5.534  0.9372  0.4208 -0.6428
  343MOL    C2141745   1.057   2.494   5.576 -0.6814 -0.3682  0.0569
  343MOL    F2241746   1.019   2.398   5.491  0.1557  0.3319  0.4763
  343MOL    H2341747   1.041   2.655   5.437  1.5880 -0.6209 -0.7680
  343MOL    H2441748   1.039   2.705   5.593  0.9767 -1.6774  2.4419
  343MOL    H2541749   1.024   2.472   5.678  0.2523  0.4259  0.5363
  343MOL    C2641750   1.206   2.504   5.569  0.2006  0.4850  0.0892
  343MOL    C2741751   1.284   2.376   5.613 -0.0024 -0.6035  0.0199
  343MOL    F2841752   1.405   2.422   5.656 -0.5392  0.1823 -0.2920
  343MOL    H2941753   1.235   2.521   5.466 -1.9114 -1.8525 -0.9336
  343MOL    H3041754   1.251   2.585   5.626  4.0166 -1.5198  0.1061
  343MOL    H3141755   1.311   2.318   5.525  1.7973 -2.0822  1.5029
  343MOL    C3241756   1.225   2.277   5.720  0.2903  0.2282 -0.0867
  343MOL    C3341757   1.319   2.173   5.769  0.3749 -0.0505 -1.1581
  343MOL    F3441758   1.263   2.116   5.877  0.1378  0.5158 -0.0031
  343MOL    H3541759   1.206   2.334   5.810 -1.2040  0.3020 -0.4464
  343MOL    H3641760   1.138   2.219   5.688 -0.8777  1.9365 -0.0339
  343MOL    H3741761   1.413   2.218   5.802  0.0442 -0.3091  0.1513
  343MOL    C3841762   1.379   2.074   5.665  0.2140  0.7984 -0.3677
  343MOL    C3941763   1.484   1.973   5.718  0.5916 -0.3769  0.1554
  343MOL    F4041764   1.411   1.893   5.793 -0.0332  0.4803  0.7843
  343MOL    H4141765   1.291   2.024   5.623 -0.6938 -0.2716  2.6808
  343MOL    H4241766   1.427   2.137   5.590 -3.5719  3.3562 -0.7735
  343MOL    H4341767   1.558   2.023   5.780  1.3525 -0.1584 -0.9017
  343MOL    C4441768   1.561   1.900   5.603  0.5901  0.1827  0.4949
  343MOL    C4541769   1.650   1.782   5.651  0.1714  0.2941 -0.1396
  343MOL    F4641770   1.572   1.679   5.692 -0.4599 -0.0866 -0.9243
  343MOL    H4741771   1.489   1.866   5.528  1.2931  0.0064 -0.1153
  343MOL    H4841772   1.618   1.979   5.555 -1.4046  0.4746 -1.4830
  343MOL    H4941773   1.701   1.806   5.745  1.1543 -1.4336 -0.2099
  343MOL    C5041774   1.757   1.723   5.548  0.1530  0.0053 -0.2626
  343MOL    C5141775   1.838   1.613   5.613 -0.0718 -0.5394 -0.0344
  343MOL    F5241776   1.763   1.497   5.612  0.1560  0.2504  0.0111
  343MOL    H5341777   1.698   1.684   5.466 -0.6355  1.6151 -0.4691
  343MOL    H5441778   1.816   1.800   5.499  0.2662 -0.7697 -1.3588
  343MOL    H5541779   1.851   1.644   5.717  0.4817 -2.5950  0.5459
  343MOL    C5641780   1.977   1.577   5.544 -0.4331 -0.3251 -0.3576
  343MOL    C5741781   2.084   1.691   5.560 -0.0186  0.1030  0.7580
  343MOL    F5841782   2.099   1.743   5.681 -0.1481  0.0705 -0.1537
  343MOL    H5941783   2.019   1.495   5.602 -0.5771  0.1779  0.4704
  343MOL    H6041784   1.961   1.545   5.441 -2.5905 -0.4894  0.0082
  343MOL    H6141785   2.051   1.769   5.491  0.6652  0.7967  1.1947
  343MOL    C6241786   2.230   1.642   5.539 -0.3162  0.2816 -0.1851
  343MOL    C6341787   2.258   1.598   5.391  0.0558 -0.2655  0.3078
  343MOL    F6441788   2.231   1.714   5.330  0.0307 -0.2911  0.3576
  343MOL    H6541789   2.294   1.722   5.579 -1.2249  1.6373 -1.3906
  343MOL    H6641790   2.258   1.560   5.606  0.2607 -0.9496 -1.9099
  343MOL    H6741791   2.184   1.529   5.351 -0.4554  0.4715 -0.0127
  343MOL    C6841792   2.400   1.553   5.362  0.5325 -0.0213  0.0173
  343MOL    C6941793   2.415   1.473   5.236 -0.1994 -0.2518  0.5369
  343MOL    F7041794   2.357   1.356   5.253  0.2741 -0.1433  0.3343
  343MOL    H7141795   2.456   1.646   5.360 -1.9138  1.4768 -0.6020
  343MOL    H7241796   2.441   1.488   5.439 -0.6207 -2.0036 -0.9880
  343MOL    H7341797   2.521   1.448   5.234  0.0162  0.7010 -0.2190
  343MOL    C7441798   2.376   1.555   5.109  0.3738  0.3953 -0.2103
  343MOL    C7541799   2.493   1.647   5.066  0.3578  0.3410  0.2279
  343MOL    F7641800   2.592   1.573   5.025  0.2998 -0.3127  0.1019
  343MOL    H7741801   2.345   1.489   5.028  1.9345 -0.2722 -0.2781
  343MOL    H7841802   2.293   1.621   5.134 -2.2461 -1.9482 -2.3143
  343MOL    H7941803   2.533   1.710   5.146  1.6566  0.9120 -0.8575
  343MOL    C8041804   2.446   1.732   4.941  0.1100 -0.9876  0.1957
  343MOL    C8141805   2.545   1.840   4.894 -0.7641 -0.0406  0.0796
  343MOL    F8241806   2.588   1.899   4.998 -0.1575  0.0959 -0.3764
  343MOL    H8341807   2.418   1.661   4.864  0.1874 -1.2887  0.4451
  343MOL    H8441808   2.358   1.783   4.980 -1.6142 -2.5012 -1.6078
  343MOL    H8541809   2.503   1.921   4.834  0.0236  0.1474 -0.2295
  343MOL    C8641810   2.673   1.788   4.823 -0.3122  0.4734  0.1569
  343MOL    C8741811   2.655   1.690   4.699 -0.5007 -0.3443  0.1789
  343MOL    F8841812   2.570   1.749   4.612  0.5760 -0.1542  0.1110
  343MOL    H8941813   2.745   1.868   4.806  0.4871 -0.1540  0.5223
  343MOL    H9041814   2.717   1.727   4.902 -1.9686 -0.9657  0.0010
  343MOL    H9141815   2.604   1.600   4.733  0.6687 -0.2578  2.2049
  343MOL    C9241816   2.784   1.655   4.619  0.0064  0.1789  0.3671
  343MOL    C9341817   2.863   1.544   4.691  0.5225  0.1182  0.0325
  343MOL    F9441818   2.783   1.438   4.688  0.1764 -0.3156 -0.5317
  343MOL    H9541819   2.748   1.620   4.522 -2.0662 -0.9733  1.5003
  343MOL    H9641820   2.840   1.747   4.605  2.4374 -0.9524  2.2803
  343MOL    H9741821   2.857   1.570   4.797 -2.2738  1.0075 -0.2891
  343MOL    C9841822   3.003   1.501   4.643  0.5010 -0.3040  0.3686
  343MOL    C9941823   3.055   1.372   4.706  0.2190 -0.0264 -0.4785
  343MOL   F10041824   3.159   1.330   4.628  0.2862 -0.4290  0.0411
  343MOL   H10141825   2.989   1.473   4.538  1.8298  2.5406 -0.6139
  343MOL   H10241826   3.083   1.574   4.651 -0.5799  0.9821 -0.2601
  343MOL   H10341827   2.980   1.294   4.703 -0.5318  0.6167  1.0823
  343MOL   C10441828   3.116   1.393   4.844  0.8167  0.4467  0.1255
  343MOL   C10541829   3.184   1.273   4.910 -0.6009  0.0933 -0.2462
  343MOL   F10641830   3.277   1.218   4.827  0.1015  0.2378 -0.6123
  343MOL   H10741831   3.192   1.469   4.828  1.9766 -1.0532 -1.7663
  343MOL   H10841832   3.042   1.439   4.910  2.3373  2.5990  0.3551
  343MOL   H10941833   3.110   1.194   4.924 -2.0573  1.3631 -0.7456
  343MOL   C11041834   3.258   1.311   5.042  0.9139  0.7266  0.2925
  343MOL   C11141835   3.311   1.182   5.111 -0.8544 -0.0677 -0.1372
  343MOL   F11241836   3.402   1.116   5.044 -0.1146  0.2587  0.7952
  343MOL   H11341837   3.348   1.370   5.025  0.5118  1.2170 -0.1529
  343MOL   H11441838   3.189   1.362   5.109  0.0708  0.6882 -0.5386
  343MOL   H11541839   3.230   1.110   5.125 -0.2398 -0.5692  0.8842
  343MOL   C11641840   3.370   1.210   5.253 -0.2319  0.1454 -0.2000
  343MOL   C11741841   3.423   1.079   5.327  0.4242 -0.3909 -0.1071
  343MOL   F11841842   3.477   1.108   5.443  0.2170  0.2495 -0.3794
  343MOL   H11941843   3.453   1.280   5.239  0.2206 -0.2328  0.6119
  343MOL   H12041844   3.306   1.264   5.322  1.5216  1.5084  0.4076
  343MOL   H12141845   3.493   1.023   5.265 -1.5053 -1.0814 -1.7496
  343MOL   H12241846   3.342   1.010   5.351 -0.7414  1.0451  0.1628
  344MOL     C141847   0.067   1.266   0.698  0.0530 -0.2785  0.4590
  344MOL     C241848   7.959   1.275   0.595 -0.5000 -0.4507  0.0120
  344MOL     F341849   0.004   1.205   0.490 -0.0931 -0.6084 -0.4602
  344MOL     H441850   0.061   1.346   0.772 -1.8636  0.7843 -0.7893
  344MOL     H541851   0.166   1.270   0.654 -0.6265 -0.8975 -1.1766
  344MOL     H641852   7.957   1.379   0.563 -1.0454 -0.3729  0.2913
  344MOL     H741853   0.067   1.165   0.738 -0.9324 -1.2325 -1.8428
  344MOL     C841854   7.822   1.222   0.634 -0.1078  0.2512 -0.7062
  344MOL     C941855   7.713   1.219   0.530  1.0860  0.4768 -0.7724
  344MOL    F1041856   7.606   1.143   0.582 -0.4400  0.1779  0.1184
  344MOL    H1141857   7.838   1.121   0.671 -1.5324  1.1960  2.7642
  344MOL    H1241858   7.803   1.287   0.720 -0.6391 -0.3181 -0.3929
  344MOL    H1341859   7.749   1.172   0.439 -0.8831 -2.4729 -0.1010
  344MOL    C1441860   7.647   1.356   0.499 -0.2496 -0.5484  0.5808
  344MOL    C1541861   7.561   1.372   0.373  0.0871  0.1842  0.2083
  344MOL    F1641862   7.463   1.272   0.384 -0.0983  0.6300  0.4450
  344MOL    H1741863   7.591   1.400   0.582  0.0820 -0.8851  0.9881
  344MOL    H1841864   7.729   1.426   0.484 -0.3605 -0.5317  0.0599
  344MOL    H1941865   7.610   1.336   0.282  0.5370  0.0944  0.4828
  344MOL    C2041866   7.505   1.516   0.357 -0.4563  0.1391  0.0101
  344MOL    C2141867   7.450   1.538   0.218 -0.9031 -0.1023 -0.6354
  344MOL    F2241868   7.363   1.635   0.220 -0.7121  0.5348  0.3065
  344MOL    H2341869   7.430   1.537   0.434  0.9348 -1.6106  1.8898
  344MOL    H2441870   7.585   1.585   0.385 -0.3662 -0.1309  0.4294
  344MOL    H2541871   7.395   1.448   0.190 -0.6999 -1.7336  3.7595
  344MOL    C2641872   7.551   1.568   0.104 -0.2017  0.9653  0.3867
  344MOL    C2741873   7.498   1.570   7.954  0.8652 -0.0291  0.0766
  344MOL    F2841874   7.405   1.667   7.940  0.4025 -0.0546  0.1116
  344MOL    H2941875   7.605   1.661   0.120  1.3238 -0.1452  1.8985
  344MOL    H3041876   7.628   1.490   0.104  0.6739  1.8199  0.8850
  344MOL    H3141877   7.444   1.477   7.935  2.6967 -0.6558 -2.2336
  344MOL    C3241878   7.609   1.595   7.850  0.2115 -0.5321  0.0482
  344MOL    C3341879   7.560   1.614   7.709 -0.2317  0.0941 -0.8717
  344MOL    F3441880   7.671   1.607   7.637 -0.5098 -0.4800 -0.5184
  344MOL    H3541881   7.660   1.687   7.880 -3.8599  1.6511  0.5629
  344MOL    H3641882   7.694   1.527   7.856  1.3628  0.2476 -4.8299
  344MOL    H3741883   7.515   1.714   7.704  1.9390  1.1364 -0.0164
  344MOL    C3841884   7.477   1.506   7.642 -0.2633 -0.2387 -0.1177
  344MOL    C3941885   7.428   1.534   7.494 -0.0809 -0.0479 -0.2466
  344MOL    F4041886   7.430   1.413   7.437  0.3842 -0.0120 -0.2069
  344MOL    H4141887   7.528   1.410   7.645 -0.4549 -0.3770 -1.1603
  344MOL    H4241888   7.381   1.484   7.689 -0.3871  0.8660  0.1571
  344MOL    H4341889   7.501   1.593   7.438 -1.1381 -0.5306 -2.2055
  344MOL    C4441890   7.291   1.594   7.467  0.0354  0.3651 -0.7130
  344MOL    C4541891   7.295   1.745   7.481 -0.6621 -0.2210  0.3325
  344MOL    F4641892   7.373   1.793   7.383 -0.5947 -0.7672 -0.4668
  344MOL    H4741893   7.270   1.552   7.369  0.5417  2.6538 -1.8269
  344MOL    H4841894   7.213   1.556   7.533 -0.7809  1.0534 -1.2891
  344MOL    H4941895   7.333   1.772   7.579 -1.1882  0.4383  0.3585
  344MOL    C5041896   7.152   1.811   7.457  0.4853  0.5643  0.8529
  344MOL    C5141897   7.148   1.964   7.485 -0.0854 -0.5420  0.2919
  344MOL    F5241898   7.243   2.028   7.408 -0.0049  0.1861 -0.3130
  344MOL    H5341899   7.119   1.774   7.360  3.7570 -0.9349  0.2332
  344MOL    H5441900   7.081   1.773   7.530  2.6815  0.8563  3.2060
  344MOL    H5541901   7.167   1.977   7.591 -1.8771  0.9870  0.4546
  344MOL    C5641902   7.003   2.026   7.474 -0.1203 -0.3209  0.1297
  344MOL    C5741903   6.947   2.040   7.336  0.7725  0.0883  0.1290
  344MOL    F5841904   6.914   1.920   7.289  0.2946  0.2803  0.0455
  344MOL    H5941905   6.934   1.964   7.531  1.5212 -1.8541  0.5017
  344MOL    H6041906   7.005   2.115   7.537  2.7151 -1.5835  1.9464
  344MOL    H6141907   7.032   2.082   7.281  0.5282 -0.2338 -0.4901
  344MOL    C6241908   6.812   2.124   7.325  0.9362  0.0059  0.3524
  344MOL    C6341909   6.782   2.178   7.179  0.1975  0.9076 -0.1826
  344MOL    F6441910   6.893   2.248   7.148  0.0863  0.1895  1.2016
  344MOL    H6541911   6.730   2.083   7.383  0.5388  1.9475  1.2214
  344MOL    H6641912   6.823   2.216   7.382 -3.8049  1.6794 -1.1310
  344MOL    H6741913   6.691   2.238   7.178 -0.4871 -0.0930  0.6608
  344MOL    C6841914   6.773   2.065   7.076 -0.6900 -0.0148  0.4392
  344MOL    C6941915   6.738   2.116   6.929  0.1451  0.6907 -1.0208
  344MOL    F7041916   6.730   2.001   6.854 -0.2097  0.4918 -0.4329
  344MOL    H7141917   6.869   2.013   7.074  1.2028  3.3433  1.4568
  344MOL    H7241918   6.693   1.999   7.110  0.6407 -1.1606  1.4137
  344MOL    H7341919   6.818   2.185   6.903  0.0078  1.2372 -0.0114
  344MOL    C7441920   6.609   2.198   6.907  0.9400  0.6149  0.4924
  344MOL    C7541921   6.567   2.210   6.758  0.7753  0.3240  0.1465
  344MOL    F7641922   6.517   2.094   6.720  0.0558  0.6197 -0.1381
  344MOL    H7741923   6.537   2.168   6.983  0.7771 -2.7921 -0.9340
  344MOL    H7841924   6.629   2.299   6.944 -1.4641  1.8077 -1.3128
  344MOL    H7941925   6.645   2.250   6.694 -0.7386  0.8124 -1.4424
  344MOL    C8041926   6.454   2.312   6.756  0.3019 -0.6256 -0.5282
  344MOL    C8141927   6.406   2.347   6.610 -0.4968 -0.8140 -0.3130
  344MOL    F8241928   6.326   2.249   6.567  0.7929  0.1199 -0.5246
  344MOL    H8341929   6.372   2.284   6.821 -1.0431 -3.2911 -3.2662
  344MOL    H8441930   6.498   2.402   6.801  0.2045 -0.5115 -0.6613
  344MOL    H8541931   6.492   2.350   6.543  1.1646  1.3350  1.8247
  344MOL    C8641932   6.332   2.481   6.596  0.6817  0.7190  0.0184
  344MOL    C8741933   6.422   2.605   6.619  0.2269  0.2732  0.4205
  344MOL    F8841934   6.483   2.619   6.506  0.0604 -0.1897 -0.2665
  344MOL    H8941935   6.283   2.483   6.498 -0.4215 -0.7205  0.5250
  344MOL    H9041936   6.251   2.483   6.668 -0.6378  0.7512 -1.4270
  344MOL    H9141937   6.492   2.585   6.700 -0.4016 -0.2149  0.8517
  344MOL    C9241938   6.334   2.730   6.636  0.2371  0.0703 -0.6577
  344MOL    C9341939   6.395   2.866   6.650 -0.6912 -0.1902 -0.2436
  344MOL    F9441940   6.311   2.960   6.695  0.1485  0.3632  0.6250
  344MOL    H9541941   6.265   2.740   6.552  1.9006 -1.9201 -2.3296
  344MOL    H9641942   6.277   2.729   6.729  0.7059  3.9309 -0.2693
  344MOL    H9741943   6.430   2.899   6.553  0.0825 -3.1215 -1.0269
  344MOL    C9841944   6.525   2.878   6.733 -0.2351 -0.3552 -0.1292
  344MOL    C9941945   6.606   3.007   6.709  0.0779  0.3304  0.0210
  344MOL   F10041946   6.641   3.005   6.581 -0.2823  0.0165  0.0923
  344MOL   H10141947   6.497   2.886   6.838 -2.9386 -1.9237 -0.6709
  344MOL   H10241948   6.591   2.791   6.729 -1.7968 -1.6369  1.2133
  344MOL   H10341949   6.697   3.000   6.769 -0.5195 -0.2607  0.8773
  344MOL   C10441950   6.547   3.147   6.739 -0.7854  0.3210 -0.3585
  344MOL   C10541951   6.549   3.170   6.892 -0.4197  0.5233  0.0825
  344MOL   F10641952   6.676   3.177   6.941  0.3953  0.1324 -0.0774
  344MOL   H10741953   6.601   3.224   6.685  3.5622 -2.1443  0.1573
  344MOL   H10841954   6.446   3.143   6.700 -0.3557  0.2358 -1.4652
  344MOL   H10941955   6.514   3.084   6.948  1.6199 -0.9774 -0.8798
  344MOL   C11041956   6.474   3.301   6.936 -0.0628  0.1783  0.4619
  344MOL   C11141957   6.399   3.286   7.072  0.8601  0.3299  0.6947
  344MOL   F11241958   6.478   3.227   7.159 -0.1403  0.3123 -0.1555
  344MOL   H11341959   6.546   3.382   6.951  0.8338 -0.2667 -1.3307
  344MOL   H11441960   6.425   3.338   6.847 -2.9472 -2.8836  0.6612
  344MOL   H11541961   6.324   3.208   7.067  1.3696 -0.1653  0.8019
  344MOL   C11641962   6.354   3.430   7.122  0.0114 -0.6826 -0.0848
  344MOL   C11741963   6.236   3.422   7.217  0.3431  0.6831 -0.0732
  344MOL   F11841964   6.131   3.370   7.159  0.1079  1.0130  0.5359
  344MOL   H11941965   6.430   3.484   7.179 -0.6607 -0.2471  0.4085
  344MOL   H12041966   6.309   3.489   7.042  0.1821 -0.1637  0.1997
  344MOL   H12141967   6.215   3.521   7.256  1.7451  0.8530  0.2759
  344MOL   H12241968   6.254   3.368   7.310  0.8362 -0.3821 -0.7701
  345MOL     C141969   2.174   5.803   7.824 -0.1742  0.0405  0.3552
  345MOL     C241970   2.250   5.686   7.901  0.6582  0.1191  0.1648
  345MOL     F341971   2.314   5.609   7.811  0.0210  0.4638 -0.1456
  345MOL     H441972   2.243   5.853   7.756 -0.6450 -0.7875 -0.7471
  345MOL     H541973   2.158   5.873   7.905 -1.0397 -0.1019  0.3122
  345MOL     H641974   2.170   5.622   7.938  0.5946 -1.2442 -2.2254
  345MOL     H741975   2.081   5.766   7.780 -0.2306  0.7834 -0.1709
  345MOL     C841976   2.335   5.719   0.023  0.5342 -0.3002 -0.5597
  345MOL     C941977   2.275   5.811   0.131  0.3209 -0.3117 -0.8758
  345MOL    F1041978   2.165   5.752   0.158  0.4210  0.3687 -0.5457
  345MOL    H1141979   2.371   5.625   0.065  0.0082 -0.2340  0.0535
  345MOL    H1241980   2.418   5.769   7.977 -0.2345 -0.8647 -2.4892
  345MOL    H1341981   2.256   5.912   0.093  1.3908  1.4014  2.9393
  345MOL    C1441982   2.346   5.823   0.269 -0.0162  0.5882  0.8012
  345MOL    C1541983   2.266   5.922   0.355 -0.3000 -0.2443 -0.8043
  345MOL    F1641984   2.227   6.022   0.287  0.6640  0.0165  0.1053
  345MOL    H1741985   2.373   5.731   0.321 -0.7991  0.4939  1.0470
  345MOL    H1841986   2.445   5.860   0.244  1.0197 -0.3048  3.4159
  345MOL    H1941987   2.328   5.966   0.433  1.2741 -2.0629 -0.9890
  345MOL    C2041988   2.139   5.861   0.427 -0.1874 -0.2104 -0.2459
  345MOL    C2141989   2.164   5.737   0.513 -0.2079 -0.3316 -1.5262
  345MOL    F2241990   2.242   5.767   0.617  0.0468 -0.2056  0.0660
  345MOL    H2341991   2.088   5.938   0.485 -2.2955 -0.4875 -1.6471
  345MOL    H2441992   2.072   5.825   0.348  2.0480  0.8339 -2.6734
  345MOL    H2541993   2.227   5.657   0.473  2.2243  0.0859  1.2623
  345MOL    C2641994   2.035   5.657   0.555 -1.2479  0.0412  0.1984
  345MOL    C2741995   1.942   5.740   0.639  0.5343 -0.0854 -0.0613
  345MOL    F2841996   1.872   5.815   0.551  0.0903 -0.0523  0.2008
  345MOL    H2941997   1.989   5.602   0.473  0.2844 -1.3815  0.2896
  345MOL    H3041998   2.082   5.573   0.604  0.0836 -0.6395 -2.1756
  345MOL    H3141999   2.002   5.793   0.713 -0.0383 -1.7998  1.6562
  345MOL    C3242000   1.830   5.664   0.715  0.4680 -0.8039  0.1312
  345MOL    C3342001   1.883   5.608   0.846 -0.2784  0.1014 -0.3893
  345MOL    F3442002   1.898   5.716   0.922  0.3504  0.5306  0.3145
  345MOL    H3542003   1.735   5.716   0.720 -0.2809 -1.9062 -2.2026
  345MOL    H3642004   1.802   5.578   0.654 -1.4475 -0.0124 -0.1125
  345MOL    H3742005   1.979   5.557   0.839 -0.2549 -0.2616  2.1082
  345MOL    C3842006   1.781   5.523   0.928  0.1878  0.0083  0.5372
  345MOL    C3942007   1.838   5.466   1.066  0.2897 -0.0535  0.4165
  345MOL    F4042008   1.852   5.565   1.147  0.4890 -0.5741  0.5422
  345MOL    H4142009   1.685   5.573   0.937 -0.0038 -0.3939  0.7479
  345MOL    H4242010   1.756   5.438   0.864  0.4474 -0.9145  1.6441
  345MOL    H4342011   1.936   5.432   1.032 -0.9237 -3.3350 -0.0025
  345MOL    C4442012   1.749   5.352   1.125 -0.7052 -0.1755  0.0814
  345MOL    C4542013   1.605   5.402   1.128  0.1287  0.3719 -0.9662
  345MOL    F4642014   1.550   5.376   1.009 -0.5768 -0.0572  0.8412
  345MOL    H4742015   1.768   5.260   1.070  0.5196  0.1334 -0.0262
  345MOL    H4842016   1.778   5.333   1.228 -0.3258 -2.0142 -0.3529
  345MOL    H4942017   1.611   5.510   1.142  0.3717  0.0258  1.7358
  345MOL    C5042018   1.521   5.341   1.239 -0.5556  1.0851 -0.4452
  345MOL    C5142019   1.382   5.403   1.267 -0.0429 -0.2435  0.0103
  345MOL    F5242020   1.340   5.343   1.376 -1.1443  0.2109 -0.6000
  345MOL    H5342021   1.515   5.235   1.215 -0.7927  0.8239  0.7248
  345MOL    H5442022   1.583   5.342   1.329 -1.1369  0.2747 -0.0315
  345MOL    H5542023   1.306   5.382   1.192 -1.0045  0.8919  0.6349
  345MOL    C5642024   1.380   5.549   1.307 -0.6392 -0.7436  0.1155
  345MOL    C5742025   1.238   5.609   1.343 -0.0470  0.0980  0.2859
  345MOL    F5842026   1.257   5.734   1.391 -0.0258  0.1638 -0.4415
  345MOL    H5942027   1.451   5.573   1.386 -2.0408 -2.0832  1.8419
  345MOL    H6042028   1.420   5.605   1.223 -1.4731 -0.0419  0.1803
  345MOL    H6142029   1.195   5.556   1.429  0.7610 -0.0550  0.5945
  345MOL    C6242030   1.140   5.607   1.223 -0.4212  0.2287 -0.5550
  345MOL    C6342031   1.004   5.667   1.241 -0.3179 -0.5806  0.1114
  345MOL    F6442032   1.018   5.798   1.271 -0.1107 -0.0248 -0.1790
  345MOL    H6542033   1.179   5.667   1.140 -1.1641  0.1707 -0.9525
  345MOL    H6642034   1.129   5.502   1.193  0.9627 -0.1299  0.1520
  345MOL    H6742035   0.958   5.625   1.331  3.1036 -0.0372  2.2459
  345MOL    C6842036   0.923   5.667   1.110 -0.4390 -0.1814  0.3931
  345MOL    C6942037   0.789   5.741   1.097  0.6260  0.4936  0.4621
  345MOL    F7042038   0.780   5.761   0.966 -0.3328 -0.5192  0.4356
  345MOL    H7142039   0.993   5.712   1.039 -0.7923 -1.8140 -1.0301
  345MOL    H7242040   0.912   5.569   1.064  2.0957  0.0536 -0.7850
  345MOL    H7342041   0.788   5.841   1.142 -1.0796  0.5746  0.3099
  345MOL    C7442042   0.664   5.670   1.145  0.1129  0.1763  0.1073
  345MOL    C7542043   0.535   5.752   1.115 -0.0860  0.8372 -0.5347
  345MOL    F7642044   0.510   5.756   0.983 -0.8036  0.5378  0.7264
  345MOL    H7742045   0.657   5.573   1.096  0.4395  0.9498 -1.5080
  345MOL    H7842046   0.679   5.657   1.252  3.1978  4.1815  0.2809
  345MOL    H7942047   0.527   5.856   1.145  1.7414  0.4514  1.5006
  345MOL    C8042048   0.411   5.686   1.192 -0.5244  1.1552 -0.8773
  345MOL    C8142049   0.332   5.573   1.116  0.0201 -0.0896 -0.2249
  345MOL    F8242050   0.415   5.479   1.073 -0.2198  0.1417 -0.6942
  345MOL    H8342051   0.436   5.645   1.290 -3.0664  2.9218  0.5817
  345MOL    H8442052   0.335   5.763   1.205 -1.7114  0.5508 -3.8364
  345MOL    H8542053   0.277   5.618   1.033  0.0417  0.5791  0.1217
  345MOL    C8642054   0.227   5.497   1.198 -0.3895 -0.0784 -0.1091
  345MOL    C8742055   0.282   5.411   1.321 -0.5411 -0.6252  0.6276
  345MOL    F8842056   0.210   5.420   1.423 -0.5556  0.3646 -0.1419
  345MOL    H8942057   0.152   5.570   1.226 -0.6819 -0.6076  0.4820
  345MOL    H9042058   0.170   5.436   1.128 -0.7589  1.2775 -1.0037
  345MOL    H9142059   0.379   5.456   1.345 -1.3807  0.7262  1.5072
  345MOL    C9242060   0.325   5.270   1.289  0.4413  0.2859  0.0816
  345MOL    C9342061   0.372   5.179   1.411  0.0943  0.1930 -0.8244
  345MOL    F9442062   0.264   5.138   1.470  0.0631  0.5727 -0.6110
  345MOL    H9542063   0.253   5.213   1.229  1.0601 -0.1690 -0.2402
  345MOL    H9642064   0.412   5.287   1.226 -0.8878  1.2232 -1.5517
  345MOL    H9742065   0.436   5.239   1.476 -2.0010  0.4685  1.0626
  345MOL    C9842066   0.451   5.050   1.370 -0.2234 -0.2347 -0.7314
  345MOL    C9942067   0.456   4.940   1.485  0.0746  0.7732  0.1463
  345MOL   F10042068   0.501   4.829   1.433  0.2701 -0.2759  0.2073
  345MOL   H10142069   0.395   5.013   1.284 -2.1697 -0.1123  0.4592
  345MOL   H10242070   0.551   5.083   1.342  0.6471 -0.8966  1.5501
  345MOL   H10342071   0.355   4.909   1.512  0.1515  1.5157  1.3121
  345MOL   C10442072   0.529   4.976   1.614 -0.4002  0.2874  0.2967
  345MOL   C10542073   0.689   4.968   1.598 -0.2826  0.6564  0.2279
  345MOL   F10642074   0.727   5.086   1.553  0.1821 -0.3144 -0.5351
  345MOL   H10742075   0.492   5.076   1.638 -0.9461 -0.2872  1.8358
  345MOL   H10842076   0.489   4.910   1.690 -0.6087  2.1861  1.8791
  345MOL   H10942077   0.719   4.895   1.523 -0.5507  0.8280 -0.0490
  345MOL   C11042078   0.772   4.946   1.723 -0.0415 -0.3915 -0.0072
  345MOL   C11142079   0.754   4.808   1.790  0.4021  0.0805 -0.7826
  345MOL   F11242080   0.757   4.720   1.693  0.1691  0.4430 -0.0482
  345MOL   H11342081   0.877   4.953   1.694 -0.4067  0.7566 -1.1034
  345MOL   H11442082   0.765   5.025   1.798  0.2872 -1.6841  1.4050
  345MOL   H11542083   0.653   4.811   1.831  0.1122  3.5393 -1.5552
  345MOL   C11642084   0.867   4.785   1.894 -0.1235  0.4458 -0.5923
  345MOL   C11742085   0.830   4.669   1.986 -0.1306 -0.0055 -0.5739
  345MOL   F11842086   0.913   4.651   2.092 -0.1623 -0.1824 -0.0534
  345MOL   H11942087   0.965   4.768   1.851  1.2447 -1.4339  2.9962
  345MOL   H12042088   0.892   4.880   1.943 -0.5714  0.8743 -1.1933
  345MOL   H12142089   0.830   4.574   1.932  0.4059  0.1525 -0.8659
  345MOL   H12242090   0.733   4.678   2.033 -0.2270 -1.1555 -0.5185
  346MOL     C142091   2.015   1.014   0.107 -0.1211 -0.0018 -0.3344
  346MOL     C242092   2.067   1.070   7.975  0.2954  0.2701  0.3248
  346MOL     F342093   1.978   1.028   7.885 -0.1671  0.0316 -0.0501
  346MOL     H442094   2.019   0.907   0.089 -0.1958 -0.6192  3.0380
  346MOL     H542095   1.912   1.041   0.129 -0.0155 -0.2541  0.4633
  346MOL     H642096   2.169   1.037   7.952  0.4173 -0.1878  1.4962
  346MOL     H742097   2.080   1.031   0.193  1.5435 -2.7079 -0.9788
  346MOL     C842098   2.062   1.229   7.966  0.2113 -0.3007 -0.2945
  346MOL     C942099   2.149   1.304   7.862 -0.0098  0.4363 -0.4209
  346MOL    F1042100   2.269   1.301   7.904 -0.1422  0.2900  0.0379
  346MOL    H1142101   1.960   1.266   7.962  1.2367  2.5445 -1.5057
  346MOL    H1242102   2.089   1.274   0.058  0.9081 -1.6195  0.1444
  346MOL    H1342103   2.109   1.405   7.858  1.7468  1.0717 -2.5541
  346MOL    C1442104   2.132   1.239   7.719 -0.2827  0.5475 -0.1882
  346MOL    C1542105   1.991   1.258   7.658  0.6468  0.6559  0.9846
  346MOL    F1642106   1.953   1.386   7.633 -0.1559 -0.1185 -0.0775
  346MOL    H1742107   2.206   1.273   7.647 -0.5758 -1.0580 -1.2594
  346MOL    H1842108   2.152   1.133   7.729 -1.1651  0.5324  1.6400
  346MOL    H1942109   1.917   1.213   7.724 -0.0637  1.9642  1.0929
  346MOL    C2042110   1.987   1.198   7.513  0.8869 -0.5322 -0.0160
  346MOL    C2142111   1.852   1.168   7.440  0.7060  0.0179 -0.0698
  346MOL    F2242112   1.874   1.157   7.308 -0.1071  0.5731  0.4834
  346MOL    H2342113   2.051   1.253   7.443  0.4518 -1.1599 -0.9136
  346MOL    H2442114   2.040   1.103   7.512  0.7426 -0.6168 -1.5142
  346MOL    H2542115   1.790   1.258   7.443  1.7433  0.9001 -2.7765
  346MOL    C2642116   1.774   1.048   7.490  0.7834 -0.1007 -0.2345
  346MOL    C2742117   1.624   1.049   7.433 -0.0246  0.0627 -0.8662
  346MOL    F2842118   1.625   0.985   7.312  0.4126  0.2362 -0.1668
  346MOL    H2942119   1.821   0.952   7.470  3.1412  0.9869 -0.0774
  346MOL    H3042120   1.763   1.067   7.597 -2.6050 -3.9310  0.1979
  346MOL    H3142121   1.596   1.152   7.411  1.7211  0.7208 -0.0842
  346MOL    C3242122   1.528   0.973   7.525 -0.1037 -0.0139 -0.4323
  346MOL    C3342123   1.385   0.989   7.479 -0.2890 -0.4898 -0.3676
  346MOL    F3442124   1.353   1.106   7.419  0.2365  0.9447 -0.1766
  346MOL    H3542125   1.564   0.872   7.546  1.6177  0.3570 -1.4662
  346MOL    H3642126   1.530   1.025   7.621 -0.7411  1.0558 -0.9858
  346MOL    H3742127   1.320   0.971   7.565 -0.9217 -1.6576 -1.0653
  346MOL    C3842128   1.348   0.878   7.376 -0.1342 -0.7699  0.7949
  346MOL    C3942129   1.361   0.736   7.428  0.0262  0.0707  0.5460
  346MOL    F4042130   1.313   0.717   7.549 -0.1581 -0.2569 -0.5354
  346MOL    H4142131   1.249   0.899   7.336  0.3667 -0.2924 -0.2172
  346MOL    H4242132   1.410   0.878   7.287 -0.2048 -0.4098  0.7438
  346MOL    H4342133   1.462   0.695   7.438 -0.1089 -0.2590  0.5869
  346MOL    C4442134   1.283   0.632   7.342 -0.1552  0.5529  0.4652
  346MOL    C4542135   1.333   0.622   7.198 -0.9032 -0.2695 -0.0437
  346MOL    F4642136   1.462   0.598   7.207  0.4882  0.2823 -0.3900
  346MOL    H4742137   1.287   0.536   7.395 -0.3993 -0.1288 -0.7199
  346MOL    H4842138   1.179   0.663   7.345  0.2543  1.9874 -0.0322
  346MOL    H4942139   1.323   0.721   7.155 -0.3806 -0.6844 -1.1349
  346MOL    C5042140   1.256   0.517   7.109  0.1473 -0.4075  1.1497
  346MOL    C5142141   1.349   0.464   6.995  0.2714 -0.6422 -0.9336
  346MOL    F5242142   1.266   0.395   6.914 -0.6256 -0.4591  0.4140
  346MOL    H5342143   1.225   0.423   7.155 -0.9454 -0.8521 -0.4664
  346MOL    H5442144   1.160   0.555   7.074  0.6935 -0.2412 -0.1670
  346MOL    H5542145   1.422   0.391   7.030  0.8054  0.1659 -0.3451
  346MOL    C5642146   1.437   0.565   6.924 -0.2842 -0.3066  0.6007
  346MOL    C5742147   1.498   0.511   6.794 -0.1126  0.8646  0.2523
  346MOL    F5842148   1.568   0.602   6.731  0.5097  0.3380  0.1145
  346MOL    H5942149   1.371   0.648   6.899 -1.0642 -1.1932 -0.3195
  346MOL    H6042150   1.527   0.593   6.978 -0.9567 -0.3304  1.7435
  346MOL    H6142151   1.425   0.468   6.725  2.8223 -1.8133 -1.3228
  346MOL    C6242152   1.610   0.402   6.812  0.3581 -0.2280  0.1807
  346MOL    C6342153   1.707   0.377   6.692 -0.5828  0.4189 -0.0056
  346MOL    F6442154   1.794   0.286   6.735 -0.2355  0.1525 -0.3275
  346MOL    H6542155   1.677   0.437   6.890 -0.4245  2.7462 -0.4170
  346MOL    H6642156   1.571   0.305   6.844  0.9246 -0.2574  0.7830
  346MOL    H6742157   1.766   0.466   6.671  0.3933  0.0723  1.2606
  346MOL    C6842158   1.635   0.317   6.568 -0.0633 -0.0993 -0.1439
  346MOL    C6942159   1.719   0.284   6.458 -0.5199 -0.4712  0.7872
  346MOL    F7042160   1.649   0.207   6.380 -0.6757  0.0908  0.3707
  346MOL    H7142161   1.584   0.226   6.601  1.4908 -0.9354 -0.0369
  346MOL    H7242162   1.558   0.385   6.531  0.6973 -0.2513 -2.0635
  346MOL    H7342163   1.800   0.218   6.487  1.3267  2.1241  1.7064
  346MOL    C7442164   1.769   0.409   6.379  0.5111 -0.4327 -0.0302
  346MOL    C7542165   1.879   0.386   6.276 -0.6175  0.3795 -0.1990
  346MOL    F7642166   1.982   0.343   6.347 -0.2055 -0.7287  0.1566
  346MOL    H7742167   1.680   0.453   6.333  1.4914  0.4888 -1.0643
  346MOL    H7842168   1.803   0.481   6.453 -1.9894  1.8378 -0.9883
  346MOL    H7942169   1.915   0.480   6.234 -0.4911  0.2982 -0.2724
  346MOL    C8042170   1.843   0.286   6.161  0.5575 -0.5300 -0.0773
  346MOL    C8142171   1.717   0.314   6.082  0.3982 -0.5188  0.5867
  346MOL    F8242172   1.726   0.419   5.996  0.3395  0.0946 -0.7435
  346MOL    H8342173   1.923   0.282   6.087 -0.9462  3.9585 -2.0827
  346MOL    H8442174   1.834   0.185   6.201 -0.6957 -0.1221  0.6852
  346MOL    H8542175   1.637   0.334   6.154  0.3545  0.8521  0.1687
  346MOL    C8642176   1.656   0.194   6.001  0.0151  0.5089  0.2655
  346MOL    C8742177   1.503   0.210   5.959 -0.7309  0.1818 -0.7215
  346MOL    F8842178   1.430   0.222   6.071  0.0913  0.0666  0.2698
  346MOL    H8942179   1.711   0.179   5.908  1.0469  3.0210  0.4363
  346MOL    H9042180   1.675   0.099   6.051  0.3347  0.5213  0.1697
  346MOL    H9142181   1.470   0.117   5.913 -1.0117 -0.5816  0.9631
  346MOL    C9242182   1.482   0.335   5.868  0.2002  0.3998  0.0458
  346MOL    C9342183   1.353   0.341   5.783 -0.8116 -0.0939 -0.1991
  346MOL    F9442184   1.254   0.319   5.865 -0.0467  0.1779  0.1921
  346MOL    H9542185   1.494   0.415   5.942 -2.9897 -0.7353  1.8642
  346MOL    H9642186   1.558   0.327   5.791  0.3668 -3.5368  0.5129
  346MOL    H9742187   1.353   0.265   5.705  1.0627  1.0561 -1.3613
  346MOL    C9842188   1.328   0.476   5.717  0.8032 -0.7205 -0.6542
  346MOL    C9942189   1.437   0.532   5.623  0.2670  0.1112 -1.0093
  346MOL   F10042190   1.502   0.437   5.550  0.0563 -0.5288 -0.1360
  346MOL   H10142191   1.233   0.469   5.665 -0.3949 -0.4538  1.4441
  346MOL   H10242192   1.323   0.554   5.794  0.9179 -0.9545 -0.4092
  346MOL   H10342193   1.513   0.588   5.678 -1.0823  0.0749  0.9460
  346MOL   C10442194   1.378   0.618   5.512  0.2058 -0.1937  0.0687
  346MOL   C10542195   1.305   0.745   5.577  0.2477 -0.0026 -0.0287
  346MOL   F10642196   1.406   0.821   5.620  0.2883 -0.4538  0.0144
  346MOL   H10742197   1.464   0.656   5.456 -1.5563  1.3694 -1.6330
  346MOL   H10842198   1.314   0.553   5.453  0.2025 -0.3483  0.2426
  346MOL   H10942199   1.243   0.719   5.663  1.2855  2.7974  1.6623
  346MOL   C11042200   1.220   0.822   5.472  0.3189  0.3578 -0.4746
  346MOL   C11142201   1.104   0.900   5.527 -0.5319  0.8208 -0.3739
  346MOL   F11242202   1.012   0.812   5.569 -0.0181  0.3990  0.5452
  346MOL   H11342203   1.289   0.895   5.429 -0.3195  2.0515  1.3094
  346MOL   H11442204   1.190   0.755   5.392  0.9032 -1.1374  0.5459
  346MOL   H11542205   1.048   0.948   5.447 -2.4431 -0.4317  0.1726
  346MOL   C11642206   1.134   1.003   5.638 -0.3736  0.6847 -0.4241
  346MOL   C11742207   1.018   1.108   5.661 -0.3657  0.0845  0.0394
  346MOL   F11842208   1.007   1.187   5.551 -0.1889  0.6849  0.0585
  346MOL   H11942209   1.168   0.955   5.729 -2.9030  1.1567  0.8194
  346MOL   H12042210   1.224   1.060   5.614 -0.3260  0.4097 -0.9173
  346MOL   H12142211   1.039   1.172   5.747  0.3496  0.3519 -0.3303
  346MOL   H12242212   0.920   1.062   5.675  0.2000 -1.6638 -1.5544
  347MOL     C142213   0.196   3.392   3.234 -0.1605  0.6001 -0.4003
  347MOL     C242214   0.177   3.540   3.225 -0.1814 -0.1504 -0.1147
  347MOL     F342215   0.126   3.589   3.340  0.1939 -0.0588 -0.4240
  347MOL     H442216   0.232   3.366   3.334 -1.1392  2.4947  0.4716
  347MOL     H542217   0.274   3.354   3.167 -0.3861 -1.9011  0.7098
  347MOL     H642218   0.105   3.566   3.147  1.9717  1.9493 -1.4688
  347MOL     H742219   0.105   3.334   3.225  0.7710 -0.5884 -2.5061
  347MOL     C842220   0.308   3.604   3.217 -0.3635  0.7450  0.3536
  347MOL     C942221   0.311   3.755   3.191 -0.7093 -0.2548 -0.4042
  347MOL    F1042222   0.432   3.801   3.208  0.3331  0.0762  0.4741
  347MOL    H1142223   0.365   3.596   3.310 -1.4003  0.6547  0.9801
  347MOL    H1242224   0.368   3.540   3.153 -2.7154 -0.9452 -0.1981
  347MOL    H1342225   0.247   3.804   3.264 -0.9781 -1.5323  0.2368
  347MOL    C1442226   0.271   3.801   3.052 -0.4726  0.4808  0.0160
  347MOL    C1542227   0.273   3.952   3.025  0.4160 -0.2522  0.5435
  347MOL    F1642228   0.396   3.992   3.020  0.1055 -0.3499 -0.0563
  347MOL    H1742229   0.350   3.771   2.983 -0.2217  1.1648  0.0014
  347MOL    H1842230   0.178   3.752   3.024 -0.4969 -0.3719  1.5175
  347MOL    H1942231   0.222   3.993   3.112  0.2664 -2.1206  1.3617
  347MOL    C2042232   0.223   3.998   2.887  0.3073 -0.2134  0.2742
  347MOL    C2142233   0.223   4.149   2.866 -0.2860 -0.5479 -0.7913
  347MOL    F2242234   0.184   4.181   2.743  0.4022  0.1457  0.4179
  347MOL    H2342235   0.292   3.956   2.813  0.2752  1.8050 -0.9336
  347MOL    H2442236   0.124   3.955   2.876 -0.1758  0.7609  0.7539
  347MOL    H2542237   0.321   4.189   2.892  0.1785 -1.6420 -0.8481
  347MOL    C2642238   0.114   4.209   2.950  0.3437  0.4069  0.6766
  347MOL    C2742239   0.080   4.355   2.922 -0.1405 -0.6281  0.3317
  347MOL    F2842240   7.980   4.392   3.015  0.3107  0.0572  0.4818
  347MOL    H2942241   0.025   4.147   2.937  0.9646 -0.4616  0.4983
  347MOL    H3042242   0.143   4.187   3.053 -0.5480 -4.2925  0.0388
  347MOL    H3142243   0.030   4.367   2.826 -1.5859 -1.0533  1.0289
  347MOL    C3242244   0.194   4.456   2.932 -0.5020 -1.1728  0.2794
  347MOL    C3342245   0.264   4.503   2.800 -0.1572 -0.2749 -0.1733
  347MOL    F3442246   0.169   4.557   2.728  0.2207  0.0393 -0.1278
  347MOL    H3542247   0.146   4.543   2.976  1.1690  0.4483 -1.0631
  347MOL    H3642248   0.271   4.423   3.001 -1.1624  0.0309  1.6172
  347MOL    H3742249   0.302   4.414   2.749 -1.4509 -1.8198  1.5089
  347MOL    C3842250   0.370   4.607   2.822 -0.3227  0.4216  0.2680
  347MOL    C3942251   0.396   4.697   2.700 -0.6285  0.6778 -0.1123
  347MOL    F4042252   0.475   4.789   2.749  0.2787  0.3456  0.3625
  347MOL    H4142253   0.327   4.663   2.904 -1.5942 -0.8482  0.4900
  347MOL    H4242254   0.469   4.562   2.837 -0.8054 -1.3284 -1.6084
  347MOL    H4342255   0.302   4.737   2.663 -1.4546 -2.5663 -1.8094
  347MOL    C4442256   0.451   4.624   2.573 -0.1671  0.0053  0.0342
  347MOL    C4542257   0.496   4.725   2.467  0.2929  0.7373  1.0218
  347MOL    F4642258   0.529   4.654   2.354  0.3919 -0.2504  0.5387
  347MOL    H4742259   0.530   4.553   2.597 -0.5895 -0.3857  0.2677
  347MOL    H4842260   0.368   4.570   2.527 -1.5358  0.5478  1.8284
  347MOL    H4942261   0.590   4.759   2.510  2.9324 -3.6319 -0.9247
  347MOL    C5042262   0.399   4.836   2.428  0.5478 -0.0328 -0.3036
  347MOL    C5142263   0.448   4.926   2.310 -0.1258 -0.0001  0.1540
  347MOL    F5242264   0.375   5.031   2.293  0.3265  0.3099  0.6531
  347MOL    H5342265   0.304   4.790   2.402 -0.3113  0.8736  1.0887
  347MOL    H5442266   0.381   4.897   2.517 -0.1916 -1.6127  0.6511
  347MOL    H5542267   0.432   4.868   2.220  1.2025 -1.4240  0.8205
  347MOL    C5642268   0.591   4.982   2.333  0.1549  0.3046 -0.4065
  347MOL    C5742269   0.703   4.913   2.254 -0.2192  0.2720  0.3736
  347MOL    F5842270   0.696   4.944   2.124  0.2570  0.6927  0.1635
  347MOL    H5942271   0.599   5.086   2.301  2.6419  0.4104  0.5010
  347MOL    H6042272   0.626   4.995   2.435 -0.3485  2.4426 -0.4765
  347MOL    H6142273   0.688   4.805   2.255  0.5082  0.1641 -0.0602
  347MOL    C6242274   0.847   4.927   2.307  0.9027 -0.7611  0.4052
  347MOL    C6342275   0.867   4.872   2.445 -0.1299 -0.0760  0.1717
  347MOL    F6442276   0.831   4.750   2.467 -0.3997  0.1802 -0.1244
  347MOL    H6542277   0.923   4.880   2.246  0.5609 -0.0942 -0.5568
  347MOL    H6642278   0.859   5.035   2.297 -1.3966 -0.6558 -1.6896
  347MOL    H6742279   0.803   4.932   2.509  0.4752  1.9958 -1.1121
  347MOL    C6842280   1.012   4.877   2.487  0.2922 -0.4857 -0.4396
  347MOL    C6942281   1.037   4.890   2.644 -0.4249  0.1233 -0.7173
  347MOL    F7042282   0.992   5.012   2.674  0.0391 -0.1213  0.2011
  347MOL    H7142283   1.070   4.787   2.464 -0.4522 -1.6722  2.0846
  347MOL    H7242284   1.062   4.959   2.435  0.5407 -0.6563 -0.4724
  347MOL    H7342285   1.142   4.899   2.672 -0.2666 -1.2042 -0.8581
  347MOL    C7442286   0.956   4.799   2.742 -0.1632 -1.4787 -0.2087
  347MOL    C7542287   1.012   4.652   2.733 -0.4513  1.1324 -0.4108
  347MOL    F7642288   1.142   4.646   2.770  0.3484 -0.3765  0.1411
  347MOL    H7742289   0.974   4.831   2.845  3.5317  0.8957 -1.4841
  347MOL    H7842290   0.849   4.802   2.722  0.1795 -0.1866 -1.9761
  347MOL    H7942291   1.005   4.616   2.631  0.0674 -1.7381  0.5417
  347MOL    C8042292   0.926   4.553   2.818  0.2911 -0.7290  0.1372
  347MOL    C8142293   0.810   4.486   2.753 -0.6334  0.3974  0.2077
  347MOL    F8242294   0.854   4.419   2.645  0.9282 -0.1018 -0.4783
  347MOL    H8342295   0.993   4.478   2.861  1.2190 -0.4568 -0.7912
  347MOL    H8442296   0.890   4.601   2.909  0.1225  0.4015 -0.5142
  347MOL    H8542297   0.741   4.564   2.721 -0.5988  1.2104  2.0657
  347MOL    C8642298   0.738   4.385   2.840 -0.1489  0.0433  0.1533
  347MOL    C8742299   0.797   4.243   2.859  0.0575  0.1803  0.1513
  347MOL    F8842300   0.911   4.262   2.922  0.6816 -0.3365 -0.5917
  347MOL    H8942301   0.735   4.435   2.937  3.5128  0.3463  0.2027
  347MOL    H9042302   0.638   4.388   2.797 -1.4339  1.8993  3.1048
  347MOL    H9142303   0.812   4.183   2.769 -1.2199 -2.8094  1.8576
  347MOL    C9242304   0.712   4.162   2.956  0.3030  0.6229  0.0384
  347MOL    C9342305   0.721   4.009   2.947  0.1962  0.4552  0.0699
  347MOL    F9442306   0.673   3.990   2.824 -0.3833 -0.1619 -0.0998
  347MOL    H9542307   0.719   4.196   3.059  0.8584 -2.8688  1.2052
  347MOL    H9642308   0.608   4.189   2.937  0.7433  2.3813 -0.0181
  347MOL    H9742309   0.649   3.966   3.017  0.0509  1.7770  0.7473
  347MOL    C9842310   0.853   3.938   2.964 -0.5056  0.0259  0.0394
  347MOL    C9942311   0.918   3.951   3.103  0.4605 -0.7950 -0.1944
  347MOL   F10042312   0.826   3.949   3.205 -0.4160  0.3858 -0.1088
  347MOL   H10142313   0.852   3.835   2.929  1.6731  0.3027 -0.9342
  347MOL   H10242314   0.921   3.987   2.894  0.3588 -0.6071  0.4333
  347MOL   H10342315   0.960   4.051   3.092 -1.0786 -0.2834 -1.8628
  347MOL   C10442316   1.037   3.867   3.140 -0.5568 -0.4516 -0.1328
  347MOL   C10542317   0.997   3.729   3.182  0.2741 -0.3795 -0.2050
  347MOL   F10642318   0.921   3.665   3.096  0.0142  0.0535 -0.4641
  347MOL   H10742319   1.097   3.855   3.050 -0.5453 -0.1170 -0.1697
  347MOL   H10842320   1.111   3.911   3.207 -0.3954 -1.4911  0.3806
  347MOL   H10942321   0.932   3.739   3.269 -1.6272 -1.6010 -1.4489
  347MOL   C11042322   1.123   3.650   3.215 -0.6462 -0.1167 -0.3965
  347MOL   C11142323   1.229   3.710   3.311  0.0274  0.0282  0.3543
  347MOL   F11242324   1.167   3.737   3.420 -0.1809 -0.2791 -0.0716
  347MOL   H11342325   1.091   3.559   3.266 -0.2117 -0.4724 -0.7529
  347MOL   H11442326   1.165   3.601   3.127  0.5404  1.1488 -0.5506
  347MOL   H11542327   1.275   3.800   3.272  1.6736 -0.6351  0.7167
  347MOL   C11642328   1.347   3.624   3.346 -0.1055  0.3640 -0.0341
  347MOL   C11742329   1.465   3.691   3.419 -0.6282 -0.6643  0.4530
  347MOL   F11842330   1.573   3.676   3.349 -0.4591  0.2214  0.1851
  347MOL   H11942331   1.317   3.532   3.396  0.9332  0.0795  0.0821
  347MOL   H12042332   1.398   3.575   3.263  0.1086 -0.1589  0.4019
  347MOL   H12142333   1.477   3.633   3.511 -0.2975 -0.4240  0.5609
  347MOL   H12242334   1.437   3.795   3.430  1.0261  0.0790 -1.9372
  348MOL     C142335   2.937   7.767   7.105  0.8296  0.4543  0.4268
  348MOL     C242336   3.074   7.751   7.031 -0.3102 -0.2401 -0.5040
  348MOL     F342337   3.049   7.834   6.930  0.0594  0.4133  0.7469
  348MOL     H442338   2.846   7.754   7.045 -0.9847  0.2026  3.1251
  348MOL     H542339   2.942   7.864   7.155  1.9979  0.5935  0.0487
  348MOL     H642340   3.088   7.648   6.999 -1.2002  0.0620 -1.8892
  348MOL     H742341   2.933   7.693   7.185  1.8290  1.7132  1.6528
  348MOL     C842342   3.190   7.806   7.115 -0.4252 -0.4309  0.0706
  348MOL     C942343   3.232   7.718   7.237 -0.5402  0.1451 -0.0653
  348MOL    F1042344   3.270   7.596   7.192  0.2037 -0.0763  0.2435
  348MOL    H1142345   3.279   7.832   7.058 -0.6780  0.9626  0.2952
  348MOL    H1242346   3.159   7.903   7.152  2.5941  1.0670 -1.1547
  348MOL    H1342347   3.143   7.703   7.298 -0.3130 -0.9390  0.0184
  348MOL    C1442348   3.341   7.782   7.318 -0.4426 -0.1571  0.1470
  348MOL    C1542349   3.351   7.718   7.456  0.0566  0.3586 -0.4480
  348MOL    F1642350   3.380   7.589   7.442 -0.7579  0.0956 -0.0179
  348MOL    H1742351   3.440   7.786   7.272  0.2431 -0.5812  1.5548
  348MOL    H1842352   3.322   7.887   7.337 -0.0995  0.6305 -3.4617
  348MOL    H1942353   3.257   7.721   7.512  0.3668  0.3006  0.0854
  348MOL    C2042354   3.466   7.774   7.529 -0.6294 -0.1288 -0.0237
  348MOL    C2142355   3.485   7.719   7.670  0.2341  1.0472 -0.5198
  348MOL    F2242356   3.373   7.750   7.732 -0.3086 -0.2601  0.1590
  348MOL    H2342357   3.559   7.761   7.473  0.3494  2.3197  0.9651
  348MOL    H2442358   3.449   7.881   7.537  0.2732 -0.0570  0.9935
  348MOL    H2542359   3.561   7.773   7.726  0.1032  0.4560  0.2437
  348MOL    C2642360   3.518   7.562   7.672 -0.3866  0.2572  0.1522
  348MOL    C2742361   3.572   7.526   7.814 -0.0360 -1.4553  0.1459
  348MOL    F2842362   3.555   7.396   7.840 -0.3793  0.0324  0.1114
  348MOL    H2942363   3.421   7.514   7.657 -0.0694 -0.4997  0.4951
  348MOL    H3042364   3.582   7.530   7.591 -0.0793  0.2290  0.4040
  348MOL    H3142365   3.505   7.576   7.885 -0.1087 -1.3734  0.0190
  348MOL    C3242366   3.712   7.570   7.838 -1.0314  0.1626 -0.1909
  348MOL    C3342367   3.735   7.535   7.989  0.1873  0.5761 -0.1146
  348MOL    F3442368   3.867   7.534   0.005 -0.3492 -0.2806 -0.2605
  348MOL    H3542369   3.789   7.522   7.777  0.0373  3.1836 -1.3238
  348MOL    H3642370   3.733   7.673   7.811 -0.9139 -0.4183 -2.4301
  348MOL    H3742371   3.695   7.439   0.019  0.1416  0.4733 -0.4691
  348MOL    C3842372   3.680   7.644   0.080  0.3283 -0.6328 -0.1218
  348MOL    C3942373   3.732   7.792   0.049  0.5076  0.1167 -0.3206
  348MOL    F4042374   3.662   7.849   7.959 -0.5787  0.4405  0.3525
  348MOL    H4142375   3.571   7.641   0.078  0.2309  1.3694 -4.4678
  348MOL    H4242376   3.711   7.621   0.181  1.9025 -1.4185 -0.7573
  348MOL    H4342377   3.837   7.794   0.023  0.5308 -0.4233 -0.2773
  348MOL    C4442378   3.721   7.888   0.169  0.4314 -0.1422  0.2479
  348MOL    C4542379   3.816   7.845   0.284  0.5189 -0.1566 -0.6370
  348MOL    F4642380   3.943   7.840   0.238  0.2902  0.0802 -0.0120
  348MOL    H4742381   3.728   7.990   0.132  1.7040 -0.4030 -0.2316
  348MOL    H4842382   3.618   7.890   0.206  1.0472 -1.0754  2.0962
  348MOL    H4942383   3.808   7.744   0.325  0.4307  0.7856  1.7277
  348MOL    C5042384   3.819   7.952   0.400 -0.8291 -0.0944  0.4096
  348MOL    C5142385   3.705   7.928   0.501  0.2219  0.5033 -0.1971
  348MOL    F5242386   3.589   7.929   0.439 -0.0213  0.1353 -0.0083
  348MOL    H5342387   3.911   7.976   0.454 -0.9210  0.7578  0.1914
  348MOL    H5442388   3.804   0.040   0.342  0.0120 -0.6387 -0.6689
  348MOL    H5542389   3.699   0.007   0.573  0.4511  1.1162 -0.8622
  348MOL    C5642390   3.709   7.790   0.568 -0.3847 -0.2899 -0.5597
  348MOL    C5742391   3.635   7.765   0.703 -0.2047  0.2082 -0.1815
  348MOL    F5842392   3.510   7.802   0.698 -0.4403 -0.4443  0.2779
  348MOL    H5942393   3.679   7.713   0.497 -1.7624  0.1947 -0.5102
  348MOL    H6042394   3.810   7.760   0.596 -0.0291  0.9072 -0.5195
  348MOL    H6142395   3.689   7.839   0.762  1.9385  0.7789 -2.7536
  348MOL    C6242396   3.643   7.622   0.750  0.3371  0.3060 -0.3853
  348MOL    C6342397   3.573   7.591   0.878 -0.7384  0.4691 -0.3285
  348MOL    F6442398   3.450   7.637   0.870 -0.3175 -0.0576 -0.4606
  348MOL    H6542399   3.594   7.572   0.666  0.0346  2.0765 -1.2813
  348MOL    H6642400   3.746   7.584   0.754  0.1620 -0.2637 -1.1929
  348MOL    H6742401   3.614   7.659   0.952 -0.5384  1.1273 -1.0342
  348MOL    C6842402   3.579   7.445   0.913 -0.2531 -0.0562 -0.0873
  348MOL    C6942403   3.468   7.391   1.007 -0.0501  0.0762 -0.4193
  348MOL    F7042404   3.497   7.261   1.024  0.1887 -0.3247  0.0201
  348MOL    H7142405   3.567   7.385   0.823  1.0102  0.0154 -0.3212
  348MOL    H7242406   3.676   7.431   0.962 -0.2206  0.0935 -0.1096
  348MOL    H7342407   3.371   7.403   0.960  0.5966  1.9995 -1.3206
  348MOL    C7442408   3.483   7.454   1.151 -0.0899  0.2141  0.5856
  348MOL    C7542409   3.390   7.395   1.261 -0.4832  0.0787  0.1384
  348MOL    F7642410   3.452   7.418   1.370 -0.5055  0.3257  0.1232
  348MOL    H7742411   3.587   7.444   1.181 -0.5139  0.4222  2.2068
  348MOL    H7842412   3.470   7.562   1.156 -1.6893  0.2437 -2.8291
  348MOL    H7942413   3.407   7.288   1.247 -0.3305  0.2275 -0.8033
  348MOL    C8042414   3.243   7.438   1.253  0.1622  0.4520  0.9273
  348MOL    C8142415   3.159   7.363   1.359 -0.4494 -0.1680  0.1891
  348MOL    F8242416   3.194   7.416   1.476 -0.3155  0.5309 -0.3798
  348MOL    H8342417   3.244   7.545   1.274  2.6492  1.3763 -3.1555
  348MOL    H8442418   3.202   7.438   1.151 -1.5997  1.2878  1.6197
  348MOL    H8542419   3.183   7.257   1.363 -2.8555 -0.7412  0.1129
  348MOL    C8642420   3.003   7.392   1.344  0.1185 -0.1085 -0.4191
  348MOL    C8742421   2.909   7.280   1.390  0.3656  0.2826  0.1342
  348MOL    F8842422   2.937   7.169   1.319  0.0219  0.6478  0.3480
  348MOL    H8942423   2.975   7.490   1.382  0.4826 -0.6701  1.3284
  348MOL    H9042424   2.992   7.407   1.237  1.3374  0.7256 -0.4361
  348MOL    H9142425   2.804   7.280   1.363  0.9098 -0.5224 -2.0633
  348MOL    C9242426   2.911   7.256   1.541  0.3784  0.2490  0.0752
  348MOL    C9342427   2.866   7.373   1.631 -0.0349  0.5955  0.4095
  348MOL    F9442428   2.747   7.417   1.601  0.4077  0.2055  0.5936
  348MOL    H9542429   2.868   7.159   1.566  0.8806 -0.2270 -0.8726
  348MOL    H9642430   3.014   7.236   1.568  0.5199  0.5665 -0.2189
  348MOL    H9742431   2.934   7.455   1.609 -0.9257  1.2257 -0.0363
  348MOL    C9842432   2.860   7.337   1.780  0.6348  0.1832  0.6423
  348MOL    C9942433   2.984   7.288   1.851  0.3803  0.2891 -0.6586
  348MOL   F10042434   3.052   7.401   1.875  0.6673  0.0775  0.1224
  348MOL   H10142435   2.809   7.418   1.831 -2.9261 -1.0866 -0.7725
  348MOL   H10242436   2.785   7.259   1.787  1.5424 -0.6019  1.8386
  348MOL   H10342437   3.046   7.219   1.794  0.7186  0.4015 -0.4344
  348MOL   C10442438   2.947   7.233   1.989  0.8149  0.5532 -0.4380
  348MOL   C10542439   3.061   7.178   2.070  0.0074  0.8140 -0.4175
  348MOL   F10642440   3.153   7.274   2.092 -0.1601  0.7055  0.2536
  348MOL   H10742441   2.896   7.314   2.041 -0.2341  1.3118 -2.5944
  348MOL   H10842442   2.872   7.153   1.992  2.5974 -1.1177  2.7796
  348MOL   H10942443   3.111   7.101   2.011 -0.8790 -0.4142  0.4193
  348MOL   C11042444   3.042   7.111   2.208 -0.0091  0.2780  0.7444
  348MOL   C11142445   2.943   6.994   2.212 -0.2177 -0.0325  0.0483
  348MOL   F11242446   2.964   6.902   2.115 -0.0286 -0.5701 -0.1452
  348MOL   H11342447   3.135   7.065   2.241  0.6224  0.7438 -0.3531
  348MOL   H11442448   3.015   7.194   2.274  4.8582  3.5617 -1.1325
  348MOL   H11542449   2.841   7.030   2.195  0.2472  1.4339  0.3377
  348MOL   C11642450   2.953   6.909   2.341 -0.1039 -0.5782  0.1560
  348MOL   C11742451   2.919   6.998   2.462  0.1422 -0.1301  0.2460
  348MOL   F11842452   2.798   7.062   2.449 -0.2742  0.2627 -0.3400
  348MOL   H11942453   2.888   6.821   2.335 -0.4402 -0.3762  0.7815
  348MOL   H12042454   3.057   6.877   2.346  1.2110  3.1042 -2.0241
  348MOL   H12142455   3.003   7.065   2.479 -0.3238  1.2536 -2.6693
  348MOL   H12242456   2.926   6.944   2.557 -0.4979  0.5142  0.6692
  349MOL     C142457   4.255   5.491   3.757 -0.8834 -0.1084 -0.5477
  349MOL     C242458   4.124   5.415   3.784  0.2326 -0.6897  0.4005
  349MOL     F342459   4.026   5.457   3.706  0.4177 -0.1823  0.1948
  349MOL     H442460   4.260   5.512   3.650 -2.5171 -1.1929 -0.8580
  349MOL     H542461   4.344   5.443   3.799 -1.1578 -1.0263 -0.9896
  349MOL     H642462   4.090   5.419   3.888 -0.1979 -0.8401  0.2694
  349MOL     H742463   4.245   5.588   3.805  0.0580 -1.1931  1.9265
  349MOL     C842464   4.125   5.263   3.757  0.5042 -0.2531 -0.4346
  349MOL     C942465   3.998   5.186   3.790 -0.4454  0.6277 -0.5590
  349MOL    F1042466   3.977   5.204   3.922  0.4929 -0.5014  0.1320
  349MOL    H1142467   4.142   5.262   3.650  2.1361  0.8958 -0.2086
  349MOL    H1242468   4.203   5.205   3.807 -0.1951 -0.5712  0.3049
  349MOL    H1342469   4.009   5.078   3.779 -1.8253  0.1258  2.4475
  349MOL    C1442470   3.860   5.224   3.733 -0.3678  0.4357  0.1820
  349MOL    C1542471   3.857   5.222   3.581 -0.5540 -0.0000 -0.8137
  349MOL    F1642472   3.878   5.095   3.543 -0.5032  0.0288 -0.8011
  349MOL    H1742473   3.800   5.139   3.765 -0.3542 -0.0626 -1.0769
  349MOL    H1842474   3.823   5.318   3.775 -0.1387  1.1706 -1.2204
  349MOL    H1942475   3.939   5.286   3.548  0.3917 -0.8095 -0.0605
  349MOL    C2042476   3.725   5.263   3.524 -0.2042 -0.0057 -0.1543
  349MOL    C2142477   3.694   5.412   3.534 -0.2026  0.3902 -0.3308
  349MOL    F2242478   3.789   5.478   3.471  0.0963 -0.1753  0.1586
  349MOL    H2342479   3.721   5.232   3.419 -2.7263  1.1352 -0.4193
  349MOL    H2442480   3.650   5.200   3.570 -1.7245  0.8769 -1.3733
  349MOL    H2542481   3.712   5.453   3.633 -1.6725  0.3644 -0.0273
  349MOL    C2642482   3.556   5.468   3.479 -0.1912 -0.4055  0.5905
  349MOL    C2742483   3.438   5.445   3.578  0.7636  0.3994  0.2400
  349MOL    F2842484   3.460   5.509   3.690 -0.0200  0.2226  0.2269
  349MOL    H2942485   3.560   5.574   3.454  0.9542 -0.8403 -1.1135
  349MOL    H3042486   3.530   5.433   3.379  0.7979 -1.5462  0.7307
  349MOL    H3142487   3.439   5.342   3.615 -0.8769  0.0023 -0.7534
  349MOL    C3242488   3.297   5.480   3.522 -0.5599  0.3573  0.3903
  349MOL    C3342489   3.173   5.440   3.610 -0.4305  0.4911 -0.2193
  349MOL    F3442490   3.199   5.332   3.688  0.1535  0.1673  0.1532
  349MOL    H3542491   3.300   5.581   3.482  2.8869 -0.2806 -1.1951
  349MOL    H3642492   3.300   5.420   3.431 -1.6912 -1.3051  1.4212
  349MOL    H3742493   3.093   5.411   3.541 -0.3392  2.0850 -1.0291
  349MOL    C3842494   3.124   5.550   3.709  0.8105 -0.7784  0.0872
  349MOL    C3942495   2.980   5.527   3.756  0.4103  0.2176 -0.4739
  349MOL    F4042496   2.958   5.608   3.857  0.1441 -0.0437 -0.4801
  349MOL    H4142497   3.184   5.548   3.799 -2.6658 -1.8374  2.4805
  349MOL    H4242498   3.128   5.654   3.678 -1.1268 -0.3945  1.0933
  349MOL    H4342499   2.964   5.427   3.796 -1.7646  0.0450 -1.7074
  349MOL    C4442500   2.867   5.544   3.647 -0.5357 -0.2554  0.1111
  349MOL    C4542501   2.720   5.552   3.701 -0.5607  0.3765 -0.5043
  349MOL    F4642502   2.632   5.537   3.607  0.3289  0.0666  0.0977
  349MOL    H4742503   2.878   5.639   3.594  1.3517 -0.1915  0.5597
  349MOL    H4842504   2.874   5.454   3.586 -0.7444  0.1113 -0.4556
  349MOL    H4942505   2.705   5.648   3.750  0.2602 -0.5569  1.6656
  349MOL    C5042506   2.683   5.442   3.803  0.6352 -0.3454 -0.7123
  349MOL    C5142507   2.559   5.478   3.883 -0.1026 -0.4504  0.0046
  349MOL    F5242508   2.454   5.475   3.803  0.3375 -0.0109  0.3686
  349MOL    H5342509   2.662   5.346   3.756  2.1438 -0.9554 -0.1723
  349MOL    H5442510   2.765   5.427   3.873 -0.5638 -2.1884  0.3607
  349MOL    H5542511   2.570   5.576   3.929  0.7649 -0.6832  0.3009
  349MOL    C5642512   2.521   5.370   3.994  0.2608 -0.8511 -0.7249
  349MOL    C5742513   2.393   5.392   4.073  0.0336 -0.4013  0.2939
  349MOL    F5842514   2.286   5.377   3.986  0.6360  0.4697  0.2467
  349MOL    H5942515   2.508   5.269   3.955  0.1484 -1.0455 -0.1884
  349MOL    H6042516   2.602   5.376   4.067 -0.7685  0.8052  0.3162
  349MOL    H6142517   2.394   5.489   4.124  1.4291  0.2350 -0.9062
  349MOL    C6242518   2.374   5.288   4.182 -0.7268  0.0319 -0.1891
  349MOL    C6342519   2.489   5.297   4.287 -0.9545  0.8189 -0.1635
  349MOL    F6442520   2.427   5.283   4.402  0.0233 -0.2581 -0.1660
  349MOL    H6542521   2.275   5.315   4.218 -1.2881  0.2138 -1.8056
  349MOL    H6642522   2.372   5.188   4.138 -1.4083  0.2864 -0.7428
  349MOL    H6742523   2.541   5.393   4.295  1.0597 -0.2427 -0.0997
  349MOL    C6842524   2.590   5.183   4.253 -0.3791 -0.0961 -0.6188
  349MOL    C6942525   2.710   5.168   4.349 -0.3838 -0.1438 -0.0828
  349MOL    F7042526   2.757   5.048   4.334 -0.3256  0.1799  0.1108
  349MOL    H7142527   2.527   5.096   4.266 -1.9756  1.0914 -0.2065
  349MOL    H7242528   2.632   5.170   4.154 -0.8421 -3.1285 -0.4422
  349MOL    H7342529   2.673   5.173   4.451 -0.1146  0.1233  0.0019
  349MOL    C7442530   2.813   5.277   4.328 -0.8094 -0.1731  0.2918
  349MOL    C7542531   2.884   5.278   4.189 -0.2340  0.3484 -0.1485
  349MOL    F7642532   2.797   5.335   4.111 -0.2631  0.0393 -0.4645
  349MOL    H7742533   2.768   5.374   4.348 -1.0079  0.2022 -1.9225
  349MOL    H7842534   2.888   5.270   4.407  0.5495  1.6273 -0.8150
  349MOL    H7942535   2.910   5.178   4.155 -0.9222  0.3036 -0.5463
  349MOL    C8042536   3.013   5.355   4.198 -0.1455 -0.4595 -0.4626
  349MOL    C8142537   3.122   5.304   4.099  0.2648 -0.5398  0.1588
  349MOL    F8242538   3.072   5.283   3.982  0.1100  0.1929 -0.0867
  349MOL    H8342539   2.991   5.460   4.212  3.5251  0.1118  1.5337
  349MOL    H8442540   3.057   5.336   4.296  1.9012 -1.9210 -1.6162
  349MOL    H8542541   3.172   5.212   4.131  0.1887 -0.8686 -0.6399
  349MOL    C8642542   3.220   5.417   4.084 -0.1319 -0.4234 -1.1414
  349MOL    C8742543   3.337   5.385   3.994 -0.2102  0.4537  0.4317
  349MOL    F8842544   3.409   5.500   3.980  0.9049 -0.1262 -0.3510
  349MOL    H8942545   3.162   5.501   4.046 -1.8937 -1.4522 -0.8028
  349MOL    H9042546   3.258   5.437   4.184  0.2386  0.7677 -1.5166
  349MOL    H9142547   3.300   5.360   3.894  0.2216  1.3824  0.0300
  349MOL    C9242548   3.428   5.277   4.060 -0.2820  0.4958 -0.2542
  349MOL    C9342549   3.531   5.218   3.963  0.2967 -0.0819 -0.0491
  349MOL    F9442550   3.605   5.129   4.030 -0.7282 -0.0385 -0.4684
  349MOL    H9542551   3.484   5.322   4.142 -1.2505  1.7256 -0.2456
  349MOL    H9642552   3.377   5.189   4.100  1.8482 -1.3682 -1.5145
  349MOL    H9742553   3.594   5.296   3.920 -0.4905  0.4872 -0.1664
  349MOL    C9842554   3.475   5.144   3.846 -0.4433 -0.4833  0.2498
  349MOL    C9942555   3.378   5.031   3.880  0.5750  0.8452  0.4515
  349MOL   F10042556   3.267   5.076   3.937  0.3181 -0.0551 -0.2526
  349MOL   H10142557   3.421   5.211   3.779  0.6604 -0.5259 -0.6997
  349MOL   H10242558   3.561   5.111   3.787 -1.1388 -0.6439 -0.6858
  349MOL   H10342559   3.429   4.964   3.949  1.3771  1.5554  0.5514
  349MOL   C10442560   3.321   4.957   3.752 -0.6265  0.2478 -0.5775
  349MOL   C10542561   3.244   4.827   3.773  0.5094 -0.5860  0.8459
  349MOL   F10642562   3.326   4.733   3.826  0.3577 -0.2479  0.1214
  349MOL   H10742563   3.277   5.027   3.680  0.1126  0.2724 -1.0181
  349MOL   H10842564   3.409   4.917   3.702  1.4113  3.2737  0.4532
  349MOL   H10942565   3.204   4.797   3.677 -0.2511 -0.1535  1.0240
  349MOL   C11042566   3.117   4.833   3.869  0.5361 -0.8013 -0.0941
  349MOL   C11142567   2.999   4.924   3.826 -0.5424 -0.0189 -0.5586
  349MOL   F11242568   2.961   4.889   3.708 -0.1232 -0.0769  0.1764
  349MOL   H11342569   3.081   4.732   3.888 -0.0642 -0.9012 -1.6926
  349MOL   H11442570   3.160   4.874   3.960  1.3388 -1.0664 -0.3451
  349MOL   H11542571   3.040   5.022   3.804  0.9155 -1.1578 -3.2141
  349MOL   C11642572   2.871   4.921   3.919 -0.5520  0.6191 -0.0741
  349MOL   C11742573   2.764   5.023   3.880  0.0160 -0.8258 -0.3275
  349MOL   F11842574   2.788   5.152   3.902 -0.1895  0.0348  0.6259
  349MOL   H11942575   2.833   4.820   3.907  2.0785 -0.2266 -1.7603
  349MOL   H12042576   2.900   4.944   4.022  4.9365  1.8590 -1.7199
  349MOL   H12142577   2.673   5.008   3.938  1.9099  2.1262  3.6171
  349MOL   H12242578   2.729   5.012   3.777  0.7055  2.4819 -0.9721
  350MOL     C142579   5.157   3.268   4.349  0.6090 -0.9846 -0.6215
  350MOL     C242580   5.214   3.341   4.473 -0.3759  0.2876  0.3110
  350MOL     F342581   5.341   3.320   4.446 -0.5138  0.0675  0.2541
  350MOL     H442582   5.050   3.292   4.344  1.1314  1.1451 -1.8867
  350MOL     H542583   5.154   3.166   4.386 -0.2159 -0.3658  1.1212
  350MOL     H642584   5.180   3.290   4.563 -2.8795 -0.2950 -0.9045
  350MOL     H742585   5.221   3.292   4.265  1.8476 -0.8464  0.3501
  350MOL     C842586   5.180   3.496   4.480 -0.7994 -0.3999  0.0660
  350MOL     C942587   5.261   3.572   4.596 -0.2679  0.0029 -0.6100
  350MOL    F1042588   5.386   3.574   4.555 -0.0525 -0.0529  0.5513
  350MOL    H1142589   5.193   3.560   4.393  1.2302  1.0439  1.3780
  350MOL    H1242590   5.073   3.500   4.498 -0.6631  0.8795  0.6066
  350MOL    H1342591   5.272   3.511   4.686  0.8288  1.0289 -0.0308
  350MOL    C1442592   5.214   3.714   4.624  0.2795  0.6940  0.0759
  350MOL    C1542593   5.081   3.726   4.694  0.1131  1.0437  0.2472
  350MOL    F1642594   5.088   3.653   4.804  0.5424  0.1131  0.0426
  350MOL    H1742595   5.289   3.764   4.685  0.5423  0.4613 -0.0551
  350MOL    H1842596   5.213   3.767   4.528 -0.8935  0.7381  0.1007
  350MOL    H1942597   5.001   3.677   4.639  0.8516  0.7789 -0.5981
  350MOL    C2042598   5.061   3.874   4.732  0.2267 -0.1206 -0.3327
  350MOL    C2142599   4.915   3.897   4.780 -0.3037  0.1707 -0.3024
  350MOL    F2242600   4.924   4.010   4.849 -0.1649 -0.4495 -0.8157
  350MOL    H2342601   5.140   3.893   4.805 -0.3328  0.9126  0.0205
  350MOL    H2442602   5.076   3.944   4.650 -3.3417 -0.4616 -1.3863
  350MOL    H2542603   4.892   3.828   4.861 -2.8315  0.5159 -0.7103
  350MOL    C2642604   4.803   3.903   4.670 -0.5113 -0.0189  0.2910
  350MOL    C2742605   4.667   3.937   4.734 -0.1055  0.0931  0.5557
  350MOL    F2842606   4.677   4.069   4.754  0.0208  0.0814 -0.0814
  350MOL    H2942607   4.828   3.960   4.581 -0.0977 -1.1099 -0.2944
  350MOL    H3042608   4.793   3.804   4.625  1.3726  0.0539 -0.2982
  350MOL    H3142609   4.651   3.886   4.829 -2.0619 -0.6700 -0.1619
  350MOL    C3242610   4.544   3.901   4.649  0.0792 -0.1361 -0.1944
  350MOL    C3342611   4.413   3.901   4.727 -0.0207  0.3002 -0.0006
  350MOL    F3442612   4.393   4.030   4.756 -0.0006  0.0126  0.1549
  350MOL    H3542613   4.533   3.975   4.570 -0.4171  1.4138  1.3055
  350MOL    H3642614   4.558   3.801   4.607  0.0311 -0.8227  1.3978
  350MOL    H3742615   4.429   3.843   4.818  0.7946  0.0953 -0.2696
  350MOL    C3842616   4.296   3.826   4.652  0.9993 -1.0143  0.3465
  350MOL    C3942617   4.229   3.903   4.535 -0.9385  0.1236 -0.2410
  350MOL    F4042618   4.307   3.893   4.427  0.0337  0.4499  0.0797
  350MOL    H4142619   4.315   3.727   4.612 -2.2761 -0.5213 -2.6828
  350MOL    H4242620   4.218   3.805   4.725  1.2258 -1.1535  0.5516
  350MOL    H4342621   4.212   4.010   4.549 -1.5904 -0.0673  0.5141
  350MOL    C4442622   4.086   3.856   4.491  0.1816 -0.0344  0.5207
  350MOL    C4542623   4.021   3.953   4.395  0.2245  0.0848  0.6927
  350MOL    F4642624   4.068   3.926   4.274 -0.3156 -0.4111  0.8486
  350MOL    H4742625   4.074   3.751   4.462 -0.9250  1.0790 -3.1959
  350MOL    H4842626   4.023   3.855   4.580 -1.2269 -0.1041 -0.4610
  350MOL    H4942627   4.042   4.056   4.421  0.3861 -0.1027  1.3173
  350MOL    C5042628   3.867   3.948   4.398  0.0368  0.1006  0.3779
  350MOL    C5142629   3.806   3.814   4.371  0.0814 -0.4122 -0.2295
  350MOL    F5242630   3.676   3.810   4.412 -0.1995  0.3150  0.0978
  350MOL    H5342631   3.832   3.982   4.495  1.8967  1.7464  0.5116
  350MOL    H5442632   3.823   4.019   4.328  1.1029 -1.1138 -1.6052
  350MOL    H5542633   3.859   3.732   4.418 -0.8814 -1.8167 -1.5603
  350MOL    C5642634   3.806   3.787   4.216 -0.1141 -0.6969 -0.5649
  350MOL    C5742635   3.754   3.645   4.176 -0.1347 -0.8947 -0.0684
  350MOL    F5842636   3.830   3.565   4.252  0.2697  0.0669  0.1841
  350MOL    H5942637   3.761   3.860   4.149 -0.2526  0.1570  0.4407
  350MOL    H6042638   3.912   3.783   4.192  0.8112 -0.8045  3.1893
  350MOL    H6142639   3.796   3.626   4.077 -0.7436  1.1699 -0.7466
  350MOL    C6242640   3.602   3.610   4.176 -0.4221  0.7376 -0.1345
  350MOL    C6342641   3.522   3.695   4.079 -0.0634 -0.0260 -0.9010
  350MOL    F6442642   3.562   3.671   3.954  0.0904 -0.1003  0.1431
  350MOL    H6542643   3.593   3.502   4.159 -0.3447  0.4435  1.5949
  350MOL    H6642644   3.554   3.615   4.274 -1.5760  0.2407 -0.6634
  350MOL    H6742645   3.540   3.801   4.089  1.0619 -0.3697  0.7701
  350MOL    C6842646   3.367   3.670   4.082  0.7797  0.9007  0.4356
  350MOL    C6942647   3.303   3.753   4.198  0.8576 -0.0292  0.5112
  350MOL    F7042648   3.355   3.734   4.317  0.3089  0.1156  0.2379
  350MOL    H7142649   3.312   3.669   3.989 -0.1633 -0.9515  0.9715
  350MOL    H7242650   3.365   3.568   4.121  1.8030  0.8091  0.2820
  350MOL    H7342651   3.199   3.727   4.218  1.1997 -0.9710  1.0866
  350MOL    C7442652   3.303   3.906   4.162  0.4304 -0.3561  0.0056
  350MOL    C7542653   3.181   3.983   4.217  0.0261  0.0798  0.1719
  350MOL    F7642654   3.067   3.952   4.162  0.6394  0.1503  0.2176
  350MOL    H7742655   3.399   3.948   4.192  1.1126 -0.9268 -1.2815
  350MOL    H7842656   3.294   3.918   4.054  1.7036 -2.7648 -0.4200
  350MOL    H7942657   3.199   4.089   4.197 -0.7631  0.3630  0.9203
  350MOL    C8042658   3.173   3.967   4.374  0.1355 -0.8086  0.4261
  350MOL    C8142659   3.100   4.079   4.452  0.1697 -0.1243 -0.2681
  350MOL    F8242660   2.973   4.067   4.425  0.0749  0.1050  0.1157
  350MOL    H8342661   3.123   3.876   4.406 -0.9786 -0.5147 -0.4012
  350MOL    H8442662   3.278   3.969   4.401  0.4114  1.2125 -0.6501
  350MOL    H8542663   3.134   4.174   4.411 -1.4472  0.5467 -0.0649
  350MOL    C8642664   3.107   4.076   4.607 -0.5950  0.0326  0.2282
  350MOL    C8742665   3.041   4.194   4.686 -0.8609 -0.5858 -0.3163
  350MOL    F8842666   3.006   4.144   4.806 -0.3238  0.6636  0.6972
  350MOL    H8942667   3.061   3.985   4.644  0.8106  0.7594  4.0562
  350MOL    H9042668   3.212   4.076   4.634 -0.0449  2.2637 -1.6801
  350MOL    H9142669   2.948   4.220   4.635 -1.2150  0.9595  1.0889
  350MOL    C9242670   3.129   4.323   4.684 -0.1574  0.7096  0.2381
  350MOL    C9342671   3.059   4.448   4.723  0.2792 -0.3361  0.1348
  350MOL    F9442672   2.966   4.484   4.637  0.3115  0.0719  0.2590
  350MOL    H9542673   3.225   4.312   4.735 -0.5129  0.4893  0.8592
  350MOL    H9642674   3.159   4.335   4.580  1.2361 -1.5789  0.3436
  350MOL    H9742675   3.130   4.530   4.723 -2.6421  2.2866 -1.7908
  350MOL    C9842676   3.000   4.443   4.865 -0.3091 -0.0771 -0.6956
  350MOL    C9942677   3.091   4.447   4.996  0.4595  0.3427  0.8490
  350MOL   F10042678   3.191   4.527   4.961  0.6841  0.2983 -0.1684
  350MOL   H10142679   2.940   4.533   4.872  1.1183  0.8334 -0.0984
  350MOL   H10242680   2.920   4.369   4.873 -2.0581  1.6759 -1.6911
  350MOL   H10342681   3.138   4.352   5.021 -0.6824 -0.4363  0.1073
  350MOL   C10442682   3.010   4.500   5.118  0.0799 -0.1407  0.1114
  350MOL   C10542683   2.901   4.403   5.167 -0.2581  0.5207 -0.4185
  350MOL   F10642684   2.937   4.278   5.178 -0.4155 -0.3578 -0.0875
  350MOL   H10742685   3.077   4.515   5.203 -0.6224  1.9093  0.3539
  350MOL   H10842686   2.976   4.603   5.108  1.0040  0.0345 -1.3180
  350MOL   H10942687   2.823   4.397   5.091 -1.2783 -1.7953  0.7697
  350MOL   C11042688   2.841   4.438   5.298  0.0485 -0.9344  0.3044
  350MOL   C11142689   2.785   4.582   5.305  0.1475  0.3060 -0.0330
  350MOL   F11242690   2.700   4.600   5.198 -0.2609  0.1812  0.1309
  350MOL   H11342691   2.750   4.380   5.313 -0.5514  0.0363  0.4848
  350MOL   H11442692   2.912   4.435   5.380 -1.5254  0.1509  1.7527
  350MOL   H11542693   2.872   4.647   5.296  1.5067 -1.6802 -1.5300
  350MOL   C11642694   2.719   4.614   5.437  0.2512 -0.8820  0.6042
  350MOL   C11742695   2.678   4.758   5.451 -0.4500 -0.8395  0.0125
  350MOL   F11842696   2.777   4.842   5.428 -0.1384  0.1750 -0.2921
  350MOL   H11942697   2.636   4.546   5.455 -0.1093 -0.5042  0.3941
  350MOL   H12042698   2.785   4.587   5.519  0.7423 -0.3939  0.3713
  350MOL   H12142699   2.626   4.777   5.545  1.6997 -1.3638  1.3593
  350MOL   H12242700   2.608   4.793   5.376 -0.0759 -1.7683 -0.7748
  351MOL     C142701   2.586   5.727   1.504 -0.2485  0.1459  0.4219
  351MOL     C242702   2.612   5.623   1.615 -0.0621  0.6842 -0.5191
  351MOL     F342703   2.638   5.693   1.726 -0.1816  0.5302 -0.3855
  351MOL     H442704   2.488   5.775   1.511 -0.3495  0.0306 -0.1648
  351MOL     H542705   2.597   5.682   1.406 -2.2521 -0.2542  0.3701
  351MOL     H642706   2.710   5.587   1.583 -0.5460  0.5579 -1.8923
  351MOL     H742707   2.663   5.802   1.525 -0.6390  0.1802  1.7979
  351MOL     C842708   2.504   5.515   1.620  0.1175 -0.8541 -0.6906
  351MOL     C942709   2.481   5.436   1.488  0.0446 -0.1220 -0.5002
  351MOL    F1042710   2.596   5.371   1.462 -0.3651  0.5613 -0.5455
  351MOL    H1142711   2.524   5.449   1.705  0.5315 -2.7917 -2.2623
  351MOL    H1242712   2.412   5.568   1.642  1.9136  2.2576 -0.3428
  351MOL    H1342713   2.464   5.508   1.408 -2.3565  0.9720  0.9485
  351MOL    C1442714   2.350   5.347   1.502  0.4014 -0.0923  0.1484
  351MOL    C1542715   2.330   5.274   1.366  0.1484  0.5917  0.0612
  351MOL    F1642716   2.436   5.199   1.354 -0.7339  0.3843 -0.2011
  351MOL    H1742717   2.368   5.268   1.575 -0.2625 -0.9509 -0.5913
  351MOL    H1842718   2.269   5.408   1.541  0.0514  1.0823 -2.3207
  351MOL    H1942719   2.326   5.344   1.282  0.4269 -1.8783 -2.0809
  351MOL    C2042720   2.214   5.184   1.357 -0.6987  0.1280  0.0514
  351MOL    C2142721   2.080   5.253   1.378  0.4687  0.8672  0.5923
  351MOL    F2242722   2.073   5.332   1.272 -0.1750  0.0855 -1.1639
  351MOL    H2342723   2.216   5.128   1.263  1.0853 -3.5523  2.1764
  351MOL    H2442724   2.238   5.111   1.434  1.3694  0.8581  0.1213
  351MOL    H2542725   2.077   5.305   1.474 -0.6287 -0.4528  1.2752
  351MOL    C2642726   1.958   5.166   1.366 -0.0360 -0.1965 -0.0649
  351MOL    C2742727   1.960   5.045   1.457  0.2784 -0.0194  0.4087
  351MOL    F2842728   1.976   5.092   1.579  0.4253 -0.3009  0.5945
  351MOL    H2942729   1.873   5.228   1.393  0.5842  0.6298  0.0189
  351MOL    H3042730   1.938   5.132   1.265 -1.8020  1.8384 -0.4268
  351MOL    H3142731   2.037   4.975   1.422  1.8652  3.0362 -2.5148
  351MOL    C3242732   1.829   4.961   1.470 -0.0729  0.0191 -0.0756
  351MOL    C3342733   1.850   4.834   1.564  0.6046 -0.9227  0.8498
  351MOL    F3442734   1.725   4.799   1.606 -0.4042 -0.5092  0.0614
  351MOL    H3542735   1.754   5.024   1.518  0.1107  0.4664 -0.3732
  351MOL    H3642736   1.789   4.948   1.369 -0.0032  0.8850 -0.2176
  351MOL    H3742737   1.891   4.869   1.659 -2.2284 -1.2307  2.2454
  351MOL    C3842738   1.929   4.715   1.503 -0.6286  0.3779 -0.4462
  351MOL    C3942739   1.957   4.596   1.600  1.0297  0.0721  0.6929
  351MOL    F4042740   1.847   4.527   1.636  0.2862 -0.1520 -0.7928
  351MOL    H4142741   1.876   4.676   1.416  0.5442 -0.9226 -0.6017
  351MOL    H4242742   2.024   4.748   1.461  0.3250 -0.1612  1.2420
  351MOL    H4342743   2.000   4.642   1.689 -0.2932  1.6321  0.5595
  351MOL    C4442744   2.052   4.494   1.539 -0.3145  0.3832 -0.2678
  351MOL    C4542745   2.123   4.405   1.636 -0.3871  0.4439  0.2900
  351MOL    F4642746   2.172   4.293   1.584  0.5291 -0.6675 -0.2489
  351MOL    H4742747   2.008   4.426   1.467  1.1940 -0.7633 -0.1365
  351MOL    H4842748   2.126   4.539   1.472  0.3576  0.0899  0.2766
  351MOL    H4942749   2.062   4.370   1.719  0.7086  1.9111  1.7674
  351MOL    C5042750   2.231   4.470   1.726  0.4737  0.3041  0.3324
  351MOL    C5142751   2.348   4.550   1.661  0.3265  0.0191 -0.2573
  351MOL    F5242752   2.299   4.669   1.618 -0.1107  0.0943 -0.4858
  351MOL    H5342753   2.176   4.541   1.788 -1.0262 -1.3018  0.8907
  351MOL    H5442754   2.267   4.390   1.791 -1.5995 -0.8154  0.1513
  351MOL    H5542755   2.380   4.502   1.569  1.3242 -0.2756  0.2322
  351MOL    C5642756   2.466   4.562   1.761 -0.1941  0.0153  0.3216
  351MOL    C5742757   2.601   4.607   1.692  0.2631  0.3273  0.1631
  351MOL    F5842758   2.643   4.517   1.604 -0.0863 -0.1557  0.0752
  351MOL    H5942759   2.440   4.634   1.839 -1.5006 -1.1436  0.9771
  351MOL    H6042760   2.478   4.463   1.805 -1.3403 -0.0972  0.3985
  351MOL    H6142761   2.675   4.607   1.772  3.1911 -0.0385 -2.4476
  351MOL    C6242762   2.605   4.749   1.612  0.0659 -0.6123 -0.1265
  351MOL    C6342763   2.630   4.872   1.689  0.4136 -0.1679 -1.0185
  351MOL    F6442764   2.753   4.862   1.743 -0.7289 -0.2813 -0.2298
  351MOL    H6542765   2.683   4.750   1.536 -0.1538  2.1270 -0.3586
  351MOL    H6642766   2.512   4.761   1.557  1.1577  1.2951 -1.6316
  351MOL    H6742767   2.558   4.879   1.770 -0.2108  1.0305 -1.6534
  351MOL    C6842768   2.609   4.997   1.608  0.1552 -0.0912  0.2166
  351MOL    C6942769   2.602   5.126   1.691  0.8481 -0.0427 -0.6348
  351MOL    F7042770   2.507   5.114   1.782 -0.1880 -0.1315  0.1760
  351MOL    H7142771   2.688   4.999   1.533 -0.3130  0.9172 -0.2513
  351MOL    H7242772   2.515   4.976   1.556 -0.9360 -2.0174  2.8396
  351MOL    H7342773   2.566   5.205   1.625  0.5025  0.2595 -0.0876
  351MOL    C7442774   2.731   5.170   1.766  0.0186  0.3371 -0.4314
  351MOL    C7542775   2.848   5.222   1.681 -0.2742  0.1344  0.2091
  351MOL    F7642776   2.801   5.325   1.614  0.3637 -0.0137 -0.2951
  351MOL    H7742777   2.705   5.253   1.831 -1.4372 -1.6486  1.5974
  351MOL    H7842778   2.769   5.093   1.834  0.9363  1.9303  0.8684
  351MOL    H7942779   2.881   5.147   1.610  1.4511  0.3399  0.7849
  351MOL    C8042780   2.970   5.268   1.770  0.8734  0.6067  0.3631
  351MOL    C8142781   3.062   5.161   1.810  0.7359 -1.1063 -0.3717
  351MOL    F8242782   3.117   5.137   1.696 -0.0242  0.0120 -0.2851
  351MOL    H8342783   3.023   5.345   1.714  2.2970 -0.9714 -0.4764
  351MOL    H8442784   2.934   5.312   1.863 -1.0325  1.6088 -0.8115
  351MOL    H8542785   3.009   5.073   1.846 -0.5195  0.4759  1.7343
  351MOL    C8642786   3.185   5.201   1.902  0.3162 -0.1717 -0.6388
  351MOL    C8742787   3.138   5.238   2.041 -0.2136 -0.8253 -0.4903
  351MOL    F8842788   3.117   5.123   2.113 -0.1456  0.3293  0.0904
  351MOL    H8942789   3.254   5.117   1.914 -1.0665 -1.4933 -1.7434
  351MOL    H9042790   3.238   5.284   1.856 -1.6181 -0.0396 -2.6767
  351MOL    H9142791   3.039   5.282   2.039  0.5999  1.0797 -0.3398
  351MOL    C9242792   3.241   5.334   2.108  0.0581  0.6223  0.3288
  351MOL    C9342793   3.203   5.383   2.250  0.6030 -0.0273  0.3313
  351MOL    F9442794   3.090   5.456   2.236 -0.1758 -0.3296 -0.1903
  351MOL    H9542795   3.338   5.286   2.118  1.2615  2.6764 -1.1255
  351MOL    H9642796   3.251   5.418   2.039  0.7653  1.4342  1.4110
  351MOL    H9742797   3.287   5.445   2.281  0.6756 -1.0141  2.2111
  351MOL    C9842798   3.181   5.277   2.359  0.5224  0.2806 -0.7763
  351MOL    C9942799   3.294   5.175   2.373 -0.1204 -0.0540 -0.1355
  351MOL   F10042800   3.406   5.241   2.385  0.2151 -0.2744 -0.1333
  351MOL   H10142801   3.164   5.311   2.461  3.5896 -0.6253  0.0905
  351MOL   H10242802   3.086   5.224   2.355 -0.4444  1.7175  1.7647
  351MOL   H10342803   3.303   5.113   2.284 -0.7279  2.0793 -1.7420
  351MOL   C10442804   3.269   5.073   2.489 -0.0051  0.0537 -0.4465
  351MOL   C10542805   3.381   4.965   2.501 -0.3661 -0.2366 -0.6925
  351MOL   F10642806   3.398   4.912   2.382  0.6915 -0.4692 -0.5928
  351MOL   H10742807   3.256   5.127   2.584 -1.2957 -1.0970  0.0467
  351MOL   H10842808   3.174   5.022   2.472  0.2267 -0.1164 -1.2482
  351MOL   H10942809   3.353   4.893   2.579 -2.5182  0.7259 -0.5489
  351MOL   C11042810   3.517   5.019   2.552  0.4902  0.2439 -0.5750
  351MOL   C11142811   3.610   4.907   2.597  0.1795  0.1616 -0.2820
  351MOL   F11242812   3.657   4.855   2.484  0.4185 -0.2892 -0.5172
  351MOL   H11342813   3.562   5.089   2.481  0.2243  0.5282 -0.4635
  351MOL   H11442814   3.495   5.072   2.645  0.6920 -2.6012  1.1763
  351MOL   H11542815   3.554   4.824   2.639  0.5413 -1.0016 -2.0666
  351MOL   C11642816   3.733   4.935   2.686  0.2805  0.9463  0.0080
  351MOL   C11742817   3.780   4.816   2.766 -0.1080  0.0280  0.2529
  351MOL   F11842818   3.690   4.777   2.859 -0.0923  0.0600 -0.3055
  351MOL   H11942819   3.817   4.968   2.626  0.2634  0.6396 -0.1863
  351MOL   H12042820   3.699   5.012   2.756  0.1313  0.0342  0.9633
  351MOL   H12142821   3.871   4.845   2.819  0.7295 -1.3601 -0.3920
  351MOL   H12242822   3.795   4.728   2.704 -1.5084 -0.1311  0.1231
  352MOL     C142823   0.380   0.203   5.712  0.4187  0.1967  0.1286
  352MOL     C242824   0.499   0.106   5.680 -0.3141  0.2369 -1.0994
  352MOL     F342825   0.604   0.142   5.752 -0.0676 -0.1308  0.0076
  352MOL     H442826   0.411   0.302   5.678  1.2974  0.8360  2.6812
  352MOL     H542827   0.362   0.210   5.819 -0.3121 -1.1376  0.1045
  352MOL     H642828   0.534   0.125   5.578 -0.9242  0.7546 -1.2116
  352MOL     H742829   0.295   0.172   5.650  0.9395 -0.8060 -0.0915
  352MOL     C842830   0.465   7.962   5.704  0.1320 -0.2328  0.0527
  352MOL     C942831   0.586   7.870   5.686 -0.2055 -0.2521 -0.7451
  352MOL    F1042832   0.666   7.898   5.786 -0.0562  0.1059 -0.1332
  352MOL    H1142833   0.440   7.967   5.810  0.3945 -1.2364  0.1613
  352MOL    H1242834   0.387   7.928   5.637  0.7701 -0.8519 -0.3812
  352MOL    H1342835   0.631   7.889   5.588 -1.8173 -1.1679 -1.6839
  352MOL    C1442836   0.543   7.720   5.706 -0.7776 -0.1782  0.3108
  352MOL    C1542837   0.479   7.654   5.575  0.5761 -0.0657 -0.2682
  352MOL    F1642838   0.561   7.656   5.478 -0.5816 -0.3662  0.0544
  352MOL    H1742839   0.616   7.641   5.726 -2.1152 -1.0388  1.9720
  352MOL    H1842840   0.482   7.709   5.795  0.8771 -4.4980  1.0609
  352MOL    H1942841   0.395   7.713   5.539  0.3991 -0.3924 -0.3948
  352MOL    C2042842   0.439   7.506   5.595 -0.3115  0.4986 -0.0386
  352MOL    C2142843   0.369   7.436   5.475 -0.1068 -0.0866 -1.0419
  352MOL    F2242844   0.454   7.406   5.380  0.5243  0.0477 -0.2759
  352MOL    H2342845   0.526   7.445   5.616  0.5257  0.8705 -2.3572
  352MOL    H2442846   0.389   7.496   5.692  1.6404  0.6667  1.0183
  352MOL    H2542847   0.290   7.495   5.429 -0.8166  1.3494  1.8842
  352MOL    C2642848   0.303   7.300   5.503 -0.1695 -0.1570  0.5429
  352MOL    C2742849   0.213   7.249   5.393  0.2479 -0.5153  0.2534
  352MOL    F2842850   0.195   7.115   5.414 -0.1803  0.2211 -0.1229
  352MOL    H2942851   0.387   7.231   5.516  1.2063  1.1377 -1.2226
  352MOL    H3042852   0.245   7.301   5.595 -2.2286 -0.5243 -0.7317
  352MOL    H3142853   0.257   7.259   5.294  0.8758  1.1800  0.6873
  352MOL    C3242854   0.068   7.314   5.412 -0.1298 -0.5800  0.1889
  352MOL    C3342855   7.976   7.279   5.299 -0.2375  0.2494  0.3992
  352MOL    F3442856   7.852   7.305   5.345 -0.6602  0.6879 -0.0013
  352MOL    H3542857   0.025   7.294   5.509  2.9875 -1.9948  1.3544
  352MOL    H3642858   0.092   7.420   5.407  0.5171 -0.7460 -0.4608
  352MOL    H3742859   7.986   7.174   5.272 -0.2870  0.4357 -0.3627
  352MOL    C3842860   7.989   7.383   5.187 -0.3108  0.0693  0.0183
  352MOL    C3942861   7.907   7.367   5.065 -0.0321  0.6036  0.3020
  352MOL    F4042862   7.910   7.479   4.990 -0.4619  0.1644 -0.2246
  352MOL    H4142863   7.956   7.471   5.242 -1.1308  0.9019 -1.7561
  352MOL    H4242864   0.092   7.390   5.164 -0.4992  1.3509 -0.4982
  352MOL    H4342865   7.802   7.361   5.093  0.2125  0.2313  1.1406
  352MOL    C4442866   7.941   7.241   4.982 -0.1174  1.1554  0.1158
  352MOL    C4542867   7.901   7.238   4.835  0.3578 -0.4873  0.5510
  352MOL    F4642868   7.950   7.119   4.787 -0.2385 -0.1045 -0.6090
  352MOL    H4742869   0.047   7.241   4.980 -0.1241  0.2875 -0.3087
  352MOL    H4842870   7.906   7.160   5.045  1.9407  0.9979  1.0978
  352MOL    H4942871   7.968   7.316   4.798  0.5973 -1.1681 -0.4626
  352MOL    C5042872   7.753   7.246   4.807  0.4203  0.0169  0.8601
  352MOL    C5142873   7.717   7.238   4.656 -0.2262 -0.2632 -0.3292
  352MOL    F5242874   7.583   7.248   4.648  0.5279 -0.0156 -0.5126
  352MOL    H5342875   7.701   7.162   4.853 -0.5964  0.2121  0.0875
  352MOL    H5442876   7.706   7.332   4.854  1.2929 -0.1352  2.0380
  352MOL    H5542877   7.753   7.145   4.613 -0.5200 -0.2295 -0.6451
  352MOL    C5642878   7.763   7.350   4.569 -0.3496 -0.2305  0.1327
  352MOL    C5742879   7.724   7.489   4.623 -1.2000  0.2263  0.1271
  352MOL    F5842880   7.784   7.513   4.740  0.3437 -0.0541 -0.1551
  352MOL    H5942881   7.872   7.342   4.558 -0.2282  0.8509  0.5093
  352MOL    H6042882   7.733   7.331   4.466  2.0999  0.0311 -0.6730
  352MOL    H6142883   7.616   7.492   4.640 -0.7946  3.4232  2.7937
  352MOL    C6242884   7.755   7.604   4.516  0.5714  0.7591  0.2981
  352MOL    C6342885   7.711   7.742   4.552 -0.1690 -0.1440  0.2449
  352MOL    F6442886   7.581   7.737   4.563  0.3490  0.3622  0.3210
  352MOL    H6542887   7.858   7.585   4.485 -0.9545 -1.5633 -3.8058
  352MOL    H6642888   7.706   7.572   4.424 -1.8744 -1.0957  2.1900
  352MOL    H6742889   7.736   7.809   4.470 -0.7864 -0.4697 -0.2154
  352MOL    C6842890   7.771   7.801   4.675 -0.4565 -0.2395  0.4812
  352MOL    C6942891   7.918   7.826   4.679 -0.4406  0.0765 -0.7981
  352MOL    F7042892   7.950   7.948   4.630  0.7046  0.2409 -0.0549
  352MOL    H7142893   7.724   7.898   4.687 -0.3308 -0.1649  0.3778
  352MOL    H7242894   7.746   7.733   4.756  1.0939 -0.1904  1.0136
  352MOL    H7342895   7.984   7.760   4.622 -0.0906  0.8431 -1.2899
  352MOL    C7442896   7.987   7.812   4.817 -0.1723  0.1912  0.0312
  352MOL    C7542897   7.943   7.908   4.924 -0.3232 -0.5279 -0.4687
  352MOL    F7642898   7.825   7.863   4.961  0.1808  0.1073  0.3111
  352MOL    H7742899   7.964   7.713   4.855 -1.2445 -0.1898 -1.5312
  352MOL    H7842900   0.090   7.825   4.797  0.6130 -2.3855  2.2940
  352MOL    H7942901   7.936   8.001   4.868  2.9719 -0.5847 -1.0808
  352MOL    C8042902   0.030   7.918   5.045  0.4348 -0.5779 -0.6566
  352MOL    C8142903   7.991   0.001   5.171 -0.4469 -0.1674 -0.3357
  352MOL    F8242904   7.922   0.102   5.122  0.4720  0.0130  0.2326
  352MOL    H8342905   0.036   7.812   5.069 -1.6283 -0.5323  0.1952
  352MOL    H8442906   0.131   7.949   5.018  0.0456 -0.9486 -2.6284
  352MOL    H8542907   0.074   0.048   5.220 -0.7827 -0.2372  0.3177
  352MOL    C8642908   7.896   7.928   5.266  0.3782 -0.6360 -1.0423
  352MOL    C8742909   7.876   7.996   5.408  0.7449 -0.6730 -0.4692
  352MOL    F8842910   7.756   7.959   5.451 -0.4114  0.0237 -0.1947
  352MOL    H8942911   7.798   7.930   5.219  0.7876  0.2226 -1.8581
  352MOL    H9042912   7.933   7.828   5.289  2.5682  0.5173  0.7319
  352MOL    H9142913   7.867   0.101   5.396  0.9805 -0.5514  0.4139
  352MOL    C9242914   7.991   7.964   5.504  0.0397  0.7765  0.0329
  352MOL    C9342915   7.980   0.020   5.640 -0.3511 -0.9426  0.2742
  352MOL    F9442916   0.082   8.001   5.712 -0.2877  0.4318 -0.0788
  352MOL    H9542917   7.987   7.856   5.520 -1.1738  1.0770  1.9769
  352MOL    H9642918   0.086   7.983   5.461  0.5415  1.7837  1.5978
  352MOL    H9742919   7.889   7.978   5.680 -1.3236  0.3905 -0.3976
  352MOL    C9842920   7.968   0.173   5.639 -0.2935  0.5302 -0.2918
  352MOL    C9942921   7.964   0.244   5.776 -0.8506  0.3985  0.2339
  352MOL   F10042922   0.085   0.250   5.828  0.2364 -0.0667 -0.1072
  352MOL   H10142923   0.039   0.219   5.573  0.5206  1.9606  1.5825
  352MOL   H10242924   7.874   0.194   5.588  1.0447  3.5838 -1.6369
  352MOL   H10342925   7.903   0.189   5.847 -2.0129  2.5239  0.9390
  352MOL   C10442926   7.912   0.394   5.774  0.4217  0.7527 -0.3062
  352MOL   C10542927   7.902   0.458   5.914 -0.1605  0.1901  0.6505
  352MOL   F10642928   7.867   0.373   6.003  0.6367  0.2947 -0.3940
  352MOL   H10742929   7.977   0.459   5.715  0.0706  1.7232  0.3558
  352MOL   H10842930   7.808   0.403   5.743 -0.0800 -0.5396  0.9618
  352MOL   H10942931   7.815   0.524   5.913 -0.8670 -0.7098  1.7606
  352MOL   C11042932   0.025   0.526   5.964  0.2535  0.0660 -0.1369
  352MOL   C11142933   0.070   0.649   5.896 -0.4210 -0.0584  0.4208
  352MOL   F11242934   0.005   0.751   5.957 -0.2231 -0.0876 -0.4273
  352MOL   H11342935   0.014   0.544   6.071 -0.4949 -0.4439 -0.1257
  352MOL   H11442936   0.098   0.445   5.958 -1.5700 -1.5746 -0.5108
  352MOL   H11542937   0.042   0.648   5.790 -2.9087 -0.2632  1.0523
  352MOL   C11642938   0.220   0.683   5.892 -0.4557 -0.6994  0.0670
  352MOL   C11742939   0.313   0.577   5.818  0.0577 -0.5545  0.3461
  352MOL   F11842940   0.327   0.472   5.899  0.4106  0.4303 -0.2792
  352MOL   H11942941   0.234   0.772   5.831  2.1970 -0.9195  0.2568
  352MOL   H12042942   0.255   0.710   5.992  0.7090 -0.0497 -0.5074
  352MOL   H12142943   0.415   0.615   5.810 -0.0004  0.0676  2.3020
  352MOL   H12242944   0.266   0.562   5.721 -0.0276 -3.2094  0.7749
  353MOL     C142945   7.577   3.715   3.168 -0.1246  0.0962 -0.8933
  353MOL     C242946   7.435   3.687   3.207 -0.4243 -0.4870  0.5444
  353MOL     F342947   7.438   3.564   3.255 -0.1445  0.2005 -0.3330
  353MOL     H442948   7.585   3.813   3.121  1.3828  1.9055  2.9481
  353MOL     H542949   7.620   3.642   3.098  0.6292 -0.9707  0.6555
  353MOL     H642950   7.384   3.674   3.111  2.6253 -0.0292 -1.2196
  353MOL     H742951   7.642   3.713   3.255 -2.3973 -0.2575  0.8519
  353MOL     C842952   7.370   3.770   3.313  0.1467  0.2845 -0.1665
  353MOL     C942953   7.214   3.773   3.307 -0.0492  0.0959  0.2455
  353MOL    F1042954   7.157   3.657   3.356 -0.2439  0.1087 -0.3274
  353MOL    H1142955   7.404   3.722   3.405  1.0617 -0.0138 -0.6586
  353MOL    H1242956   7.400   3.875   3.306 -1.7219  0.8334 -0.3647
  353MOL    H1342957   7.183   3.780   3.203  0.8332  1.6851  0.0764
  353MOL    C1442958   7.167   3.891   3.390  0.2184  0.0200 -0.4066
  353MOL    C1542959   7.016   3.920   3.394  0.1106 -0.7881 -0.0202
  353MOL    F1642960   6.960   3.930   3.269  0.0543  0.5095 -0.5179
  353MOL    H1742961   7.192   3.876   3.495 -0.6688 -0.2143 -0.2262
  353MOL    H1842962   7.213   3.982   3.350  2.1535 -0.8004 -0.1096
  353MOL    H1942963   7.000   4.014   3.447  0.2086 -1.8780  1.9791
  353MOL    C2042964   6.929   3.813   3.464  0.3005 -0.3360 -0.5246
  353MOL    C2142965   6.967   3.767   3.608  0.4777 -0.2957  0.0338
  353MOL    F2242966   6.971   3.889   3.659  0.2222  0.3519 -0.1866
  353MOL    H2342967   6.826   3.847   3.463 -0.3288 -2.2534 -0.5841
  353MOL    H2442968   6.926   3.724   3.401  0.7928 -0.0202 -1.0060
  353MOL    H2542969   7.066   3.723   3.618 -0.1975 -1.5394  1.3113
  353MOL    C2642970   6.871   3.682   3.694  0.0349  0.2561  0.1456
  353MOL    C2742971   6.858   3.533   3.650 -0.7867  0.4552  0.3371
  353MOL    F2842972   6.985   3.482   3.662  0.2012  0.3693  0.4382
  353MOL    H2942973   6.916   3.686   3.793 -0.1504  0.3256  0.2260
  353MOL    H3042974   6.776   3.735   3.700  0.9877  2.1831 -1.1364
  353MOL    H3142975   6.833   3.545   3.545 -1.2615 -0.3489  0.3510
  353MOL    C3242976   6.760   3.450   3.728 -0.2466 -0.4313 -0.3700
  353MOL    C3342977   6.732   3.315   3.646  0.5828 -0.1870 -0.1875
  353MOL    F3442978   6.842   3.250   3.629 -0.4320  0.0203 -0.7822
  353MOL    H3542979   6.781   3.435   3.834 -3.3723 -0.8153  0.2411
  353MOL    H3642980   6.671   3.512   3.724  0.8955  1.1563 -1.9391
  353MOL    H3742981   6.708   3.336   3.542  0.5978 -3.1849 -0.8317
  353MOL    C3842982   6.622   3.232   3.710 -0.6280  0.4645 -0.2634
  353MOL    C3942983   6.573   3.111   3.631 -0.0214  0.5169  0.0623
  353MOL    F4042984   6.661   3.014   3.637  0.2881  0.0383  0.0983
  353MOL    H4142985   6.647   3.197   3.810 -1.4967 -1.0482 -0.5669
  353MOL    H4242986   6.537   3.297   3.728  1.0042  2.9182 -1.0809
  353MOL    H4342987   6.576   3.143   3.527 -1.7243  1.0653  0.1509
  353MOL    C4442988   6.425   3.080   3.664 -0.2862  0.2862 -0.3302
  353MOL    C4542989   6.366   2.960   3.589 -0.2399 -0.2557  0.6108
  353MOL    F4642990   6.365   2.984   3.455  0.7928  0.1881 -0.4714
  353MOL    H4742991   6.412   3.069   3.771  2.0987  0.0316 -0.0324
  353MOL    H4842992   6.368   3.170   3.640 -0.4927 -0.1644 -1.5665
  353MOL    H4942993   6.264   2.937   3.622 -0.8124  0.9270 -0.2970
  353MOL    C5042994   6.433   2.829   3.615  0.5227 -0.4727 -0.1784
  353MOL    C5142995   6.350   2.704   3.583  0.1388  0.6784  0.0336
  353MOL    F5242996   6.245   2.690   3.667 -0.2618  0.2003  0.1561
  353MOL    H5342997   6.522   2.825   3.552 -0.3558 -2.9891 -1.3519
  353MOL    H5442998   6.463   2.822   3.719  0.3914  0.2416 -0.0906
  353MOL    H5542999   6.413   2.619   3.608 -0.0027  0.0817 -1.5582
  353MOL    C5643000   6.310   2.682   3.434 -0.3745 -0.8081 -0.2735
  353MOL    C5743001   6.234   2.547   3.412 -0.4013 -0.5276 -0.6754
  353MOL    F5843002   6.116   2.563   3.459 -0.7853 -0.2585 -0.3033
  353MOL    H5943003   6.253   2.761   3.385  0.7425  0.0979 -0.1390
  353MOL    H6043004   6.398   2.678   3.370  0.3709  0.3905  0.6547
  353MOL    H6143005   6.277   2.469   3.475  0.5353 -0.1495 -0.8309
  353MOL    C6243006   6.222   2.506   3.265  0.3573  0.1871 -0.2155
  353MOL    C6343007   6.353   2.450   3.212 -0.5244  0.4187 -0.5709
  353MOL    F6443008   6.387   2.340   3.280  0.2872  0.1887  0.4889
  353MOL    H6543009   6.146   2.429   3.253  1.6500 -1.8097  3.6281
  353MOL    H6643010   6.179   2.590   3.211 -1.4197  0.7770  2.0716
  353MOL    H6743011   6.433   2.521   3.233 -0.8275 -0.2069  3.0567
  353MOL    C6843012   6.353   2.424   3.064 -0.0906  0.4168 -0.4898
  353MOL    C6943013   6.485   2.365   3.008 -0.2022 -0.0545  0.0817
  353MOL    F7043014   6.465   2.329   2.883 -0.2367 -0.4056  0.3899
  353MOL    H7143015   6.266   2.368   3.029  0.1250 -0.7513  0.7992
  353MOL    H7243016   6.338   2.527   3.031 -2.1745  0.8000  1.4933
  353MOL    H7343017   6.499   2.275   3.068  0.3271  0.4037  0.6444
  353MOL    C7443018   6.603   2.468   3.016 -0.3473 -0.0498  0.0868
  353MOL    C7543019   6.744   2.424   2.970  0.4584  0.0116  0.5895
  353MOL    F7643020   6.773   2.328   3.057 -0.8767  0.1489 -0.0026
  353MOL    H7743021   6.571   2.556   2.961 -0.4166 -0.8758 -1.2033
  353MOL    H7843022   6.613   2.508   3.118  2.2884 -1.7158  0.5268
  353MOL    H7943023   6.804   2.513   2.982  0.3535 -0.0599  1.7066
  353MOL    C8043024   6.745   2.382   2.817 -0.5794  0.2455  0.7499
  353MOL    C8143025   6.696   2.492   2.724  0.7389 -0.5294  1.2821
  353MOL    F8243026   6.769   2.601   2.741  0.5419 -0.5257  0.1334
  353MOL    H8343027   6.849   2.359   2.794 -0.5631  0.9580  0.1003
  353MOL    H8443028   6.685   2.292   2.809 -1.7945  1.1293 -0.3096
  353MOL    H8543029   6.592   2.515   2.747 -0.4080 -2.3842 -1.7425
  353MOL    C8643030   6.725   2.453   2.572 -0.1518 -0.6847 -0.7033
  353MOL    C8743031   6.623   2.352   2.515  0.0243  0.1196  0.0588
  353MOL    F8843032   6.502   2.400   2.497 -0.1504  0.9524  0.5841
  353MOL    H8943033   6.747   2.534   2.502 -1.9853  1.3079  0.9607
  353MOL    H9043034   6.824   2.408   2.569 -0.0542 -0.5434  0.2346
  353MOL    H9143035   6.615   2.263   2.578 -0.1116  0.1630  0.1025
  353MOL    C9243036   6.673   2.286   2.384  0.0421 -0.1170  0.3056
  353MOL    C9343037   6.589   2.169   2.326  0.2209 -0.2076  0.1599
  353MOL    F9443038   6.485   2.217   2.265  0.2902  0.1957  0.3426
  353MOL    H9543039   6.693   2.365   2.312 -1.8837 -0.2959 -0.4715
  353MOL    H9643040   6.773   2.249   2.405  0.6376  0.7570 -0.9796
  353MOL    H9743041   6.555   2.110   2.411  3.2172 -2.1022  0.1262
  353MOL    C9843042   6.670   2.081   2.233  0.2112 -0.0054  0.3063
  353MOL    C9943043   6.587   1.963   2.184 -0.2466 -0.0171  0.0467
  353MOL   F10043044   6.646   1.899   2.086 -0.0418 -0.4567  0.0698
  353MOL   H10143045   6.678   2.143   2.144  0.3627  0.6729  0.7874
  353MOL   H10243046   6.769   2.049   2.266 -0.1120 -1.1497  0.2003
  353MOL   H10343047   6.502   2.005   2.129 -1.6027  2.1414  3.5984
  353MOL   C10443048   6.516   1.876   2.285  0.9059 -0.2176  0.5286
  353MOL   C10543049   6.604   1.790   2.382 -0.8290  0.0025 -0.9864
  353MOL   F10643050   6.647   1.873   2.479  1.0646 -0.9316 -0.3447
  353MOL   H10743051   6.435   1.932   2.333  0.7321  1.6904 -1.8956
  353MOL   H10843052   6.467   1.804   2.219  0.6967 -1.1324  1.6590
  353MOL   H10943053   6.694   1.760   2.328 -0.4591  0.8159 -0.8132
  353MOL   C11043054   6.519   1.678   2.445  0.1915  0.3093  0.1491
  353MOL   C11143055   6.605   1.583   2.534  0.4913  0.2716  0.3951
  353MOL   F11243056   6.726   1.567   2.476  0.1518 -0.2917  0.2237
  353MOL   H11343057   6.441   1.726   2.504  0.1964  1.8105 -1.0279
  353MOL   H11443058   6.468   1.619   2.370 -0.4735 -0.1174  0.9222
  353MOL   H11543059   6.563   1.483   2.536  0.0632  0.4289 -0.3995
  353MOL   C11643060   6.617   1.623   2.678  0.1961 -0.4083 -0.0682
  353MOL   C11743061   6.644   1.507   2.773 -0.1217 -0.0011 -0.6062
  353MOL   F11843062   6.552   1.413   2.755 -0.1672 -0.0129  0.2217
  353MOL   H11943063   6.700   1.693   2.671 -0.3100  0.0919 -1.1750
  353MOL   H12043064   6.528   1.671   2.717  0.1454 -1.0335  0.6058
  353MOL   H12143065   6.651   1.540   2.876  3.4132 -2.3829 -0.0349
  353MOL   H12243066   6.742   1.467   2.749  0.1613 -0.2800  0.9788
  354MOL     C143067   1.962   4.660   5.441 -0.1352 -0.1016 -0.2817
  354MOL     C243068   1.817   4.624   5.469  0.3618 -0.5371  0.2328
  354MOL     F343069   1.746   4.646   5.355 -0.6187  0.3503  0.4125
  354MOL     H443070   2.015   4.597   5.370  0.9410 -1.8082  1.9600
  354MOL     H543071   2.006   4.644   5.540  0.5737 -1.0520 -0.7493
  354MOL     H643072   1.772   4.674   5.554  2.2437  1.7033 -0.0388
  354MOL     H743073   1.974   4.766   5.416  1.9916 -0.5252 -1.1683
  354MOL     C843074   1.811   4.477   5.491 -0.1022  0.8028 -0.6570
  354MOL     C943075   1.669   4.416   5.528  0.1695 -0.3996  0.5971
  354MOL    F1043076   1.673   4.283   5.522  0.0429 -0.3835  0.2541
  354MOL    H1143077   1.857   4.422   5.409  1.0553 -0.6823  0.9605
  354MOL    H1243078   1.876   4.454   5.575 -1.0742 -3.4348 -0.9290
  354MOL    H1343079   1.602   4.450   5.449  0.0227  2.1913  1.7690
  354MOL    C1443080   1.613   4.446   5.665 -0.2523 -0.8359  0.0510
  354MOL    C1543081   1.695   4.379   5.784  0.3547  0.2217 -0.8187
  354MOL    F1643082   1.797   4.458   5.801  0.3292  0.2039  0.0348
  354MOL    H1743083   1.617   4.554   5.680  0.7979 -0.7804 -0.5989
  354MOL    H1843084   1.508   4.415   5.664 -0.4163 -0.3003  0.4367
  354MOL    H1943085   1.706   4.275   5.754 -0.8947 -0.1507 -0.0416
  354MOL    C2043086   1.615   4.376   5.913 -0.4063 -0.2008 -0.8623
  354MOL    C2143087   1.684   4.283   6.013 -0.4143 -0.4989  0.9054
  354MOL    F2243088   1.807   4.329   6.043  0.2431  0.5098 -0.1539
  354MOL    H2343089   1.596   4.476   5.951  2.8807 -0.1371  0.7590
  354MOL    H2443090   1.524   4.325   5.881 -2.0649  1.3264  1.2727
  354MOL    H2543091   1.694   4.189   5.958 -0.2331  1.2444 -2.1500
  354MOL    C2643092   1.611   4.237   6.140  0.3778 -0.5187 -0.2786
  354MOL    C2743093   1.505   4.126   6.127 -0.1251 -0.0705 -0.1740
  354MOL    F2843094   1.552   4.025   6.051  0.4672 -0.3120  0.4059
  354MOL    H2943095   1.691   4.203   6.205 -0.0520  1.9482  1.6339
  354MOL    H3043096   1.562   4.320   6.191  0.0513  0.3503 -1.9621
  354MOL    H3143097   1.420   4.164   6.071  0.0570  0.9613  0.2421
  354MOL    C3243098   1.461   4.083   6.266  1.3326  0.2859 -0.1057
  354MOL    C3343099   1.353   3.969   6.264  0.0087 -0.1410 -0.0659
  354MOL    F3443100   1.397   3.854   6.208 -0.4099 -0.2397 -0.4028
  354MOL    H3543101   1.544   4.036   6.319  2.5607  0.4887 -1.7973
  354MOL    H3643102   1.431   4.170   6.324  0.1066 -1.3922  1.8579
  354MOL    H3743103   1.278   4.005   6.194 -0.3643  0.7902  0.8101
  354MOL    C3843104   1.296   3.935   6.407 -0.1323  0.2380  0.1882
  354MOL    C3943105   1.261   3.789   6.440 -0.4765 -0.1427 -1.1793
  354MOL    F4043106   1.237   3.777   6.571  0.5773  0.2150  0.0790
  354MOL    H4143107   1.374   3.965   6.477 -0.3623 -1.1804  1.0799
  354MOL    H4243108   1.206   3.990   6.435 -1.0530 -1.9995  1.8317
  354MOL    H4343109   1.344   3.722   6.418 -0.7676 -0.7526 -0.4491
  354MOL    C4443110   1.129   3.748   6.376  0.2801  0.1878 -0.0822
  354MOL    C4543111   1.108   3.601   6.391  0.0200 -0.0972 -0.4085
  354MOL    F4643112   1.092   3.575   6.515 -0.2783 -0.2450 -0.6223
  354MOL    H4743113   1.047   3.805   6.419 -1.3797 -1.7985 -0.4748
  354MOL    H4843114   1.131   3.782   6.272 -0.2779  0.6838  0.0701
  354MOL    H4943115   1.203   3.552   6.370  0.5014  0.6420  0.0269
  354MOL    C5043116   0.996   3.545   6.301 -0.6866  0.0520 -0.0077
  354MOL    C5143117   0.969   3.399   6.306 -0.4763 -0.3749 -0.0156
  354MOL    F5243118   0.861   3.377   6.227 -0.7374  0.1352 -0.5341
  354MOL    H5343119   0.902   3.597   6.320 -2.2302 -2.3821 -0.7900
  354MOL    H5443120   1.024   3.573   6.200 -1.7554 -0.1970 -0.3779
  354MOL    H5543121   0.930   3.372   6.404 -2.5807  1.8229 -0.1873
  354MOL    C5643122   1.093   3.309   6.265  0.2399 -0.1641  0.1229
  354MOL    C5743123   1.048   3.161   6.251 -0.0456 -0.2119  0.8374
  354MOL    F5843124   1.148   3.095   6.183 -0.3625 -0.0809 -0.2083
  354MOL    H5943125   1.120   3.342   6.165  1.0664 -0.5891  0.2039
  354MOL    H6043126   1.176   3.317   6.336  1.7418  0.9278 -1.7116
  354MOL    H6143127   0.963   3.149   6.183 -0.2202 -1.0547  1.1995
  354MOL    C6243128   1.037   3.094   6.388  0.3464 -0.4571  0.5623
  354MOL    C6343129   0.999   2.949   6.380 -0.3056 -0.3071  0.6079
  354MOL    F6443130   1.101   2.880   6.340  0.1553 -0.7256  0.1093
  354MOL    H6543131   1.137   3.098   6.432  1.3370 -1.6855 -1.5224
  354MOL    H6643132   0.969   3.144   6.456  2.5352  1.4804  1.3960
  354MOL    H6743133   0.913   2.937   6.314  0.0658 -1.4916  0.3336
  354MOL    C6843134   0.968   2.882   6.519  0.1331 -0.4060 -0.5830
  354MOL    C6943135   0.937   2.730   6.518 -1.3163  0.2501 -0.1723
  354MOL    F7043136   1.057   2.667   6.513 -0.4499  0.0048 -0.4081
  354MOL    H7143137   1.055   2.914   6.576 -1.3217  0.6330  1.0596
  354MOL    H7243138   0.883   2.935   6.560  1.3945  0.3532  1.0776
  354MOL    H7343139   0.871   2.704   6.435 -0.8651 -0.4555 -0.3116
  354MOL    C7443140   0.879   2.670   6.648 -0.0077 -0.2563  0.1478
  354MOL    C7543141   0.736   2.711   6.684 -0.0949 -0.1144  0.2172
  354MOL    F7643142   0.655   2.714   6.579 -0.2239 -0.0222  0.0511
  354MOL    H7743143   0.908   2.566   6.659  1.4896  0.3643  2.6994
  354MOL    H7843144   0.927   2.703   6.741 -1.5332  1.6824  0.2821
  354MOL    H7943145   0.728   2.815   6.715  1.8058  0.2687 -0.5421
  354MOL    C8043146   0.670   2.633   6.807 -0.0624  0.5439 -0.7624
  354MOL    C8143147   0.542   2.693   6.876 -0.6286 -0.4831 -0.0310
  354MOL    F8243148   0.433   2.689   6.787  0.1274 -0.1897 -0.6270
  354MOL    H8343149   0.661   2.527   6.784  2.1503 -0.1995  1.5404
  354MOL    H8443150   0.744   2.638   6.887  1.5766 -1.3956 -2.0825
  354MOL    H8543151   0.560   2.792   6.916 -0.7580  1.4140 -4.4348
  354MOL    C8643152   0.489   2.615   7.001  0.2870 -0.0104  0.4163
  354MOL    C8743153   0.379   2.677   7.086  0.0218  0.6087 -0.5944
  354MOL    F8843154   0.271   2.706   7.016 -0.1416  0.4664  0.1572
  354MOL    H8943155   0.453   2.517   6.969  0.0494 -0.7861  2.9766
  354MOL    H9043156   0.575   2.598   7.065 -1.3826 -0.3043  2.6481
  354MOL    H9143157   0.406   2.777   7.121  0.5129  0.6312 -1.0309
  354MOL    C9243158   0.334   2.587   7.207 -0.0461 -0.4309  0.4671
  354MOL    C9343159   0.267   2.654   7.321  0.1635  0.1354 -0.1860
  354MOL    F9443160   0.144   2.691   7.280 -0.1690 -0.3304 -0.2385
  354MOL    H9543161   0.275   2.501   7.176  0.1161 -0.0590 -0.9138
  354MOL    H9643162   0.429   2.560   7.255 -0.8716 -1.3808  1.6016
  354MOL    H9743163   0.318   2.748   7.345 -0.4347  0.9913 -2.1542
  354MOL    C9843164   0.254   2.567   7.446 -0.0806  0.1250  0.0846
  354MOL    C9943165   0.205   2.638   7.574 -0.1694  0.1182 -0.6171
  354MOL   F10043166   0.156   2.544   7.660  0.2035  0.2655 -0.4417
  354MOL   H10143167   0.195   2.480   7.419 -0.7796 -0.2806  2.7883
  354MOL   H10243168   0.350   2.523   7.474  1.3768  2.3100 -1.3215
  354MOL   H10343169   0.117   2.686   7.532 -1.5719 -1.3993  0.5040
  354MOL   C10443170   0.303   2.727   7.658  0.0686  0.6455  0.2189
  354MOL   C10543171   0.360   2.854   7.594 -0.1722 -0.4859  0.2028
  354MOL   F10643172   0.253   2.927   7.545  0.0848 -0.0724  0.0214
  354MOL   H10743173   0.239   2.769   7.736 -1.3617 -3.0119  1.1712
  354MOL   H10843174   0.386   2.670   7.703  0.6794  0.0898 -1.5807
  354MOL   H10943175   0.414   2.825   7.504 -0.3119  2.0197 -0.7244
  354MOL   C11043176   0.459   2.944   7.675 -0.7097  0.3850  1.0630
  354MOL   C11143177   0.526   3.059   7.597  0.1056 -0.5398 -0.7045
  354MOL   F11243178   0.552   3.018   7.473 -0.6652 -0.4268 -0.6923
  354MOL   H11343179   0.411   2.989   7.762 -0.1916 -0.5943  1.8724
  354MOL   H11443180   0.537   2.878   7.714 -0.9616  0.2768  1.3851
  354MOL   H11543181   0.625   3.072   7.640  0.0587 -0.6191 -0.5738
  354MOL   C11643182   0.457   3.197   7.579  0.7636 -0.3622  0.0147
  354MOL   C11743183   0.392   3.258   7.704 -0.0566  0.3817 -0.6336
  354MOL   F11843184   0.341   3.378   7.682 -0.1242 -0.3111 -0.6905
  354MOL   H11943185   0.529   3.275   7.554  0.2122  0.1060 -0.1171
  354MOL   H12043186   0.374   3.201   7.509 -0.0719 -0.1786  1.0063
  354MOL   H12143187   0.463   3.265   7.786 -0.6941 -2.0282  0.1427
  354MOL   H12243188   0.309   3.199   7.744 -0.1872  1.6806  1.0601
  355MOL     C143189   5.927   3.278   7.648  0.3375 -0.1838 -0.1507
  355MOL     C243190   5.803   3.196   7.695  0.5183  1.1113  0.2982
  355MOL     F343191   5.753   3.136   7.588 -0.1895  0.0059 -0.2555
  355MOL     H443192   5.964   3.335   7.734  2.0147 -0.8478 -0.4341
  355MOL     H543193   5.903   3.340   7.562 -0.6985 -0.8880 -0.3842
  355MOL     H643194   5.726   3.258   7.740  0.2083  1.2748 -0.4528
  355MOL     H743195   6.005   3.212   7.613  1.3153  0.0316  1.5454
  355MOL     C843196   5.834   3.089   7.802 -0.0851 -0.3955 -0.6242
  355MOL     C943197   5.891   3.134   7.941 -0.9899 -0.2904  0.2243
  355MOL    F1043198   5.799   3.214   7.989 -0.1416  0.1108 -0.5516
  355MOL    H1143199   5.739   3.035   7.808 -0.5860  0.4501 -0.8521
  355MOL    H1243200   5.903   3.016   7.758  0.9564  0.1422  0.0921
  355MOL    H1343201   5.985   3.189   7.932 -1.4187  0.4070 -0.0440
  355MOL    C1443202   5.914   3.015   0.040  0.3205 -0.4713 -0.1765
  355MOL    C1543203   5.987   3.047   0.166 -0.2697 -0.5890  0.3740
  355MOL    F1643204   6.103   3.111   0.143  0.0066  0.1803 -0.0769
  355MOL    H1743205   5.814   2.988   0.073 -0.1543 -0.1958 -1.3863
  355MOL    H1843206   5.962   2.926   8.002  2.5252  0.6728 -0.1782
  355MOL    H1943207   6.018   2.956   0.216 -0.3323 -1.3584 -0.9635
  355MOL    C2043208   5.912   3.136   0.265  0.2808 -0.1203  0.3044
  355MOL    C2143209   5.968   3.126   0.411  0.6415 -0.2118  0.9302
  355MOL    F2243210   6.089   3.188   0.403 -0.2399 -0.0253  0.1331
  355MOL    H2343211   5.885   3.235   0.226 -0.1403 -0.7349 -0.9883
  355MOL    H2443212   5.808   3.104   0.274  1.0055 -2.5578  0.2973
  355MOL    H2543213   5.982   3.022   0.441 -1.6219 -1.6118 -2.6549
  355MOL    C2643214   5.885   3.179   0.524  0.4340  0.3322  1.0979
  355MOL    C2743215   5.949   3.181   0.664  0.3585  0.3993 -0.0534
  355MOL    F2843216   6.044   3.275   0.657  0.0916  0.7837  0.0194
  355MOL    H2943217   5.859   3.283   0.507 -1.3811 -0.4610 -1.2414
  355MOL    H3043218   5.799   3.114   0.542  1.6917 -1.7480 -0.1748
  355MOL    H3143219   6.006   3.091   0.685 -2.4667 -0.6108  3.8593
  355MOL    C3243220   5.844   3.218   0.772 -0.0273  0.6341  0.2319
  355MOL    C3343221   5.896   3.190   0.914  1.1512 -0.4076 -0.9226
  355MOL    F3443222   5.811   3.244   1.000  0.2454  0.0587 -0.5337
  355MOL    H3543223   5.814   3.323   0.768 -0.1075  0.5804 -0.6742
  355MOL    H3643224   5.754   3.161   0.746 -0.5616  1.3224  0.5585
  355MOL    H3743225   5.985   3.248   0.939  1.1810 -0.8380 -0.0025
  355MOL    C3843226   5.920   3.046   0.948 -0.9873  0.0451  0.0238
  355MOL    C3943227   5.989   3.008   1.086  0.9447 -0.3287  0.4877
  355MOL    F4043228   5.961   2.877   1.107 -0.2854 -0.1806 -0.1231
  355MOL    H4143229   5.821   3.000   0.943 -0.2712 -1.4842 -0.4039
  355MOL    H4243230   5.988   3.004   0.874 -1.8172  2.5462 -2.2922
  355MOL    H4343231   5.947   3.070   1.166 -1.8960  0.2396 -1.3695
  355MOL    C4443232   6.138   3.027   1.089 -0.4338 -0.4385  0.0683
  355MOL    C4543233   6.215   2.961   1.202 -0.5956  0.2769 -0.7674
  355MOL    F4643234   6.348   2.988   1.183  0.0788  0.8116  0.6142
  355MOL    H4743235   6.177   2.971   1.004  1.5374  2.8945 -1.3066
  355MOL    H4843236   6.177   3.129   1.086 -0.5251 -0.3727  0.9896
  355MOL    H4943237   6.205   2.852   1.212  0.9640  0.0144 -1.9423
  355MOL    C5043238   6.181   3.020   1.342  0.4379 -0.2133 -1.0823
  355MOL    C5143239   6.247   2.950   1.464 -0.1219  0.8423  0.1012
  355MOL    F5243240   6.233   3.021   1.573 -0.1888  0.2473 -0.0925
  355MOL    H5343241   6.213   3.124   1.347 -2.0215  0.5489 -0.6172
  355MOL    H5443242   6.075   3.021   1.367  0.6712 -0.0164 -0.1037
  355MOL    H5543243   6.354   2.949   1.447  0.1692  1.3697  1.7985
  355MOL    C5643244   6.201   2.808   1.497  0.6529 -0.1102 -0.4934
  355MOL    C5743245   6.270   2.739   1.613  0.3494  0.5764  0.0115
  355MOL    F5843246   6.202   2.627   1.627  0.1101 -0.5855  0.2815
  355MOL    H5943247   6.101   2.807   1.539  1.0076 -1.9409  0.3749
  355MOL    H6043248   6.211   2.738   1.414  1.2853 -1.0397  0.3481
  355MOL    H6143249   6.248   2.790   1.707 -0.0273  1.6615 -0.6588
  355MOL    C6243250   6.430   2.715   1.599  1.1900  0.4979  0.0348
  355MOL    C6343251   6.489   2.669   1.462  0.5067 -0.5854  0.0617
  355MOL    F6443252   6.461   2.764   1.371 -0.1287 -0.2629  0.1055
  355MOL    H6543253   6.472   2.814   1.620 -0.5956  1.3664 -0.3870
  355MOL    H6643254   6.458   2.649   1.681 -1.7137  1.1912  1.6447
  355MOL    H6743255   6.451   2.571   1.433  0.5061 -0.3743 -0.6584
  355MOL    C6843256   6.648   2.654   1.471 -0.2081  0.0415 -0.3421
  355MOL    C6943257   6.712   2.582   1.355 -0.2886 -0.0943 -0.3237
  355MOL    F7043258   6.675   2.659   1.254 -0.2293 -0.1280  0.2279
  355MOL    H7143259   6.691   2.754   1.481  0.4732 -0.0319 -2.3578
  355MOL    H7243260   6.665   2.607   1.568 -1.1349 -3.2084 -1.7152
  355MOL    H7343261   6.682   2.478   1.350  0.7341 -0.4314  0.3152
  355MOL    C7443262   6.859   2.599   1.367  0.8907 -0.0455  0.6177
  355MOL    C7543263   6.925   2.534   1.494 -0.0291  0.0500 -0.2696
  355MOL    F7643264   6.884   2.404   1.513  0.0106  0.2323 -0.2579
  355MOL    H7743265   6.892   2.544   1.280 -0.8426  0.5199 -0.4197
  355MOL    H7843266   6.884   2.705   1.366  1.9595 -0.3000  0.2596
  355MOL    H7943267   6.888   2.581   1.585  1.2228 -1.4917  1.0660
  355MOL    C8043268   7.078   2.534   1.463 -0.1310  0.3494  0.1481
  355MOL    C8143269   7.154   2.517   1.592  0.3205  0.4865 -0.0669
  355MOL    F8243270   7.105   2.422   1.668 -0.2984  0.0627 -0.7318
  355MOL    H8343271   7.111   2.452   1.399 -1.1775  0.6103 -0.7376
  355MOL    H8443272   7.108   2.632   1.427  2.0652  0.4507  2.1062
  355MOL    H8543273   7.134   2.608   1.649  1.8558  0.1978  0.9702
  355MOL    C8643274   7.302   2.489   1.556  0.0883  0.3761  0.3562
  355MOL    C8743275   7.398   2.499   1.678 -0.2195  0.2730 -0.1477
  355MOL    F8843276   7.524   2.489   1.642 -0.0410 -0.4723  0.0756
  355MOL    H8943277   7.304   2.389   1.512  0.1617  1.3749 -1.9610
  355MOL    H9043278   7.341   2.561   1.483  0.0186 -0.4512 -0.5075
  355MOL    H9143279   7.391   2.412   1.744  3.3072  0.8293  1.0404
  355MOL    C9243280   7.382   2.641   1.751  0.6409 -0.3339 -0.1365
  355MOL    C9343281   7.488   2.668   1.857  0.0047 -0.7722 -0.1556
  355MOL    F9443282   7.444   2.786   1.912 -0.4519  0.0589 -0.3862
  355MOL    H9543283   7.388   2.728   1.686 -1.1818  0.3759  0.5989
  355MOL    H9643284   7.288   2.637   1.807  1.0593 -1.5858  0.4961
  355MOL    H9743285   7.585   2.672   1.807  0.3900 -1.4874  0.5367
  355MOL    C9843286   7.502   2.567   1.977 -0.3167 -0.3334  0.0494
  355MOL    C9943287   7.595   2.605   2.091 -0.1534  0.5226  0.0052
  355MOL   F10043288   7.719   2.621   2.036  0.7103  0.5603 -0.1020
  355MOL   H10143289   7.404   2.539   2.014 -1.3144  2.7258 -0.1076
  355MOL   H10243290   7.532   2.470   1.937  1.8171  0.6939 -0.9430
  355MOL   H10343291   7.602   2.514   2.150 -0.5690  1.2670  1.2139
  355MOL   C10443292   7.571   2.728   2.173  0.0135  0.1405  0.2636
  355MOL   C10543293   7.441   2.730   2.258  0.3323 -0.4203  0.5231
  355MOL   F10643294   7.456   2.641   2.355 -0.6920  0.1005  0.4124
  355MOL   H10743295   7.661   2.738   2.234  1.1772  1.6136 -1.6413
  355MOL   H10843296   7.577   2.815   2.108 -0.1907 -1.5601 -2.0618
  355MOL   H10943297   7.358   2.701   2.194 -0.2046 -0.2338  1.1318
  355MOL   C11043298   7.422   2.872   2.322 -0.6248  0.2966 -0.6368
  355MOL   C11143299   7.300   2.870   2.409 -0.1815 -0.0186 -0.2602
  355MOL   F11243300   7.314   2.976   2.483  0.0596  0.1824  0.0603
  355MOL   H11343301   7.514   2.911   2.366 -0.6574  0.9505 -1.1451
  355MOL   H11443302   7.410   2.943   2.240  0.5599 -0.6704 -1.6722
  355MOL   H11543303   7.310   2.783   2.473  1.7888 -0.4900 -1.1675
  355MOL   C11643304   7.165   2.878   2.339 -0.1797 -0.3500  0.4529
  355MOL   C11743305   7.042   2.865   2.432  0.3101 -0.1706 -0.1080
  355MOL   F11843306   6.935   2.836   2.359 -0.0194  0.1727  0.2335
  355MOL   H11943307   7.150   2.968   2.279  1.6166 -0.7432 -0.6142
  355MOL   H12043308   7.161   2.799   2.264 -1.5834  0.7497 -0.6746
  355MOL   H12143309   7.019   2.962   2.476 -1.2398 -0.2101 -0.7773
  355MOL   H12243310   7.054   2.786   2.505 -3.1853 -1.0267 -0.3655
  356MOL     C143311   2.951   7.904   3.329  0.5128  0.2750  0.2973
  356MOL     C243312   2.957   7.760   3.381 -0.1285  0.4461  0.4648
  356MOL     F343313   3.079   7.732   3.431 -0.5735 -0.1650 -0.3041
  356MOL     H443314   3.030   7.929   3.258  1.5237 -2.6850  0.3316
  356MOL     H543315   2.950   7.967   3.418 -2.4777 -0.8159  1.0881
  356MOL     H643316   2.942   7.700   3.291 -0.8876  3.4389 -1.4751
  356MOL     H743317   2.855   7.932   3.284 -0.5121 -0.0820  2.1805
  356MOL     C843318   2.845   7.732   3.481  0.1965  1.0806 -0.1055
  356MOL     C943319   2.828   7.589   3.517  0.1972  0.3716  0.1999
  356MOL    F1043320   2.853   7.500   3.417 -0.1562 -0.4622 -0.3150
  356MOL    H1143321   2.874   7.783   3.573  1.9167  1.3483 -0.7829
  356MOL    H1243322   2.748   7.768   3.448  0.2602  1.6783  0.3520
  356MOL    H1343323   2.725   7.569   3.546  0.0791  0.6785 -0.0081
  356MOL    C1443324   2.918   7.544   3.630 -0.1648 -0.0128  0.2534
  356MOL    C1543325   2.892   7.411   3.699 -0.4756 -0.6019  0.0388
  356MOL    F1643326   2.999   7.413   3.785 -0.5024 -0.2589 -0.0513
  356MOL    H1743327   3.022   7.549   3.595 -0.9863  2.3708 -2.0309
  356MOL    H1843328   2.915   7.631   3.697  2.4259 -0.0254  0.4702
  356MOL    H1943329   2.900   7.327   3.630 -1.3674 -0.5662 -0.1099
  356MOL    C2043330   2.763   7.396   3.778  0.4126  0.9307 -0.4173
  356MOL    C2143331   2.749   7.260   3.841  0.4828 -0.4947  0.5694
  356MOL    F2243332   2.871   7.216   3.875  0.3246  0.1258  0.2056
  356MOL    H2343333   2.756   7.482   3.844 -2.8346  0.1401  0.3425
  356MOL    H2443334   2.678   7.414   3.713  0.4560  1.5312 -0.3067
  356MOL    H2543335   2.717   7.196   3.758 -0.2271 -2.0734  2.0413
  356MOL    C2643336   2.639   7.249   3.943  0.4905  0.0449 -0.2436
  356MOL    C2743337   2.497   7.274   3.884 -0.0036  0.5247  0.0834
  356MOL    F2843338   2.471   7.178   3.796  0.1611  0.3862 -0.4708
  356MOL    H2943339   2.650   7.153   3.994 -0.6691  0.3145  0.5189
  356MOL    H3043340   2.655   7.326   4.018  0.5509 -0.4483  0.2574
  356MOL    H3143341   2.478   7.366   3.828  0.7791  0.0482 -0.9893
  356MOL    C3243342   2.380   7.259   3.981  0.2028  0.3624  0.3507
  356MOL    C3343343   2.379   7.353   4.101 -0.0943 -0.4693 -0.0734
  356MOL    F3443344   2.397   7.471   4.041 -0.1109  0.4380 -0.6024
  356MOL    H3543345   2.290   7.265   3.918  0.5989  1.9037 -0.1006
  356MOL    H3643346   2.384   7.155   4.013 -0.5013 -0.5890 -2.4931
  356MOL    H3743347   2.474   7.341   4.152 -0.1944  0.9518  0.4719
  356MOL    C3843348   2.253   7.353   4.179 -0.1962 -0.2157 -0.2484
  356MOL    C3943349   2.225   7.458   4.288 -0.6143 -0.3270  0.1786
  356MOL    F4043350   2.223   7.586   4.251  0.1753  0.0554 -0.7051
  356MOL    H4143351   2.174   7.349   4.104 -1.6782 -0.4727  1.2983
  356MOL    H4243352   2.249   7.256   4.229 -0.7055  0.5264  1.1876
  356MOL    H4343353   2.307   7.455   4.360  0.1942 -0.4229 -0.7348
  356MOL    C4443354   2.096   7.430   4.376  0.4629 -0.1251  0.4949
  356MOL    C4543355   2.066   7.525   4.491  0.0890 -0.9398  0.1552
  356MOL    F4643356   1.947   7.512   4.545 -0.2874 -0.0287 -0.1552
  356MOL    H4743357   2.015   7.447   4.304  0.1791 -4.2461 -0.3023
  356MOL    H4843358   2.085   7.326   4.409  0.1650  0.1798  1.3659
  356MOL    H4943359   2.062   7.627   4.452 -0.0163 -0.8152  0.4919
  356MOL    C5043360   2.169   7.517   4.603 -0.7357 -0.0549  0.2148
  356MOL    C5143361   2.182   7.381   4.662 -0.5909 -0.1927  0.2651
  356MOL    F5243362   2.254   7.316   4.571 -0.2863  0.0850  0.0202
  356MOL    H5343363   2.262   7.551   4.557 -1.6653  0.6166 -1.2134
  356MOL    H5443364   2.155   7.578   4.692 -2.9216  1.5650 -1.1860
  356MOL    H5543365   2.087   7.327   4.668 -1.2732  0.3878 -3.8847
  356MOL    C5643366   2.251   7.370   4.798  0.0440 -0.3504 -0.5109
  356MOL    C5743367   2.294   7.225   4.830  0.4551  0.1655  0.4290
  356MOL    F5843368   2.355   7.246   4.944 -0.3093 -0.2177 -0.3812
  356MOL    H5943369   2.339   7.433   4.800 -0.0444 -0.2661  3.2948
  356MOL    H6043370   2.192   7.414   4.878  0.7983  0.9425 -0.6627
  356MOL    H6143371   2.375   7.195   4.763  1.5393 -0.2194  1.8897
  356MOL    C6243372   2.180   7.121   4.829 -0.3056 -0.3615 -0.7049
  356MOL    C6343373   2.230   6.970   4.845  0.5389  0.1539  0.0075
  356MOL    F6443374   2.297   6.961   4.954  0.4581  0.1320 -0.4073
  356MOL    H6543375   2.121   7.151   4.916  0.1784  0.2547 -0.5865
  356MOL    H6643376   2.128   7.122   4.734  1.0867 -1.4848 -1.5050
  356MOL    H6743377   2.290   6.936   4.760 -1.1701  0.0726 -1.2043
  356MOL    C6843378   2.117   6.864   4.853  0.6594 -0.6804 -0.4715
  356MOL    C6943379   2.163   6.712   4.846  0.7484  0.5246  1.1007
  356MOL    F7043380   2.230   6.698   4.734  0.4781 -0.3943 -0.1896
  356MOL    H7143381   2.062   6.893   4.943  0.8346  1.5067 -1.0401
  356MOL    H7243382   2.047   6.891   4.774  0.6971  0.8245  0.0057
  356MOL    H7343383   2.076   6.647   4.843  1.7423 -0.7766 -1.9999
  356MOL    C7443384   2.269   6.667   4.958 -0.0291  0.5835 -0.2048
  356MOL    C7543385   2.203   6.664   5.099 -0.2790 -0.2502  0.6636
  356MOL    F7643386   2.080   6.616   5.081  0.1916 -0.3503 -0.0045
  356MOL    H7743387   2.311   6.569   4.934 -1.4796 -0.5454  1.7654
  356MOL    H7843388   2.356   6.733   4.960 -0.8329  1.6503 -0.0040
  356MOL    H7943389   2.196   6.767   5.133  0.4371 -0.1883  0.6486
  356MOL    C8043390   2.288   6.578   5.184  0.4230  1.1169  0.3837
  356MOL    C8143391   2.272   6.613   5.331  0.3412  0.9030  0.3741
  356MOL    F8243392   2.155   6.570   5.376 -0.3009 -0.4401  0.0604
  356MOL    H8343393   2.274   6.473   5.156 -3.7716  1.7158 -0.0476
  356MOL    H8443394   2.386   6.617   5.157 -0.0499  1.5370 -0.7670
  356MOL    H8543395   2.275   6.721   5.346  0.6066  1.2222 -1.8971
  356MOL    C8643396   2.376   6.556   5.425 -0.7881  0.0338  0.0661
  356MOL    C8743397   2.520   6.592   5.401  0.4759 -0.2790 -0.3562
  356MOL    F8843398   2.538   6.723   5.431  0.7127 -0.0546  0.4871
  356MOL    H8943399   2.359   6.574   5.531  1.5279  0.7107  0.3502
  356MOL    H9043400   2.371   6.447   5.427  1.2547 -0.0878 -0.2815
  356MOL    H9143401   2.555   6.581   5.298  0.0977  1.4677 -0.6880
  356MOL    C9243402   2.623   6.507   5.494 -0.2633 -0.3877 -0.3442
  356MOL    C9343403   2.615   6.349   5.461 -0.1124 -0.2613  0.2187
  356MOL    F9443404   2.689   6.343   5.347 -0.3848  0.1883 -0.0431
  356MOL    H9543405   2.724   6.540   5.469  0.2118 -1.2957  0.3664
  356MOL    H9643406   2.615   6.536   5.598 -0.4382 -2.4949  0.2397
  356MOL    H9743407   2.523   6.309   5.418 -1.6184  2.4126  0.8068
  356MOL    C9843408   2.670   6.267   5.574  0.3344  0.1334  0.6089
  356MOL    C9943409   2.579   6.216   5.681  0.0097 -0.9284  0.2896
  356MOL   F10043410   2.481   6.150   5.621  0.2013 -0.6881  0.1859
  356MOL   H10143411   2.699   6.175   5.523 -0.9048  0.3011 -0.4339
  356MOL   H10243412   2.762   6.307   5.615 -0.5171  2.1938  0.5448
  356MOL   H10343413   2.533   6.300   5.734  1.1722  0.9750 -1.6136
  356MOL   C10443414   2.656   6.119   5.781 -1.0708 -0.3319  0.7599
  356MOL   C10543415   2.569   6.063   5.903 -0.0773  0.0231 -0.2078
  356MOL   F10643416   2.601   5.933   5.921  0.3142 -0.4486  0.0043
  356MOL   H10743417   2.723   6.046   5.736 -0.5335 -0.5506  1.8955
  356MOL   H10843418   2.725   6.190   5.826 -1.3050 -1.0966  2.3579
  356MOL   H10943419   2.470   6.073   5.859 -0.2731 -0.6584  0.0805
  356MOL   C11043420   2.578   6.138   6.034  0.1301 -0.8614 -0.1640
  356MOL   C11143421   2.474   6.094   6.146 -0.4574  0.1525 -0.2105
  356MOL   F11243422   2.500   6.146   6.269 -0.5311  0.4376  0.0649
  356MOL   H11343423   2.675   6.124   6.082  0.4594  0.7631 -0.3302
  356MOL   H11443424   2.587   6.245   6.015  0.4927 -1.0541 -1.1382
  356MOL   H11543425   2.492   5.987   6.157 -0.5417  0.0614 -0.9376
  356MOL   C11643426   2.321   6.122   6.114  0.1368 -0.0632 -0.1594
  356MOL   C11743427   2.278   6.265   6.081  0.4329 -0.2324 -0.0134
  356MOL   F11843428   2.340   6.303   5.968  0.1988  0.1427  0.2115
  356MOL   H11943429   2.299   6.073   6.019  2.0403  0.0124 -0.6687
  356MOL   H12043430   2.270   6.071   6.195 -0.2366 -0.9395 -0.9428
  356MOL   H12143431   2.310   6.337   6.156 -0.5428 -0.1045  0.2872
  356MOL   H12243432   2.170   6.269   6.067  0.5351 -0.8473 -1.0769
  357MOL     C143433   7.488   7.638   4.098  0.5001  0.4627 -0.7194
  357MOL     C243434   7.459   7.675   4.245  0.3225 -0.9740  0.8349
  357MOL     F343435   7.436   7.807   4.238 -0.0212  0.1804 -0.4711
  357MOL     H443436   7.569   7.704   4.068  2.8301 -1.2073  1.6584
  357MOL     H543437   7.404   7.641   4.028 -0.2323 -0.7552  0.0763
  357MOL     H643438   7.552   7.660   4.301  0.5305 -0.7651  0.5495
  357MOL     H743439   7.537   7.540   4.103 -0.3752  0.0636  0.3358
  357MOL     C843440   7.334   7.602   4.297  0.1219  0.1207  0.1008
  357MOL     C943441   7.346   7.444   4.296  0.0222  0.0681  0.4058
  357MOL    F1043442   7.452   7.430   4.383  0.0852  0.0248  0.2700
  357MOL    H1143443   7.297   7.648   4.389  1.7478  1.3608  0.1369
  357MOL    H1243444   7.251   7.624   4.230  0.8884  0.3525 -0.7755
  357MOL    H1343445   7.369   7.403   4.197 -0.2410  0.0794  0.3401
  357MOL    C1443446   7.214   7.394   4.359 -0.1159  0.1631 -0.5874
  357MOL    C1543447   7.228   7.242   4.395 -0.4763  0.1613  0.3788
  357MOL    F1643448   7.105   7.213   4.442 -0.7550 -0.3013  0.5196
  357MOL    H1743449   7.188   7.451   4.447  1.0063 -0.7144  0.3295
  357MOL    H1843450   7.129   7.410   4.292 -2.3942 -2.5424  1.5305
  357MOL    H1943451   7.302   7.223   4.473 -0.8407 -0.7749  0.5030
  357MOL    C2043452   7.250   7.161   4.260  0.3112  0.0791  0.0222
  357MOL    C2143453   7.219   7.013   4.292  0.1791  0.5868 -0.9345
  357MOL    F2243454   7.196   6.952   4.175  0.5093  0.2708 -0.1321
  357MOL    H2343455   7.174   7.203   4.194 -0.3133 -0.4820  0.3690
  357MOL    H2443456   7.345   7.175   4.209  0.5837  0.3132  0.6018
  357MOL    H2543457   7.122   6.998   4.338  0.7212  0.8860  0.3241
  357MOL    C2643458   7.341   6.942   4.355  0.4142 -0.0814  0.5206
  357MOL    C2743459   7.290   6.807   4.408 -0.0740  0.3475 -0.4149
  357MOL    F2843460   7.246   6.734   4.306  0.0952 -0.5069  0.1066
  357MOL    H2943461   7.415   6.912   4.281  0.3183  0.0406  0.3770
  357MOL    H3043462   7.391   6.991   4.439 -0.9101 -2.7428  2.9349
  357MOL    H3143463   7.207   6.820   4.477  0.7095  1.5574  0.2972
  357MOL    C3243464   7.394   6.713   4.471  0.7262 -0.0671 -0.6533
  357MOL    C3343465   7.435   6.753   4.615 -0.7286 -0.0979  0.5250
  357MOL    F3443466   7.323   6.754   4.687  0.1627 -0.4730  0.4206
  357MOL    H3543467   7.338   6.619   4.478  0.6646  0.0021 -0.1946
  357MOL    H3643468   7.484   6.701   4.412  0.2229 -1.3290 -1.1834
  357MOL    H3743469   7.484   6.851   4.619 -0.7778 -0.0575  0.1580
  357MOL    C3843470   7.521   6.649   4.690 -0.3830  1.3474  0.1782
  357MOL    C3943471   7.580   6.702   4.828 -0.3161 -0.1278  0.0177
  357MOL    F4043472   7.608   6.597   4.905  0.4588  0.1502  0.3262
  357MOL    H4143473   7.467   6.556   4.711 -0.4796  1.3706  0.0330
  357MOL    H4243474   7.603   6.618   4.626 -0.9704 -1.8818  0.8912
  357MOL    H4343475   7.502   6.762   4.875 -0.6632 -0.1328 -0.5493
  357MOL    C4443476   7.704   6.788   4.808 -0.4573  0.2782  0.4303
  357MOL    C4543477   7.770   6.835   4.936 -0.0687 -0.4944  0.0170
  357MOL    F4643478   7.697   6.933   5.000 -0.3293 -0.4130  0.0487
  357MOL    H4743479   7.781   6.741   4.746 -0.6580 -1.0773  1.1896
  357MOL    H4843480   7.675   6.876   4.749  1.2291 -0.0546 -0.9453
  357MOL    H4943481   7.863   6.887   4.911 -0.8095  1.2967  0.9223
  357MOL    C5043482   7.800   6.734   5.042 -0.1706 -0.0191  0.3043
  357MOL    C5143483   7.902   6.632   4.995  0.4340  0.4941 -0.2244
  357MOL    F5243484   0.000   6.690   4.932 -0.0589  0.1697  0.0852
  357MOL    H5343485   7.848   6.785   5.125 -0.6691  1.2750 -0.1926
  357MOL    H5443486   7.711   6.697   5.093 -0.7033 -0.6673 -1.0670
  357MOL    H5543487   7.854   6.556   4.934  0.6552 -0.4130  0.7183
  357MOL    C5643488   7.971   6.553   5.111 -0.1153 -0.5356  0.3817
  357MOL    C5743489   7.869   6.448   5.172  0.6226  0.2060 -0.6123
  357MOL    F5843490   7.831   6.362   5.080  0.1787  0.7751  0.0313
  357MOL    H5943491   0.059   6.503   5.077 -0.4719 -0.1798 -1.1197
  357MOL    H6043492   0.009   6.617   5.189 -0.9733 -1.7629  1.8791
  357MOL    H6143493   7.787   6.509   5.209 -0.2604 -0.1402 -1.9779
  357MOL    C6243494   7.925   6.369   5.293  0.3114  0.6683  0.4013
  357MOL    C6343495   7.816   6.291   5.381  0.0043  0.0742  0.6419
  357MOL    F6443496   7.768   6.194   5.293  0.4170  0.5709 -0.0982
  357MOL    H6543497   7.997   6.298   5.252  0.0990  0.6516  0.0563
  357MOL    H6643498   7.973   6.434   5.367  3.0784  0.0046 -0.7414
  357MOL    H6743499   7.727   6.348   5.406  1.8012  3.4828 -0.4090
  357MOL    C6843500   7.877   6.227   5.508 -0.9859  0.1824  0.1056
  357MOL    C6943501   7.787   6.114   5.566 -1.2390  0.4129  0.2676
  357MOL    F7043502   7.853   6.053   5.663 -0.1741 -0.9105  0.1227
  357MOL    H7143503   7.979   6.194   5.489 -1.3700 -0.6482 -0.5616
  357MOL    H7243504   7.883   6.303   5.586  0.3360 -0.6142  0.7885
  357MOL    H7343505   7.775   6.034   5.494  0.2500 -0.0501  0.5094
  357MOL    C7443506   7.645   6.163   5.610 -0.5080  0.5300  0.3170
  357MOL    C7543507   7.572   6.062   5.702  0.2239 -0.8316  0.1042
  357MOL    F7643508   7.483   6.123   5.781  0.3307  0.4348 -0.2262
  357MOL    H7743509   7.661   6.256   5.664 -0.1825  0.6129  0.0776
  357MOL    H7843510   7.581   6.175   5.522  0.0012 -1.1813 -0.3004
  357MOL    H7943511   7.643   6.009   5.766 -1.2618 -1.8729  0.9337
  357MOL    C8043512   7.498   5.943   5.636 -0.2123  0.0920  0.6037
  357MOL    C8143513   7.566   5.849   5.543  0.7087  0.4701  0.4455
  357MOL    F8243514   7.681   5.797   5.603  0.1969  0.0479  0.4530
  357MOL    H8343515   7.451   5.878   5.710 -1.9090  1.2661  0.5896
  357MOL    H8443516   7.411   5.992   5.593 -0.7503 -0.6593  0.8282
  357MOL    H8543517   7.594   5.914   5.460  0.4217  0.5218  0.3887
  357MOL    C8643518   7.480   5.733   5.502 -0.6081 -0.5872  0.5150
  357MOL    C8743519   7.552   5.647   5.393  0.0108  0.7774  0.4538
  357MOL    F8843520   7.503   5.523   5.418  0.6304 -0.5285 -0.2320
  357MOL    H8943521   7.437   5.679   5.586  0.6374 -3.4532 -0.6248
  357MOL    H9043522   7.386   5.770   5.462 -1.1118  2.0444  3.9061
  357MOL    H9143523   7.657   5.643   5.423  0.2986  2.8817 -0.1900
  357MOL    C9243524   7.529   5.695   5.245  0.4282  0.3854 -0.1556
  357MOL    C9343525   7.654   5.688   5.156 -0.4651 -0.2074  0.0063
  357MOL    F9443526   7.704   5.569   5.169  0.2086  0.4284  0.3314
  357MOL    H9543527   7.447   5.640   5.199  0.4840 -0.9242  1.2443
  357MOL    H9643528   7.497   5.799   5.245 -0.7219  0.0608  1.7667
  357MOL    H9743529   7.720   5.767   5.194 -2.9924  2.4014 -0.8964
  357MOL    C9843530   7.629   5.725   5.009  0.8028 -0.1899 -0.1785
  357MOL    C9943531   7.755   5.751   4.920  0.3191 -0.1552 -0.1099
  357MOL   F10043532   7.826   5.852   4.980 -0.0836 -0.8877 -0.3341
  357MOL   H10143533   7.564   5.656   4.956 -0.9958  0.6084  0.9452
  357MOL   H10243534   7.569   5.816   5.011  1.9835  0.5800  0.6340
  357MOL   H10343535   7.728   5.790   4.822 -2.1540  0.6866  0.8641
  357MOL   C10443536   7.850   5.628   4.905 -0.4056  0.1280 -0.8520
  357MOL   C10543537   7.966   5.649   4.809 -0.3540 -0.1857  0.3066
  357MOL   F10643538   0.047   5.741   4.858 -0.2854  0.0520 -0.4371
  357MOL   H10743539   7.888   5.593   5.001 -0.1342 -1.6478 -1.5897
  357MOL   H10843540   7.787   5.551   4.861 -1.5872  2.0978 -2.7094
  357MOL   H10943541   7.925   5.686   4.714 -0.7312  1.4251  1.0831
  357MOL   C11043542   0.041   5.521   4.780 -0.0554 -0.8109  0.3189
  357MOL   C11143543   0.101   5.521   4.630 -1.2091 -0.2053 -0.2463
  357MOL   F11243544   0.189   5.422   4.616  0.1698  0.1751  0.6341
  357MOL   H11343545   0.111   5.492   4.858  0.6469  0.9878  0.3602
  357MOL   H11443546   7.973   5.438   4.785  0.6034 -1.3682  0.5046
  357MOL   H11543547   0.159   5.613   4.620 -1.5597  0.4660  3.1525
  357MOL   C11643548   7.996   5.515   4.518  0.1820  0.4031  0.4070
  357MOL   C11743549   0.047   5.491   4.376 -0.5251  0.7851  0.1030
  357MOL   F11843550   7.957   5.526   4.294 -0.3264 -0.1520  0.2983
  357MOL   H11943551   7.924   5.436   4.538 -0.5189  1.6298  2.8775
  357MOL   H12043552   7.945   5.611   4.526  3.1671  2.1282 -0.6976
  357MOL   H12143553   0.074   5.387   4.357  0.5844  0.8409  1.2774
  357MOL   H12243554   0.137   5.550   4.361 -0.5262  0.5941 -0.6601
  358MOL     C143555   0.244   6.967   4.510 -0.4073 -0.9567  0.2658
  358MOL     C243556   0.250   7.053   4.628  0.9427 -0.2481 -0.2036
  358MOL     F343557   0.363   7.033   4.693 -0.0322 -0.2368 -0.4761
  358MOL     H443558   0.251   6.863   4.542  0.9986 -0.6786  0.9023
  358MOL     H543559   0.325   6.979   4.438 -0.9525  2.3593  0.1424
  358MOL     H643560   0.169   7.025   4.695  2.8125  0.7381  2.5559
  358MOL     H743561   0.161   6.988   4.443 -0.3752 -0.0857  0.4945
  358MOL     C843562   0.252   7.201   4.591  0.1870  0.5243  0.6127
  358MOL     C943563   0.290   7.304   4.703  0.0901  0.5290 -0.1338
  358MOL    F1043564   0.428   7.294   4.728 -0.2281  0.2481  0.3710
  358MOL    H1143565   0.331   7.201   4.516  0.1909 -2.8413  0.5254
  358MOL    H1243566   0.165   7.235   4.534 -0.2171 -1.0078  0.2869
  358MOL    H1343567   0.247   7.272   4.798  1.3237  1.3197  0.6905
  358MOL    C1443568   0.243   7.448   4.668 -0.0208 -1.2456  0.2673
  358MOL    C1543569   0.289   7.543   4.782  0.5206 -0.1092  0.0202
  358MOL    F1643570   0.243   7.665   4.750 -0.5312  0.2773 -0.6415
  358MOL    H1743571   0.295   7.479   4.578  1.0726 -1.7623  0.7085
  358MOL    H1843572   0.136   7.456   4.647  0.2278  0.3817 -0.4698
  358MOL    H1943573   0.398   7.551   4.774  0.5184 -0.6724 -0.6304
  358MOL    C2043574   0.237   7.521   4.924  0.3249  0.1125 -0.6128
  358MOL    C2143575   0.300   7.625   5.031  0.3970 -0.1107  0.0509
  358MOL    F2243576   0.239   7.598   5.152  0.1694 -0.1778 -0.1678
  358MOL    H2343577   0.129   7.536   4.925  0.0286 -1.7843 -1.9886
  358MOL    H2443578   0.274   7.423   4.954  1.1721  0.7261  0.3822
  358MOL    H2543579   0.275   7.726   4.998  3.7027  0.1846 -1.7102
  358MOL    C2643580   0.449   7.626   5.038 -0.1982 -0.5510  0.2858
  358MOL    C2743581   0.508   7.695   5.166 -0.0846  0.4708  0.2122
  358MOL    F2843582   0.628   7.638   5.182  0.1413 -0.0257  0.1226
  358MOL    H2943583   0.484   7.522   5.043 -1.0085 -0.8362  0.0853
  358MOL    H3043584   0.503   7.678   4.959  0.6967  2.1936  2.6547
  358MOL    H3143585   0.452   7.673   5.258  1.3509  2.1096  1.5165
  358MOL    C3243586   0.528   7.850   5.165  0.0347  0.1294  0.7745
  358MOL    C3343587   0.422   7.939   5.226 -0.2931  0.3910 -0.2625
  358MOL    F3443588   0.387   7.898   5.357 -0.4509 -0.3865  0.5903
  358MOL    H3543589   0.620   7.864   5.222 -0.7193  1.3135  1.7292
  358MOL    H3643590   0.544   7.870   5.059  0.0114 -0.5955  0.6344
  358MOL    H3743591   0.329   7.938   5.168 -1.4706 -1.4879  1.5736
  358MOL    C3843592   0.468   0.075   5.257 -0.3844 -0.1325  0.1091
  358MOL    C3943593   0.365   0.191   5.288  0.1642 -0.2832 -0.2956
  358MOL    F4043594   0.296   0.137   5.395  0.1201  0.2495 -0.2848
  358MOL    H4143595   0.546   0.069   5.333  0.2214  1.6712 -0.3406
  358MOL    H4243596   0.528   0.114   5.175  1.1350  0.8951  1.6801
  358MOL    H4343597   0.297   0.203   5.204 -2.9336 -2.2114  1.8110
  358MOL    C4443598   0.440   0.322   5.333 -0.4118 -0.3962  0.1062
  358MOL    C4543599   0.358   0.453   5.331 -0.1844  0.0166 -0.6214
  358MOL    F4643600   0.332   0.462   5.204  0.1914 -0.8233  0.1198
  358MOL    H4743601   0.504   0.311   5.421  0.1115 -0.1021 -0.2382
  358MOL    H4843602   0.514   0.350   5.259  1.3887 -1.9136  1.2847
  358MOL    H4943603   0.419   0.541   5.355  1.0490 -0.4874 -1.8343
  358MOL    C5043604   0.243   0.446   5.423 -0.2294  0.2159 -0.4482
  358MOL    C5143605   0.160   0.575   5.398  0.0229  0.6309  0.0643
  358MOL    F5243606   0.040   0.566   5.456 -0.3769 -0.1452  0.1701
  358MOL    H5343607   0.184   0.363   5.383 -1.1632  0.7809 -0.2521
  358MOL    H5443608   0.267   0.439   5.529  0.5643  0.8114 -0.5811
  358MOL    H5543609   0.141   0.594   5.292 -2.6733 -0.3350  0.3248
  358MOL    C5643610   0.219   0.699   5.468 -0.1775 -0.0767  0.6986
  358MOL    C5743611   0.241   0.831   5.387  0.0644 -0.4567 -0.2582
  358MOL    F5843612   0.323   0.792   5.293  0.1481  0.8284 -0.3333
  358MOL    H5943613   0.155   0.732   5.549 -0.2964  0.1602  0.5094
  358MOL    H6043614   0.318   0.673   5.506  1.2300  1.9311 -1.4422
  358MOL    H6143615   0.283   0.909   5.451  0.6203 -0.9579 -0.0102
  358MOL    C6243616   0.121   0.897   5.323 -0.0840 -0.1710  0.7886
  358MOL    C6343617   0.148   1.029   5.237 -0.0796  0.0097 -0.1635
  358MOL    F6443618   0.058   1.038   5.136  0.0838  0.1980  0.4053
  358MOL    H6543619   0.070   0.822   5.262 -2.8572  1.3375  1.1489
  358MOL    H6643620   0.045   0.916   5.399  0.4491  0.6888  1.1065
  358MOL    H6743621   0.240   0.997   5.188 -1.4850 -2.0034 -1.6255
  358MOL    C6843622   0.158   1.163   5.314 -0.0737 -1.0124 -0.5165
  358MOL    C6943623   0.029   1.200   5.392  0.7542 -0.2056 -0.4974
  358MOL    F7043624   0.026   1.128   5.512  0.2238  0.4620  0.2106
  358MOL    H7143625   0.251   1.165   5.371  0.7120  1.3887 -1.8385
  358MOL    H7243626   0.171   1.238   5.236 -1.3507 -0.0383  0.1912
  358MOL    H7343627   7.940   1.161   5.347  1.0866 -1.8269  0.1632
  358MOL    C7443628   0.015   1.353   5.436  0.1303  0.3483 -0.6069
  358MOL    C7543629   0.145   1.402   5.496  0.8421  0.3677  0.0223
  358MOL    F7643630   0.217   1.459   5.397  0.3992 -0.5775 -0.1493
  358MOL    H7743631   7.981   1.408   5.349 -0.7263  0.0404 -0.4447
  358MOL    H7843632   7.943   1.361   5.515 -0.6160 -3.2834 -0.8535
  358MOL    H7943633   0.205   1.317   5.529  0.4090  0.0838  0.0735
  358MOL    C8043634   0.126   1.499   5.610 -0.1274  0.2416 -0.8039
  358MOL    C8143635   0.024   1.620   5.590  0.1506  0.7516  0.4014
  358MOL    F8243636   7.903   1.580   5.558 -0.4971 -0.8212  0.0473
  358MOL    H8343637   0.102   1.440   5.699  1.1808 -0.4165 -0.8844
  358MOL    H8443638   0.223   1.542   5.636 -0.5602  0.5094  0.4242
  358MOL    H8543639   0.058   1.657   5.494 -0.8915 -2.3912 -1.2510
  358MOL    C8643640   0.040   1.723   5.707  0.3492  0.3064  0.5047
  358MOL    C8743641   7.918   1.820   5.709 -0.1935 -0.0034  0.0825
  358MOL    F8843642   7.946   1.914   5.794 -0.0081  0.7675  0.1104
  358MOL    H8943643   0.036   1.669   5.801  0.7531  0.0933  0.3985
  358MOL    H9043644   0.127   1.786   5.688 -1.5283  2.8935  0.0947
  358MOL    H9143645   7.829   1.770   5.748 -0.6594 -0.2939 -1.2915
  358MOL    C9243646   7.896   1.905   5.577  0.1532 -0.0121  0.3552
  358MOL    C9343647   7.759   1.874   5.515  0.1958  0.1101  0.2007
  358MOL    F9443648   7.671   1.877   5.610  0.1209 -0.1092  0.6316
  358MOL    H9543649   7.913   2.012   5.582  2.4927 -0.2541 -1.6328
  358MOL    H9643650   7.978   1.883   5.508 -1.4835  1.3371 -2.0687
  358MOL    H9743651   7.763   1.768   5.494 -1.4252  0.3601 -1.4738
  358MOL    C9843652   7.719   1.965   5.394 -0.3704 -0.2043  0.0862
  358MOL    C9943653   7.582   1.941   5.339  0.3632 -0.0206  0.1871
  358MOL   F10043654   7.554   2.044   5.254 -0.3301  0.3052 -0.1636
  358MOL   H10143655   7.718   2.071   5.422  0.9266  0.1793 -1.2172
  358MOL   H10243656   7.786   1.959   5.308 -1.8822 -0.4349 -1.0866
  358MOL   H10343657   7.505   1.966   5.411  1.6590  3.1293  0.5729
  358MOL   C10443658   7.558   1.818   5.251 -0.2017  0.3689 -0.4694
  358MOL   C10543659   7.413   1.814   5.190  0.2371  0.0923  0.3621
  358MOL   F10643660   7.423   1.832   5.062  0.3593  0.0347  0.2876
  358MOL   H10743661   7.628   1.803   5.168  1.2582  0.8960  0.6606
  358MOL   H10843662   7.577   1.726   5.306 -0.3171  0.3721 -0.4240
  358MOL   H10943663   7.339   1.885   5.226  0.3700  0.0512  0.7205
  358MOL   C11043664   7.342   1.677   5.228  0.2995 -0.0881 -0.0722
  358MOL   C11143665   7.208   1.659   5.152 -0.1898 -0.0541 -0.0255
  358MOL   F11243666   7.212   1.709   5.030 -0.0248 -0.1038 -0.3227
  358MOL   H11343667   7.409   1.593   5.205 -2.5983 -2.3210 -0.6647
  358MOL   H11443668   7.321   1.659   5.333  0.4106  0.6980  0.0842
  358MOL   H11543669   7.144   1.727   5.207  2.0864  1.3281  1.0051
  358MOL   C11643670   7.151   1.517   5.162  0.2237  0.0288  0.2545
  358MOL   C11743671   7.007   1.496   5.110 -0.5142  0.3665  0.4014
  358MOL   F11843672   6.932   1.502   5.221  0.2063 -0.2998 -0.1602
  358MOL   H11943673   7.221   1.454   5.108 -0.9754 -1.5427  0.5028
  358MOL   H12043674   7.145   1.491   5.268  0.4636 -0.6303  0.1043
  358MOL   H12143675   6.995   1.395   5.070 -0.9151 -0.6374  2.9541
  358MOL   H12243676   6.967   1.570   5.041 -3.5483  0.5466  2.3138
  359MOL     C143677   4.478   5.405   5.689  0.4462 -0.1285 -0.5986
  359MOL     C243678   4.621   5.456   5.698 -0.0241 -0.9331 -0.6534
  359MOL     F343679   4.655   5.508   5.583 -0.3120  0.0588 -0.6254
  359MOL     H443680   4.408   5.487   5.673 -0.3642 -0.4328  1.2993
  359MOL     H543681   4.444   5.339   5.768 -1.1284 -1.3842 -2.2900
  359MOL     H643682   4.688   5.372   5.717  2.4221  0.8994 -1.0799
  359MOL     H743683   4.482   5.336   5.605  1.3428  1.1486 -1.6231
  359MOL     C843684   4.637   5.562   5.811  0.4135  0.2666  0.0211
  359MOL     C943685   4.672   5.498   5.952 -0.1854  0.0342 -0.4744
  359MOL    F1043686   4.791   5.429   5.943  0.1279  0.1173 -0.4030
  359MOL    H1143687   4.721   5.627   5.783 -0.8865  2.4855  1.1116
  359MOL    H1243688   4.553   5.630   5.825  1.3886  1.3533  0.7115
  359MOL    H1343689   4.589   5.432   5.977 -1.0872  0.9460 -1.0460
  359MOL    C1443690   4.685   5.613   6.056  0.2913 -0.4861  0.4644
  359MOL    C1543691   4.804   5.719   6.052  0.0402  0.6590 -0.1543
  359MOL    F1643692   4.787   5.786   5.939  0.0299  0.0573 -0.3231
  359MOL    H1743693   4.590   5.665   6.069  0.2598 -0.2800 -0.5585
  359MOL    H1843694   4.690   5.563   6.153  0.8002  1.4420  1.4634
  359MOL    H1943695   4.897   5.664   6.040 -0.4732 -0.0866 -0.7587
  359MOL    C2043696   4.834   5.818   6.172 -0.5774  0.3888 -0.7424
  359MOL    C2143697   4.852   5.746   6.307  0.0957  0.5562 -0.6178
  359MOL    F2243698   4.947   5.659   6.285 -0.3621 -0.1015 -0.1420
  359MOL    H2343699   4.931   5.859   6.143 -0.9437  1.0852 -1.0011
  359MOL    H2443700   4.763   5.901   6.170  0.4258  1.2525 -3.9129
  359MOL    H2543701   4.760   5.693   6.331  0.3593  0.4576  0.1867
  359MOL    C2643702   4.879   5.837   6.425  0.0286  0.2599  0.5210
  359MOL    C2743703   4.742   5.900   6.479 -0.4143  0.2158  0.3304
  359MOL    F2843704   4.673   5.798   6.534  0.2963  0.0674  0.2199
  359MOL    H2943705   4.932   5.793   6.510  0.5915 -1.2766 -0.6052
  359MOL    H3043706   4.938   5.922   6.393  3.2846 -1.1749  2.4474
  359MOL    H3143707   4.672   5.928   6.401 -1.4140 -2.8942  0.0550
  359MOL    C3243708   4.756   6.020   6.579 -0.3888 -0.5740 -0.0091
  359MOL    C3343709   4.815   6.154   6.526  0.3160 -0.1090 -0.6446
  359MOL    F3443710   4.723   6.183   6.435  0.0949 -0.1050  0.7852
  359MOL    H3543711   4.663   6.041   6.631 -0.6658 -0.8553 -0.3851
  359MOL    H3643712   4.821   5.984   6.659  1.3679 -0.1920 -1.2450
  359MOL    H3743713   4.911   6.142   6.477  1.2359 -1.3650  1.4219
  359MOL    C3843714   4.820   6.271   6.623 -1.0735  0.0717 -0.3329
  359MOL    C3943715   4.920   6.252   6.738  0.6526  0.3257  0.0199
  359MOL    F4043716   5.040   6.215   6.688  0.4272 -0.3433 -0.2272
  359MOL    H4143717   4.831   6.364   6.568 -0.7769  1.1040  1.4464
  359MOL    H4243718   4.720   6.277   6.666 -0.9961  0.6427 -0.2288
  359MOL    H4343719   4.886   6.170   6.802 -0.7986  1.3538  0.5930
  359MOL    C4443720   4.939   6.380   6.832 -0.0802  0.6694  0.0686
  359MOL    C4543721   4.828   6.393   6.930  0.3295 -0.1762  0.3518
  359MOL    F4643722   4.805   6.272   6.989 -0.0329 -0.1598  0.2654
  359MOL    H4743723   5.032   6.374   6.889 -1.2470 -0.1460  1.9068
  359MOL    H4843724   4.954   6.470   6.773  0.5321  0.5042 -0.0323
  359MOL    H4943725   4.733   6.410   6.880  1.9230  2.6903 -1.8828
  359MOL    C5043726   4.843   6.496   7.040  0.2802 -0.0154 -0.3712
  359MOL    C5143727   4.852   6.641   6.990 -0.2398  0.4183 -0.5512
  359MOL    F5243728   4.743   6.688   6.940  0.2735 -0.0149 -0.6564
  359MOL    H5343729   4.762   6.493   7.113  0.5715  2.0361  0.0711
  359MOL    H5443730   4.932   6.466   7.096  1.0629  1.4878 -0.8078
  359MOL    H5543731   4.927   6.642   6.911  0.5210  0.7197  0.1651
  359MOL    C5643732   4.893   6.737   7.106  0.1078 -0.0375  0.0571
  359MOL    C5743733   4.940   6.875   7.047 -0.4554  0.1624 -0.1704
  359MOL    F5843734   4.834   6.942   7.017 -0.5728 -0.3909  0.2093
  359MOL    H5943735   4.811   6.761   7.174  0.7880  0.0711  0.8535
  359MOL    H6043736   4.974   6.700   7.168  0.2729  0.2825  0.0352
  359MOL    H6143737   5.001   6.858   6.958 -0.8354  0.3493 -0.4698
  359MOL    C6243738   5.022   6.955   7.159  0.1878 -0.0606  0.8998
  359MOL    C6343739   5.142   7.039   7.093  0.0486  0.3125 -0.0442
  359MOL    F6443740   5.221   6.960   7.022  0.2699 -0.1532 -0.4835
  359MOL    H6543741   4.954   7.022   7.211 -1.0215  0.7300 -1.6260
  359MOL    H6643742   5.066   6.886   7.231  0.7833  1.3095  1.8642
  359MOL    H6743743   5.217   7.076   7.163  1.5654 -1.0542 -0.9262
  359MOL    C6843744   5.096   7.162   7.014  0.2277 -0.1203  0.9313
  359MOL    C6943745   5.211   7.235   6.929  0.3631 -0.3535 -1.2096
  359MOL    F7043746   5.215   7.176   6.804  0.7763 -0.2225  0.0774
  359MOL    H7143747   5.013   7.142   6.945  2.7210 -2.8281 -1.4423
  359MOL    H7243748   5.064   7.230   7.093 -0.4539  1.4508 -0.6654
  359MOL    H7343749   5.306   7.215   6.979 -0.4581  0.9100  0.9230
  359MOL    C7443750   5.192   7.385   6.908  0.4195 -0.2351 -0.7190
  359MOL    C7543751   5.317   7.449   6.865  0.6364  0.2915  0.0379
  359MOL    F7643752   5.291   7.530   6.764  0.0080 -0.1750  0.2803
  359MOL    H7743753   5.107   7.394   6.841 -1.3873 -1.9385  1.2514
  359MOL    H7843754   5.154   7.426   7.002  0.9681 -0.9034 -0.1887
  359MOL    H7943755   5.387   7.379   6.818 -0.1103 -0.6597  0.3296
  359MOL    C8043756   5.390   7.515   6.979 -0.2367  0.2895  0.6188
  359MOL    C8143757   5.526   7.567   6.940  0.3215  0.0936 -0.3492
  359MOL    F8243758   5.501   7.687   6.884  0.4372 -0.7551  0.1112
  359MOL    H8343759   5.326   7.595   7.018  0.5903  2.0258 -1.4955
  359MOL    H8443760   5.402   7.444   7.061 -1.0860 -0.1379  0.3888
  359MOL    H8543761   5.571   7.515   6.856 -2.3856 -1.0050 -1.1902
  359MOL    C8643762   5.624   7.583   7.059 -0.8926 -1.0025 -1.0181
  359MOL    C8743763   5.766   7.634   7.018 -0.1731 -0.5851  0.7554
  359MOL    F8843764   5.764   7.769   6.993 -0.3884  0.3826  0.1404
  359MOL    H8943765   5.578   7.644   7.137  0.6837 -1.7497  0.4997
  359MOL    H9043766   5.633   7.489   7.112  3.8413  1.2587  2.5559
  359MOL    H9143767   5.789   7.586   6.923 -1.3829 -0.8618  0.5980
  359MOL    C9243768   5.880   7.606   7.120  0.0754 -0.0869 -0.1587
  359MOL    C9343769   5.901   7.459   7.161  0.1013  0.1324 -0.0427
  359MOL    F9443770   5.885   7.382   7.052 -0.0362  0.1815  0.9093
  359MOL    H9543771   5.969   7.642   7.067  0.8301  1.0097  1.8073
  359MOL    H9643772   5.879   7.669   7.208 -0.2799  1.2506 -1.0999
  359MOL    H9743773   5.829   7.427   7.236  0.2292 -0.5481 -0.2124
  359MOL    C9843774   6.038   7.435   7.216  0.3818  0.0149  0.0562
  359MOL    C9943775   6.051   7.295   7.275  0.7448 -0.4495  0.1637
  359MOL   F10043776   6.060   7.210   7.175 -0.1210 -0.3720  0.3014
  359MOL   H10143777   6.105   7.447   7.131  1.9670 -2.9624  0.8077
  359MOL   H10243778   6.050   7.511   7.293 -0.0937  1.2872 -1.1004
  359MOL   H10343779   5.963   7.267   7.333 -0.5085  0.0909 -1.4537
  359MOL   C10443780   6.187   7.280   7.353  0.3560 -0.1348 -0.1433
  359MOL   C10543781   6.220   7.140   7.400  0.0344  0.1601  0.2639
  359MOL   F10643782   6.349   7.139   7.439  0.0074 -0.4160 -0.1849
  359MOL   H10743783   6.271   7.325   7.300  0.7034 -2.6902 -1.8446
  359MOL   H10843784   6.177   7.347   7.438  0.7259  0.5009 -0.5922
  359MOL   H10943785   6.201   7.077   7.312 -1.0283  0.0316  0.5760
  359MOL   C11043786   6.136   7.084   7.511  0.4981 -0.4142  0.0428
  359MOL   C11143787   6.159   6.931   7.531 -0.0534  0.2270 -0.1127
  359MOL   F11243788   6.127   6.922   7.659 -0.1231  0.5748 -0.1019
  359MOL   H11343789   6.152   7.135   7.606 -0.5310 -3.8613  2.1713
  359MOL   H11443790   6.032   7.109   7.492  0.5234  0.7948  1.4406
  359MOL   H11543791   6.266   6.907   7.532  0.0073  0.4316 -1.1104
  359MOL   C11643792   6.064   6.843   7.443  0.4900 -0.0667  0.0797
  359MOL   C11743793   6.068   6.694   7.483 -0.0636 -0.1116 -0.3848
  359MOL   F11843794   5.980   6.624   7.418  0.1251  0.4669 -0.2055
  359MOL   H11943795   5.962   6.878   7.452  0.1130 -0.5761 -2.0320
  359MOL   H12043796   6.091   6.856   7.338  0.9600 -0.4313  0.1517
  359MOL   H12143797   6.040   6.684   7.587 -1.0283  1.1752 -0.5181
  359MOL   H12243798   6.169   6.655   7.468 -0.4972 -1.3267 -0.2192
  360MOL     C143799   2.522   3.688   7.494 -0.1716  0.2251  0.2700
  360MOL     C243800   2.394   3.702   7.405 -0.0338  0.3142  0.2581
  360MOL     F343801   2.310   3.605   7.442  0.4598 -0.3272 -0.4179
  360MOL     H443802   2.578   3.603   7.456  2.2910  1.2636  1.5078
  360MOL     H543803   2.497   3.673   7.599  0.2451  1.2080  0.5185
  360MOL     H643804   2.420   3.673   7.303 -2.2251 -1.7881  0.2719
  360MOL     H743805   2.591   3.771   7.477 -1.5466  1.7220  1.7949
  360MOL     C843806   2.331   3.838   7.413 -0.0094  0.1632 -0.2211
  360MOL     C943807   2.415   3.950   7.362 -0.5917 -0.1671 -0.0337
  360MOL    F1043808   2.459   3.918   7.242 -0.4530 -0.2334  0.0484
  360MOL    H1143809   2.238   3.832   7.357 -1.2657 -0.4407  1.9020
  360MOL    H1243810   2.299   3.855   7.516 -0.5678  1.8462 -0.6569
  360MOL    H1343811   2.510   3.976   7.410 -1.0808 -1.5565  1.7206
  360MOL    C1443812   2.347   4.082   7.349 -0.1750 -0.3198 -0.3311
  360MOL    C1543813   2.326   4.148   7.480  0.0105  0.1724  0.2397
  360MOL    F1643814   2.428   4.128   7.565  0.7234 -0.9530  0.0579
  360MOL    H1743815   2.415   4.143   7.289 -0.2806  1.4089  1.2638
  360MOL    H1843816   2.250   4.081   7.298 -0.3768 -1.3069  0.0674
  360MOL    H1943817   2.244   4.098   7.530 -1.1848  1.9937  0.1337
  360MOL    C2043818   2.308   4.301   7.472 -0.0106  0.2520  0.5707
  360MOL    C2143819   2.173   4.361   7.431 -0.5835  0.1729  0.6985
  360MOL    F2243820   2.085   4.330   7.525 -0.2109 -0.7959 -0.3704
  360MOL    H2343821   2.341   4.348   7.565 -0.3904 -0.6049  1.1362
  360MOL    H2443822   2.370   4.349   7.396 -1.0205  0.2809 -0.2508
  360MOL    H2543823   2.139   4.304   7.345 -0.6267  1.9616 -0.4944
  360MOL    C2643824   2.166   4.509   7.399  0.5079 -0.5098  0.8072
  360MOL    C2743825   2.213   4.611   7.502 -0.5427  0.1944 -0.0093
  360MOL    F2843826   2.342   4.596   7.518  0.5275 -0.4313 -0.2700
  360MOL    H2943827   2.217   4.532   7.305 -2.2071  1.3239 -0.2901
  360MOL    H3043828   2.061   4.532   7.380 -0.1248 -1.6821  2.8141
  360MOL    H3143829   2.175   4.600   7.604 -0.0862 -0.6021  0.0809
  360MOL    C3243830   2.185   4.750   7.457 -0.4633 -0.0037 -0.6488
  360MOL    C3343831   2.259   4.859   7.529  0.2522 -0.0734  0.3518
  360MOL    F3443832   2.239   4.984   7.477  0.0003 -0.2771 -0.0419
  360MOL    H3543833   2.209   4.757   7.351 -1.4328 -1.8482 -1.0177
  360MOL    H3643834   2.077   4.764   7.456 -0.4468  0.5881  2.2820
  360MOL    H3743835   2.366   4.840   7.523 -0.0871 -1.3399 -2.1271
  360MOL    C3843836   2.240   4.871   7.685  0.7147  0.0262  0.0754
  360MOL    C3943837   2.346   4.951   7.767  0.5817  0.3483  0.6228
  360MOL    F4043838   2.290   4.985   7.878 -0.1325  0.0169  0.5398
  360MOL    H4143839   2.138   4.905   7.699  0.0991 -1.3493 -0.9038
  360MOL    H4243840   2.239   4.771   7.730 -0.0413  0.1031  0.2332
  360MOL    H4343841   2.376   5.042   7.714 -2.4825  2.4300  2.3409
  360MOL    C4443842   2.471   4.872   7.800  0.6453  0.0355  0.2098
  360MOL    C4543843   2.588   4.893   7.693  0.3007 -0.4346 -0.7576
  360MOL    F4643844   2.624   5.022   7.695 -0.0984 -0.4223 -0.1520
  360MOL    H4743845   2.506   4.918   7.892 -0.9164  1.6397  0.0274
  360MOL    H4843846   2.453   4.769   7.832 -0.9688  0.1888 -0.1822
  360MOL    H4943847   2.560   4.859   7.594  0.0945  1.2735 -1.3067
  360MOL    C5043848   2.714   4.815   7.740  0.4353  0.1045  0.2243
  360MOL    C5143849   2.705   4.663   7.727  0.0112 -0.5459  0.3290
  360MOL    F5243850   2.680   4.649   7.600 -0.4623  0.3175  0.1136
  360MOL    H5343851   2.794   4.853   7.677 -0.6633 -0.9755 -1.8756
  360MOL    H5443852   2.745   4.839   7.842 -0.3875  0.8106  0.3174
  360MOL    H5543853   2.622   4.628   7.788 -3.6840  0.6027 -3.7489
  360MOL    C5643854   2.839   4.598   7.758 -0.9497 -0.1145 -0.4093
  360MOL    C5743855   2.889   4.613   7.906  0.1972  0.4936  0.1412
  360MOL    F5843856   2.788   4.562   7.982 -0.1793 -0.0227  0.4802
  360MOL    H5943857   2.832   4.496   7.721 -1.6118  0.4949 -2.0665
  360MOL    H6043858   2.909   4.634   7.682  0.1662 -3.3153 -0.9510
  360MOL    H6143859   2.915   4.717   7.927  0.2206  0.6516 -0.6530
  360MOL    C6243860   3.007   4.525   7.927 -0.2351  0.2399 -0.0895
  360MOL    C6343861   3.142   4.595   7.907 -0.5630 -0.6014 -0.0978
  360MOL    F6443862   3.139   4.655   7.792  0.1856  0.1297 -0.4912
  360MOL    H6543863   3.002   4.488   0.026  0.4060  1.2271  0.3130
  360MOL    H6643864   2.997   4.435   7.866 -0.3619  1.5346 -2.0171
  360MOL    H6743865   3.217   4.519   7.885 -0.3477 -1.0052  1.9097
  360MOL    C6843866   3.184   4.693   0.018  0.2545 -0.1331 -0.3229
  360MOL    C6943867   3.329   4.739   0.010 -0.0449  0.6914 -0.8443
  360MOL    F7043868   3.350   4.799   7.899  0.2221  0.1496  0.0100
  360MOL    H7143869   3.121   4.781   0.014  1.7315  0.9396 -0.4731
  360MOL    H7243870   3.171   4.653   0.119 -0.0759  1.8670  0.4609
  360MOL    H7343871   3.390   4.649   0.002 -0.3389  0.4144 -0.0392
  360MOL    C7443872   3.379   4.809   0.143  0.0988 -0.1034 -0.8241
  360MOL    C7543873   3.369   4.961   0.148 -0.1429 -0.9817 -0.0635
  360MOL    F7643874   3.236   4.997   0.124  0.2287  0.0464  0.5666
  360MOL    H7743875   3.322   4.774   0.230  1.2434  0.4267  0.1543
  360MOL    H7843876   3.484   4.786   0.157  0.6462  0.9313 -3.0921
  360MOL    H7943877   3.440   5.001   0.076 -0.6207  0.4408  0.2339
  360MOL    C8043878   3.401   5.024   0.288  0.0071  0.4068 -0.7456
  360MOL    C8143879   3.551   5.028   0.339  0.1544 -0.0685  0.0271
  360MOL    F8243880   3.634   5.076   0.250 -0.2517 -0.1896 -0.3372
  360MOL    H8343881   3.352   5.119   0.308 -1.7996 -0.2065 -2.1280
  360MOL    H8443882   3.346   4.954   0.351  1.1108 -0.3626 -0.6087
  360MOL    H8543883   3.583   4.925   0.352  0.4670 -0.4295 -3.3063
  360MOL    C8643884   3.576   5.084   0.481 -0.7383  0.1032 -0.1238
  360MOL    C8743885   3.590   5.241   0.497 -0.0712  0.5317 -0.0302
  360MOL    F8843886   3.474   5.301   0.491  0.5011  0.1480  0.1573
  360MOL    H8943887   3.495   5.047   0.544 -0.7515 -1.5992 -1.0929
  360MOL    H9043888   3.661   5.031   0.523 -0.3370  1.6173  1.0365
  360MOL    H9143889   3.660   5.295   0.433  0.8851 -1.5999 -0.7948
  360MOL    C9243890   3.642   5.283   0.641 -0.0211  1.2046  0.1643
  360MOL    C9343891   3.787   5.250   0.656  0.2817  0.0951 -0.5366
  360MOL    F9443892   3.849   5.333   0.573  0.1324 -0.2291 -0.5197
  360MOL    H9543893   3.623   5.389   0.652 -1.0535  1.1040 -0.6344
  360MOL    H9643894   3.585   5.229   0.717  1.3824 -0.8837 -0.2068
  360MOL    H9743895   3.819   5.152   0.620 -1.2808 -0.2957 -0.9170
  360MOL    C9843896   3.837   5.276   0.794 -0.5246  0.4659 -1.0100
  360MOL    C9943897   3.797   5.173   0.897 -0.2013 -0.1966  0.4700
  360MOL   F10043898   3.853   5.058   0.854 -0.2731  0.1375 -0.4050
  360MOL   H10143899   3.945   5.261   0.783 -0.5219  0.6876 -1.2952
  360MOL   H10243900   3.812   5.377   0.828 -0.5187 -0.6155  2.3998
  360MOL   H10343901   3.690   5.156   0.913 -0.7760  1.1345 -1.7762
  360MOL   C10443902   3.853   5.201   1.038  0.5537 -0.4026  0.4746
  360MOL   C10543903   3.790   5.112   1.151 -0.2891 -0.3818 -0.5414
  360MOL   F10643904   3.817   4.978   1.122  0.2071  0.1411 -0.0133
  360MOL   H10743905   3.962   5.200   1.036  0.5439  0.5886 -1.6577
  360MOL   H10843906   3.823   5.301   1.072  2.4712 -0.0208  1.1051
  360MOL   H10943907   3.681   5.121   1.155 -0.1361  0.9527  1.0589
  360MOL   C11043908   3.837   5.147   1.286 -0.6569 -0.2392 -0.2349
  360MOL   C11143909   3.782   5.067   1.405 -0.7503 -0.0585  0.5174
  360MOL   F11243910   3.866   5.057   1.504  0.0621 -0.6304 -0.2060
  360MOL   H11343911   3.946   5.146   1.282 -0.6955  0.3351 -1.6363
  360MOL   H11443912   3.815   5.252   1.307  0.0552 -0.1444  0.0579
  360MOL   H11543913   3.765   4.964   1.376 -1.0804 -0.0322  0.6212
  360MOL   C11643914   3.660   5.149   1.451 -0.2760  0.3760  0.2346
  360MOL   C11743915   3.583   5.079   1.561  0.3969 -0.1647 -0.2714
  360MOL   F11843916   3.541   4.954   1.535 -0.3718 -0.3663  0.1213
  360MOL   H11943917   3.696   5.244   1.491 -1.3554  0.5008  0.9166
  360MOL   H12043918   3.594   5.160   1.365  0.0704  0.9664  0.0415
  360MOL   H12143919   3.493   5.135   1.585 -0.2694 -1.4765  0.3686
  360MOL   H12243920   3.657   5.073   1.641 -0.5386  0.7990  0.6770
  361MOL     C143921   2.092   2.426   0.791  0.6546 -0.3352  0.0893
  361MOL     C243922   2.228   2.456   0.729 -0.5971 -0.0247 -0.3889
  361MOL     F343923   2.258   2.368   0.635 -0.1714  0.3821 -0.6066
  361MOL     H443924   2.015   2.429   0.714  0.6519 -1.0568  0.0581
  361MOL     H543925   2.070   2.496   0.871  1.0588  0.6719 -0.6685
  361MOL     H643926   2.297   2.438   0.812  1.6336 -3.3159 -2.8470
  361MOL     H743927   2.093   2.330   0.843  1.0528 -1.5278 -2.0341
  361MOL     C843928   2.245   2.599   0.675  0.1122  0.6801 -0.5029
  361MOL     C943929   2.377   2.631   0.610  0.2865  0.2706  0.6116
  361MOL    F1043930   2.370   2.759   0.576 -0.5734  0.0356  0.1863
  361MOL    H1143931   2.174   2.604   0.592  0.1592 -1.4599 -0.7197
  361MOL    H1243932   2.231   2.667   0.758 -0.1695 -2.0703  1.7879
  361MOL    H1343933   2.394   2.580   0.516 -1.0160  0.0369  0.4843
  361MOL    C1443934   2.500   2.641   0.698  0.3547  0.3734  0.1254
  361MOL    C1543935   2.628   2.706   0.642  0.0383  0.3574 -0.1468
  361MOL    F1643936   2.721   2.678   0.734 -0.8515  0.0941  0.7707
  361MOL    H1743937   2.472   2.693   0.790 -2.8840 -4.4279  2.0933
  361MOL    H1843938   2.515   2.539   0.732 -0.3173  0.2910  0.1832
  361MOL    H1943939   2.621   2.815   0.643 -1.1703  0.2920 -0.4902
  361MOL    C2043940   2.674   2.659   0.508  0.7774 -0.4432 -0.3919
  361MOL    C2143941   2.625   2.736   0.390 -0.1906 -0.1099 -0.3752
  361MOL    F2243942   2.713   2.838   0.383 -0.3318  0.2049 -0.2733
  361MOL    H2343943   2.782   2.648   0.501  0.6469 -1.2551 -1.1821
  361MOL    H2443944   2.638   2.557   0.497  0.6832 -0.4456 -0.0542
  361MOL    H2543945   2.524   2.768   0.414  0.5654  0.5062  2.1267
  361MOL    C2643946   2.627   2.671   0.253  0.4834 -0.3711  0.2175
  361MOL    C2743947   2.587   2.767   0.134 -0.0922 -0.3224 -0.0709
  361MOL    F2843948   2.633   2.734   0.012  0.5277  0.1481  0.0874
  361MOL    H2943949   2.729   2.637   0.239  0.9382  0.2042  1.9686
  361MOL    H3043950   2.566   2.583   0.273  2.9555 -2.6248 -1.8779
  361MOL    H3143951   2.639   2.861   0.153  0.8932 -0.7157 -0.7893
  361MOL    C3243952   2.436   2.801   0.110 -0.5410  0.1531 -0.3827
  361MOL    C3343953   2.348   2.675   0.089  0.1319 -1.1180  0.1009
  361MOL    F3443954   2.338   2.601   0.200  0.9221  0.1513 -0.3754
  361MOL    H3543955   2.396   2.854   0.197 -2.4538 -0.7682 -0.6821
  361MOL    H3643956   2.422   2.854   0.016  2.6057 -0.1639 -1.0697
  361MOL    H3743957   2.386   2.609   0.011  1.8374 -0.7692  0.6326
  361MOL    C3843958   2.205   2.706   0.031  0.2088 -0.5820 -0.0795
  361MOL    C3943959   2.202   2.766   7.891  0.4590  0.2650  0.0546
  361MOL    F4043960   2.262   2.676   7.814  0.2121  0.1519 -0.6456
  361MOL    H4143961   2.157   2.608   0.031 -0.2335 -0.3634  0.0988
  361MOL    H4243962   2.146   2.764   0.101  0.6408  0.3970 -0.5166
  361MOL    H4343963   2.253   2.862   7.881  1.7404 -0.4750 -0.6802
  361MOL    C4443964   2.056   2.788   7.832 -0.2057  0.0675  0.0925
  361MOL    C4543965   1.999   2.918   7.889  0.4026  0.2819  0.7202
  361MOL    F4643966   2.054   3.020   7.827  0.0488 -0.0771  0.2248
  361MOL    H4743967   2.073   2.795   7.725  1.7489  0.3806  0.4077
  361MOL    H4843968   1.986   2.707   7.852  0.6965 -1.6794 -3.5374
  361MOL    H4943969   2.034   2.938   7.990 -3.3248  1.2746  1.9085
  361MOL    C5043970   1.847   2.935   7.885 -0.0946  0.3183  0.3810
  361MOL    C5143971   1.768   2.844   7.975  0.4060 -0.1993 -0.5858
  361MOL    F5243972   1.776   2.875   0.099 -0.0319  0.0748 -0.5313
  361MOL    H5343973   1.826   3.039   7.913  0.0075 -0.0871  2.0169
  361MOL    H5443974   1.825   2.933   7.778  0.1814  1.1315  0.3044
  361MOL    H5543975   1.788   2.739   7.956  0.8871 -0.4343  1.1769
  361MOL    C5643976   1.611   2.836   7.939 -0.1935  0.3052 -1.0353
  361MOL    C5743977   1.528   2.959   7.971  0.9809  0.1509  0.2486
  361MOL    F5843978   1.558   3.048   7.872  0.1584  0.0283  0.1014
  361MOL    H5943979   1.585   2.801   7.839  0.5018  0.6454 -1.3397
  361MOL    H6043980   1.564   2.757   7.997 -0.6175  1.3917  0.1432
  361MOL    H6143981   1.568   3.011   0.055  2.5468  1.3431 -1.1372
  361MOL    C6243982   1.380   2.941   7.970  0.2770  0.6145  0.2064
  361MOL    C6343983   1.329   2.871   0.101 -0.6428 -0.1578 -0.4840
  361MOL    F6443984   1.350   2.955   0.195  0.0481 -0.4230 -0.1530
  361MOL    H6543985   1.327   3.035   7.949 -1.4525 -1.2090 -4.1106
  361MOL    H6643986   1.354   2.874   7.888 -0.7207  1.6264 -0.3295
  361MOL    H6743987   1.385   2.781   0.124 -0.2115 -0.5857 -3.1324
  361MOL    C6843988   1.177   2.837   0.097  0.1758  0.2793 -0.1971
  361MOL    C6943989   1.132   2.730   0.003 -0.3203  0.1537  0.5392
  361MOL    F7043990   1.211   2.628   0.023 -0.1686  0.0555 -0.0200
  361MOL    H7143991   1.163   2.788   0.193  0.6391  1.9912  0.7859
  361MOL    H7243992   1.103   2.917   0.091 -1.2391 -1.0498 -0.8073
  361MOL    H7343993   1.152   2.770   7.907  1.0020 -0.0240  0.7290
  361MOL    C7443994   0.983   2.684   0.010 -0.0885 -0.7902  0.5649
  361MOL    C7543995   0.881   2.785   7.957  0.5649  0.5637 -0.6652
  361MOL    F7643996   0.915   2.807   7.832  0.2321  0.0665  0.8768
  361MOL    H7743997   0.972   2.595   7.951  0.3466 -1.7299  1.7988
  361MOL    H7843998   0.973   2.669   0.118  0.8281  1.0382  0.9154
  361MOL    H7943999   0.884   2.878   0.011 -0.5213  1.2284 -1.6841
  361MOL    C8044000   0.735   2.730   7.942  0.4416 -0.4089  0.2288
  361MOL    C8144001   0.677   2.663   0.060  0.8128  0.1441 -0.0259
  361MOL    F8244002   0.679   2.752   0.151  0.0015  0.2348 -0.4422
  361MOL    H8344003   0.664   2.803   7.902 -0.1733 -0.5621  1.0452
  361MOL    H8444004   0.736   2.646   7.871 -1.0331 -0.3279  0.0926
  361MOL    H8544005   0.731   2.577   0.100  2.7085  1.3357 -0.0078
  361MOL    C8644006   0.529   2.626   0.049 -0.0439 -0.5784  0.1763
  361MOL    C8744007   0.491   2.491   7.996  0.2440 -0.9077 -0.0170
  361MOL    F8844008   0.539   2.393   0.072 -0.1439  0.2878  0.6486
  361MOL    H8944009   0.490   2.629   0.151 -1.5142  0.3817 -0.3976
  361MOL    H9044010   0.473   2.700   7.995 -0.3528 -0.4862  0.5934
  361MOL    H9144011   0.552   2.465   7.910  0.6081 -1.9617  0.5509
  361MOL    C9244012   0.337   2.482   7.971  0.2472  0.2807  0.6601
  361MOL    C9344013   0.298   2.361   7.886 -0.0068  0.7914 -0.6878
  361MOL    F9444014   0.365   2.366   7.770 -0.0190 -0.5917 -0.0415
  361MOL    H9544015   0.273   2.486   0.055 -2.9644 -4.0729 -1.3316
  361MOL    H9644016   0.299   2.559   7.903 -2.2895  0.5300  2.3164
  361MOL    H9744017   0.198   2.379   7.847 -0.8836 -1.1350  0.6310
  361MOL    C9844018   0.307   2.223   7.956  0.2675 -0.0508 -0.6340
  361MOL    C9944019   0.276   2.112   7.851 -0.0882 -0.5527 -0.0474
  361MOL   F10044020   0.364   2.127   7.748 -0.5464  0.2328  0.4337
  361MOL   H10144021   0.406   2.207   7.999  1.6928  0.5355 -3.5445
  361MOL   H10244022   0.239   2.224   0.038  1.5971  1.4348  0.4549
  361MOL   H10344023   0.181   2.139   7.805 -0.3702 -0.6166  0.5031
  361MOL   C10444024   0.292   1.978   7.910 -0.1464  0.6782  0.5409
  361MOL   C10544025   0.206   1.867   7.846  0.2591 -0.2543  0.4484
  361MOL   F10644026   0.248   1.867   7.721 -0.1613  0.4747  1.1264
  361MOL   H10744027   0.398   1.954   7.899 -0.0037  1.1069  0.9795
  361MOL   H10844028   0.271   1.991   0.013  0.4398  2.4219  0.4669
  361MOL   H10944029   0.101   1.886   7.824 -0.1789 -0.0317  2.6489
  361MOL   C11044030   0.240   1.735   7.922  0.5231 -0.0193  0.1561
  361MOL   C11144031   0.143   1.622   7.891 -0.0327  0.1137 -0.4423
  361MOL   F11244032   0.027   1.659   7.948 -0.5147 -0.3901  0.7452
  361MOL   H11344033   0.338   1.705   7.885 -0.9371 -0.7559 -3.3096
  361MOL   H11444034   0.235   1.752   0.026 -3.8273 -0.8918  0.1680
  361MOL   H11544035   0.173   1.533   7.946  1.5742 -0.1260 -1.6735
  361MOL   C11644036   0.125   1.587   7.745  0.2537 -0.2572 -0.0317
  361MOL   C11744037   0.259   1.557   7.677  0.0866  0.1616 -0.8726
  361MOL   F11844038   0.249   1.496   7.562  0.0992 -0.2805  0.5944
  361MOL   H11944039   0.054   1.505   7.741 -2.3590  1.7929  2.3498
  361MOL   H12044040   0.075   1.669   7.692 -2.2615 -1.4392  0.4385
  361MOL   H12144041   0.310   1.482   7.736  0.0651 -0.5964 -1.8012
  361MOL   H12244042   0.323   1.645   7.677 -1.2859  1.2593  2.6657
  362MOL     C144043   7.986   4.790   6.943  0.0376  0.5798 -1.0081
  362MOL     C244044   0.090   4.849   6.856 -0.8928 -0.4405  0.4835
  362MOL     F344045   0.042   4.974   6.831  0.0562 -0.0657  0.0636
  362MOL     H444046   7.995   4.837   7.041  0.8031  2.1643 -1.8085
  362MOL     H544047   0.001   4.683   6.948 -2.6518  0.1562  0.4714
  362MOL     H644048   0.103   4.794   6.763  0.3218  1.8124 -0.7294
  362MOL     H744049   7.881   4.805   6.916 -0.4584 -0.0686  0.5000
  362MOL     C844050   0.228   4.856   6.920 -0.5510 -0.3563  0.3865
  362MOL     C944051   0.273   4.718   6.981  0.1584  0.4598 -0.1993
  362MOL    F1044052   0.280   4.632   6.879 -0.0196 -0.1058  0.2196
  362MOL    H1144053   0.305   4.893   6.852 -0.0742 -2.5771 -0.2931
  362MOL    H1244054   0.212   4.922   7.005  0.2811 -0.4116  0.5930
  362MOL    H1344055   0.199   4.685   7.053  2.0151  0.1747  1.6068
  362MOL    C1444056   0.408   4.731   7.049  0.5195  0.1874  0.4974
  362MOL    C1544057   0.420   4.747   7.199  0.7875  0.3553 -1.0961
  362MOL    F1644058   0.371   4.870   7.227 -0.3680  0.2521 -0.5199
  362MOL    H1744059   0.474   4.650   7.019  0.1742  0.4793 -1.0452
  362MOL    H1844060   0.460   4.814   7.001  2.8080 -0.3656  1.8977
  362MOL    H1944061   0.525   4.753   7.227  0.5289 -1.3110  0.2564
  362MOL    C2044062   0.349   4.646   7.288  0.1870 -0.1120  0.1933
  362MOL    C2144063   0.431   4.585   7.405 -0.0450  0.3024 -0.7309
  362MOL    F2244064   0.434   4.669   7.510 -0.1928 -0.2815 -0.4025
  362MOL    H2344065   0.253   4.682   7.324 -1.3766 -0.5781 -3.3112
  362MOL    H2444066   0.332   4.559   7.225  5.2401  0.0365 -1.6482
  362MOL    H2544067   0.534   4.581   7.370  0.4018 -0.3907  0.6448
  362MOL    C2644068   0.384   4.448   7.445 -0.1306 -0.1627  0.0564
  362MOL    C2744069   0.489   4.376   7.540  0.5710 -0.2790 -0.0032
  362MOL    F2844070   0.529   4.454   7.646 -0.2097 -0.1401 -0.0476
  362MOL    H2944071   0.288   4.466   7.494  0.0096 -0.4435  0.4343
  362MOL    H3044072   0.373   4.379   7.362 -2.1551 -1.4788  1.3506
  362MOL    H3144073   0.581   4.363   7.484 -0.4907  1.0522 -2.1118
  362MOL    C3244074   0.444   4.236   7.590 -0.2203  0.0733  0.6590
  362MOL    C3344075   0.529   4.187   7.706  0.1944  0.4918 -0.1999
  362MOL    F3444076   0.459   4.078   7.743  0.2464  0.0517  0.3212
  362MOL    H3544077   0.339   4.247   7.619 -0.9625 -0.0683 -1.7775
  362MOL    H3644078   0.440   4.162   7.510  2.0245 -1.5025  1.9724
  362MOL    H3744079   0.527   4.243   7.799 -2.3049 -1.2179  0.8252
  362MOL    C3844080   0.674   4.136   7.665 -0.5103 -0.3666  1.0039
  362MOL    C3944081   0.678   4.012   7.571  0.2433  0.1958  0.9635
  362MOL    F4044082   0.662   4.059   7.448  0.0865  0.5276 -0.3659
  362MOL    H4144083   0.725   4.217   7.612  0.4255 -0.3840  1.8657
  362MOL    H4244084   0.735   4.117   7.753 -1.7478  0.6391  2.0933
  362MOL    H4344085   0.590   3.949   7.590  0.3358  0.1233  1.1528
  362MOL    C4444086   0.799   3.919   7.560  0.3988 -0.8353 -0.0078
  362MOL    C4544087   0.939   3.981   7.531  0.5977 -0.0774  0.4172
  362MOL    F4644088   0.973   4.049   7.641  0.3358  0.0235  0.1346
  362MOL    H4744089   0.810   3.856   7.648  1.6324  0.2613  0.6340
  362MOL    H4844090   0.777   3.851   7.477 -0.4059 -2.4611  1.5251
  362MOL    H4944091   0.931   4.058   7.455  3.5532 -0.6837 -0.5907
  362MOL    C5044092   1.049   3.879   7.475  0.5522  0.6530  0.2646
  362MOL    C5144093   1.113   3.798   7.577 -0.0579  0.3191 -0.1541
  362MOL    F5244094   1.028   3.697   7.615  0.4255 -0.6935 -0.2158
  362MOL    H5344095   1.008   3.816   7.396 -0.1144  2.5194 -0.9178
  362MOL    H5444096   1.126   3.928   7.415 -0.4061 -1.3532 -2.6970
  362MOL    H5544097   1.140   3.852   7.668  0.0763  0.6814 -0.4112
  362MOL    C5644098   1.245   3.734   7.521 -0.5625  0.8967 -0.5009
  362MOL    C5744099   1.324   3.659   7.632  0.4328  0.1265  0.2550
  362MOL    F5844100   1.248   3.557   7.674 -0.4415 -0.2013 -0.4419
  362MOL    H5944101   1.218   3.655   7.450 -1.1291  0.2421  0.4348
  362MOL    H6044102   1.312   3.805   7.472  0.6470 -0.1934 -0.4635
  362MOL    H6144103   1.330   3.714   7.725  0.5450  1.8608 -0.7616
  362MOL    C6244104   1.460   3.599   7.585  0.0980 -0.1031  0.1727
  362MOL    C6344105   1.538   3.528   7.688 -0.8874 -0.5809  0.3694
  362MOL    F6444106   1.636   3.459   7.638 -0.0209 -0.3391  0.6442
  362MOL    H6544107   1.433   3.528   7.507 -0.9402 -1.5079  1.7768
  362MOL    H6644108   1.513   3.676   7.529 -0.1559 -0.5843 -0.7499
  362MOL    H6744109   1.475   3.460   7.745 -1.9930  1.1009  1.2107
  362MOL    C6844110   1.602   3.632   7.776  1.3019  0.5340  0.7184
  362MOL    C6944111   1.709   3.585   7.877 -0.4574  0.6825  0.0581
  362MOL    F7044112   1.765   3.695   7.930  0.1190  0.1525  0.2834
  362MOL    H7144113   1.642   3.706   7.707 -0.2258  0.6679 -0.0402
  362MOL    H7244114   1.523   3.689   7.825  0.9697 -0.6485  1.5907
  362MOL    H7344115   1.783   3.525   7.825  0.1920  1.8277 -0.3482
  362MOL    C7444116   1.656   3.494   7.985  0.3079  0.1073 -0.2042
  362MOL    C7544117   1.760   3.438   0.087 -0.1501 -0.0124  0.4163
  362MOL    F7644118   1.685   3.361   0.168 -0.4036  0.2342  0.2243
  362MOL    H7744119   1.574   3.542   0.036  1.3140 -0.3901  1.8217
  362MOL    H7844120   1.614   3.403   7.943 -0.1244 -0.3060  1.0790
  362MOL    H7944121   1.809   3.524   0.133 -1.3698  1.5394 -1.1184
  362MOL    C8044122   1.867   3.346   0.030 -0.7708  0.0663  0.1820
  362MOL    C8144123   1.959   3.276   0.132 -0.3276 -0.1522  0.5712
  362MOL    F8244124   2.031   3.181   0.062  0.3275  0.2472 -0.2541
  362MOL    H8344125   1.820   3.269   7.971 -5.6945  1.3291  2.0369
  362MOL    H8444126   1.924   3.397   7.956 -0.9106  2.5038  1.6439
  362MOL    H8544127   1.893   3.212   0.191 -1.9006 -0.5254 -1.5216
  362MOL    C8644128   2.048   3.362   0.215 -0.0536 -0.0393 -0.6207
  362MOL    C8744129   2.141   3.449   0.136 -0.4503 -0.1454  0.1290
  362MOL    F8844130   2.063   3.529   0.060 -0.9545  0.4263 -0.2633
  362MOL    H8944131   1.980   3.419   0.278 -0.3631 -0.9976 -0.0718
  362MOL    H9044132   2.108   3.294   0.275 -0.0974 -0.5723 -1.1692
  362MOL    H9144133   2.202   3.382   0.076 -0.3022 -1.9718  2.2876
  362MOL    C9244134   2.252   3.528   0.209 -0.1259 -0.2976 -0.1818
  362MOL    C9344135   2.205   3.632   0.313 -0.4221 -0.1123 -0.5236
  362MOL    F9444136   2.161   3.569   0.421 -0.0703 -0.0881 -0.2307
  362MOL    H9544137   2.319   3.455   0.254 -0.5500 -1.2249 -1.0176
  362MOL    H9644138   2.309   3.581   0.133 -0.5685  1.3801  0.6419
  362MOL    H9744139   2.120   3.685   0.268  0.1343 -1.5136 -3.3418
  362MOL    C9844140   2.324   3.726   0.342 -0.1360  0.2062  0.0590
  362MOL    C9944141   2.293   3.854   0.407  0.6507  0.0522 -0.1566
  362MOL   F10044142   2.414   3.901   0.455 -0.0115  0.2418  0.4173
  362MOL   H10144143   2.395   3.679   0.410 -0.1076  2.4180  1.6369
  362MOL   H10244144   2.382   3.760   0.256 -0.5217 -0.7723 -0.5904
  362MOL   H10344145   2.231   3.825   0.492  3.1772 -1.3790  1.2589
  362MOL   C10444146   2.228   3.955   0.313  0.4178 -0.2166 -0.4964
  362MOL   C10544147   2.217   4.093   0.378  0.8430  0.2521 -0.6566
  362MOL   F10644148   2.332   4.155   0.364 -0.4330  0.6310 -0.0124
  362MOL   H10744149   2.277   3.959   0.216 -0.0431 -2.3965 -0.8475
  362MOL   H10844150   2.132   3.908   0.291 -1.4762  1.7065  3.0960
  362MOL   H10944151   2.208   4.082   0.486  3.1564  1.7311 -0.2813
  362MOL   C11044152   2.112   4.186   0.314 -0.1777 -0.2471  0.1271
  362MOL   C11144153   1.962   4.145   0.317 -0.9535  0.3362  0.2155
  362MOL   F11244154   1.934   4.125   0.445  0.0316 -0.0731 -0.3279
  362MOL   H11344155   2.125   4.285   0.358  2.3725  0.4770 -2.1813
  362MOL   H11444156   2.153   4.213   0.217  0.1823  1.2287  0.6721
  362MOL   H11544157   1.952   4.045   0.273  0.1232  0.3404 -0.0320
  362MOL   C11644158   1.865   4.243   0.255 -0.0024  0.2583  0.0307
  362MOL   C11744159   1.741   4.169   0.203  0.2656 -0.7178  0.0234
  362MOL   F11844160   1.656   4.261   0.157  0.2635  0.1544  0.4647
  362MOL   H11944161   1.835   4.317   0.330 -2.4183 -2.6495  2.0484
  362MOL   H12044162   1.905   4.297   0.170  1.6497 -0.7466  0.1451
  362MOL   H12144163   1.684   4.120   0.282 -2.4799  0.1262 -1.3664
  362MOL   H12244164   1.760   4.099   0.122  0.7922  1.8558 -2.1351
  363MOL     C144165   1.193   5.733   5.157 -0.6253  0.3623  0.1543
  363MOL     C244166   1.056   5.666   5.145  0.1480  0.0594  0.6016
  363MOL     F344167   0.985   5.734   5.230  0.4173  0.4032 -0.2642
  363MOL     H444168   1.273   5.679   5.106 -0.7713 -2.9360  3.1852
  363MOL     H544169   1.232   5.725   5.258  1.2181 -0.1104 -0.5802
  363MOL     H644170   1.062   5.563   5.181  1.1541 -0.0184  0.2208
  363MOL     H744171   1.192   5.835   5.119 -2.2701 -0.2682 -1.5680
  363MOL     C844172   0.986   5.698   5.010  0.3260 -0.9011  0.2486
  363MOL     C944173   1.047   5.620   4.900  0.0381 -0.2021 -0.1431
  363MOL    F1044174   1.021   5.488   4.916 -0.0744 -0.4119 -0.3554
  363MOL    H1144175   0.888   5.652   5.023  0.2635 -0.9041 -0.2135
  363MOL    H1244176   0.975   5.806   5.001  1.2048 -0.5531  3.0045
  363MOL    H1344177   1.155   5.630   4.903  0.1345 -1.4716  2.4896
  363MOL    C1444178   1.004   5.661   4.760 -1.1605  0.1068 -0.0264
  363MOL    C1544179   0.996   5.815   4.718  0.2960 -0.0161  0.0315
  363MOL    F1644180   1.116   5.879   4.743 -0.5169  0.0880 -0.3904
  363MOL    H1744181   1.063   5.616   4.681  0.2131  2.1292 -0.1913
  363MOL    H1844182   0.902   5.627   4.741 -0.7596 -1.3954  0.4911
  363MOL    H1944183   0.932   5.878   4.780  0.4998  0.7808 -0.5681
  363MOL    C2044184   0.962   5.828   4.563  0.1810 -0.0563  0.4238
  363MOL    C2144185   0.929   5.978   4.529  0.2105 -0.3346 -0.8302
  363MOL    F2244186   0.941   5.991   4.401  0.3304  0.1115 -0.7620
  363MOL    H2344187   1.051   5.801   4.507  1.1892  3.9333 -0.0202
  363MOL    H2444188   0.885   5.760   4.528  2.3344 -2.6146  0.5284
  363MOL    H2544189   1.000   6.036   4.587  0.5967 -1.9390  0.3262
  363MOL    C2644190   0.787   6.024   4.573  0.0116 -0.3956 -0.2117
  363MOL    C2744191   0.746   6.167   4.535 -0.3465 -0.0119 -0.3456
  363MOL    F2844192   0.612   6.176   4.545  0.2078 -0.0665 -0.3096
  363MOL    H2944193   0.716   5.965   4.516 -0.2211  1.0266 -1.4128
  363MOL    H3044194   0.769   6.003   4.678  2.9981  0.3666  0.5128
  363MOL    H3144195   0.752   6.173   4.426  1.6022 -3.9887 -0.5661
  363MOL    C3244196   0.814   6.277   4.618  0.4431 -0.4875 -0.0247
  363MOL    C3344197   0.781   6.422   4.562  0.2365  0.1339 -0.3156
  363MOL    F3444198   0.817   6.517   4.653 -0.1299  0.0776 -0.1506
  363MOL    H3544199   0.786   6.260   4.722  0.2217  0.6565  0.1077
  363MOL    H3644200   0.923   6.275   4.616  0.4981  1.7677 -1.5435
  363MOL    H3744201   0.673   6.435   4.574  0.2760 -0.9616  1.3398
  363MOL    C3844202   0.847   6.463   4.423 -0.5711 -0.6172 -0.3297
  363MOL    C3944203   1.002   6.458   4.410  0.4998  0.0737 -0.4269
  363MOL    F4044204   1.034   6.486   4.283 -0.3694 -0.0431 -0.1586
  363MOL    H4144205   0.802   6.402   4.345  1.1691 -2.1069 -0.2370
  363MOL    H4244206   0.816   6.564   4.400 -1.5702  0.1461  3.9486
  363MOL    H4344207   1.039   6.358   4.431  0.8075  0.6013  1.6289
  363MOL    C4444208   1.083   6.559   4.499 -0.0077 -0.2992 -0.1887
  363MOL    C4544209   1.238   6.551   4.483 -0.0805 -0.3817 -0.0979
  363MOL    F4644210   1.273   6.653   4.563 -0.1011 -0.3092 -0.1335
  363MOL    H4744211   1.046   6.658   4.477  0.6398  0.0988  0.4706
  363MOL    H4844212   1.061   6.543   4.605 -1.5722  1.0013 -0.3012
  363MOL    H4944213   1.261   6.566   4.378 -0.4060  0.2777 -0.0757
  363MOL    C5044214   1.292   6.415   4.542  0.1081  0.0806 -0.3112
  363MOL    C5144215   1.308   6.303   4.435 -0.2159 -0.4166 -0.6673
  363MOL    F5244216   1.385   6.368   4.343  0.0521  0.0198  0.5361
  363MOL    H5344217   1.390   6.437   4.585  0.3223 -0.8134 -0.3465
  363MOL    H5444218   1.238   6.388   4.633 -0.5276 -0.9935 -1.0010
  363MOL    H5544219   1.222   6.272   4.375  0.5695 -0.6836 -1.6785
  363MOL    C5644220   1.379   6.176   4.483  0.2591  0.0471  0.0544
  363MOL    C5744221   1.402   6.084   4.361  0.4882 -0.1263 -0.2590
  363MOL    F5844222   1.486   5.992   4.400  0.2213  0.3021 -0.2982
  363MOL    H5944223   1.461   6.204   4.549  0.5813 -3.0708  1.0825
  363MOL    H6044224   1.313   6.114   4.544  0.1606  1.9256  1.9140
  363MOL    H6144225   1.442   6.148   4.282 -0.9361  0.9457 -0.1342
  363MOL    C6244226   1.269   6.018   4.313  1.2056  0.2826 -0.6122
  363MOL    C6344227   1.279   5.960   4.171  0.0700 -0.3402  0.0439
  363MOL    F6444228   1.173   5.876   4.151  0.4405  0.1733  0.3991
  363MOL    H6544229   1.241   5.946   4.390 -0.0697  1.7792  0.3649
  363MOL    H6644230   1.182   6.084   4.314  1.6310  0.9293  3.0407
  363MOL    H6744231   1.369   5.901   4.153  1.3985  1.8157 -0.5309
  363MOL    C6844232   1.261   6.065   4.058 -0.5415  0.4924  0.2038
  363MOL    C6944233   1.392   6.076   3.969  0.0959  0.0303 -0.8683
  363MOL    F7044234   1.377   5.992   3.867  0.2020 -0.1096 -0.0175
  363MOL    H7144235   1.169   6.053   4.001 -2.3580  3.4884  2.3439
  363MOL    H7244236   1.233   6.159   4.107  0.9477  1.1661 -0.2139
  363MOL    H7344237   1.480   6.061   4.031 -1.2524  0.9208  1.3332
  363MOL    C7444238   1.402   6.208   3.907  1.1894 -0.0030  0.2636
  363MOL    C7544239   1.422   6.331   3.987 -0.4879  0.1458 -0.1215
  363MOL    F7644240   1.525   6.312   4.071 -0.2134 -0.2375  0.0049
  363MOL    H7744241   1.483   6.205   3.834  1.3556 -2.2564  0.5055
  363MOL    H7844242   1.311   6.232   3.853  1.1240 -0.5976  0.1071
  363MOL    H7944243   1.342   6.354   4.057 -0.3187  1.0660 -0.2348
  363MOL    C8044244   1.440   6.447   3.890  0.4005 -0.0861  0.3507
  363MOL    C8144245   1.485   6.579   3.949 -0.0541  0.5141 -0.2127
  363MOL    F8244246   1.502   6.679   3.863  0.5555 -0.2280 -0.1136
  363MOL    H8344247   1.502   6.418   3.806 -1.0668  0.8929 -1.0908
  363MOL    H8444248   1.346   6.456   3.836  0.3418  2.6541  0.8177
  363MOL    H8544249   1.585   6.568   3.992 -0.2057  0.0781  0.0307
  363MOL    C8644250   1.404   6.650   4.059 -0.0441  0.1359 -0.3832
  363MOL    C8744251   1.261   6.685   4.015  0.3856 -0.1342 -0.9030
  363MOL    F8844252   1.181   6.578   3.999 -0.2965 -0.1357  0.2209
  363MOL    H8944253   1.410   6.579   4.142  2.5053 -0.8978 -1.4207
  363MOL    H9044254   1.456   6.737   4.099  1.2445 -0.6784 -0.2730
  363MOL    H9144255   1.272   6.738   3.920  0.8302  1.3920 -0.0297
  363MOL    C9244256   1.179   6.766   4.118  0.7637 -0.9176  0.0050
  363MOL    C9344257   1.233   6.905   4.133  0.0031 -0.2770 -0.5777
  363MOL    F9444258   1.211   6.978   4.018  0.1760 -0.2359  0.3662
  363MOL    H9544259   1.082   6.776   4.071  0.2569 -0.5531  1.1090
  363MOL    H9644260   1.155   6.715   4.212 -1.4464  0.3181  0.1370
  363MOL    H9744261   1.341   6.905   4.146 -0.1155 -1.9377  0.6156
  363MOL    C9844262   1.158   6.987   4.239  0.3875  0.2511 -0.0723
  363MOL    C9944263   1.188   6.957   4.387 -0.1605  0.6513 -0.1760
  363MOL   F10044264   1.316   6.930   4.401  0.1373  0.0903 -0.0392
  363MOL   H10144265   1.183   7.090   4.210 -3.6091  1.1086 -0.7775
  363MOL   H10244266   1.053   6.969   4.214  0.4617  0.4234 -0.5297
  363MOL   H10344267   1.129   6.867   4.406  0.9644 -0.1899 -0.5526
  363MOL   C10444268   1.132   7.062   4.484  0.1637  0.2998 -0.4415
  363MOL   C10544269   1.179   7.031   4.626 -0.2209 -0.0937  0.1321
  363MOL   F10644270   1.310   7.035   4.644  0.1788  0.1923 -0.5674
  363MOL   H10744271   1.162   7.159   4.445 -0.5296  0.5983 -0.2453
  363MOL   H10844272   1.024   7.052   4.481  0.2974 -2.2972  1.4179
  363MOL   H10944273   1.159   6.930   4.660 -0.7973 -0.1088 -0.2564
  363MOL   C11044274   1.134   7.144   4.728  0.3753 -0.2875  0.3131
  363MOL   C11144275   1.146   7.116   4.880 -0.0164  0.2012 -0.4424
  363MOL   F11244276   1.092   6.999   4.904  0.3157  0.2240  0.3970
  363MOL   H11344277   1.181   7.237   4.697  0.7843 -0.8300 -0.7465
  363MOL   H11444278   1.029   7.161   4.703  0.2463 -2.0439 -0.4580
  363MOL   H11544279   1.075   7.183   4.930 -0.4532  1.0234 -2.1531
  363MOL   C11644280   1.283   7.129   4.939  0.0948 -0.7345  0.0787
  363MOL   C11744281   1.281   7.111   5.091 -0.2476 -0.4254  0.0666
  363MOL   F11844282   1.211   7.211   5.149 -0.5404 -0.1079 -0.4376
  363MOL   H11944283   1.354   7.061   4.891 -0.4630 -1.5870  0.4518
  363MOL   H12044284   1.313   7.234   4.935 -2.1400 -0.0074  1.4169
  363MOL   H12144285   1.372   7.088   5.145  0.3365  2.1880  0.2916
  363MOL   H12244286   1.226   7.020   5.117  0.2075 -0.7010  0.0574
  364MOL     C144287   7.857   6.580   3.476 -0.8383  0.4765  0.6405
  364MOL     C244288   7.755   6.677   3.419 -0.0853 -0.0055  0.6227
  364MOL     F344289   7.791   6.808   3.436 -0.3129  0.4159 -1.1210
  364MOL     H444290   7.957   6.591   3.433 -0.7497 -1.9645  0.1140
  364MOL     H544291   7.838   6.473   3.462 -0.6109  0.4812  0.2616
  364MOL     H644292   7.663   6.663   3.475  0.7617 -0.7903  1.8597
  364MOL     H744293   7.872   6.614   3.578 -2.3890 -1.5010  1.5506
  364MOL     C844294   7.722   6.642   3.274 -0.6917  0.6997  0.1328
  364MOL     C944295   7.619   6.728   3.207  0.0971  0.0531  0.6454
  364MOL    F1044296   7.669   6.854   3.189 -0.1186  0.4592 -0.1394
  364MOL    H1144297   7.810   6.665   3.214 -0.0348  0.7134  1.1036
  364MOL    H1244298   7.686   6.540   3.275  0.8709  0.1400  0.0950
  364MOL    H1344299   7.536   6.735   3.278 -0.0229  0.2237  0.4890
  364MOL    C1444300   7.572   6.679   3.069  0.0189  0.4070  0.3557
  364MOL    C1544301   7.433   6.736   3.015  0.6606  0.2472 -0.1589
  364MOL    F1644302   7.449   6.849   2.953 -0.2996 -0.1892  0.6300
  364MOL    H1744303   7.649   6.692   2.993 -0.9041 -0.6025 -0.7600
  364MOL    H1844304   7.563   6.571   3.078 -0.4711  0.1506 -2.8017
  364MOL    H1944305   7.358   6.754   3.092 -0.1725  0.2589 -0.9653
  364MOL    C2044306   7.376   6.635   2.918 -0.6079  0.3042 -0.1481
  364MOL    C2144307   7.276   6.693   2.816  0.1044 -0.0472 -0.2852
  364MOL    F2244308   7.248   6.597   2.731  0.4648 -0.3722 -0.0086
  364MOL    H2344309   7.450   6.591   2.850  0.7378  1.0355  0.8206
  364MOL    H2444310   7.327   6.557   2.977 -1.6128  0.1135 -1.2267
  364MOL    H2544311   7.322   6.769   2.753 -0.8291 -0.0274 -0.9515
  364MOL    C2644312   7.154   6.760   2.880  0.2003 -0.2183 -0.7617
  364MOL    C2744313   7.065   6.688   2.983  0.0126 -0.1421  0.6646
  364MOL    F2844314   7.137   6.685   3.095  0.5036  0.4676 -0.1172
  364MOL    H2944315   7.179   6.857   2.922  0.5717 -0.6826  0.1101
  364MOL    H3044316   7.089   6.775   2.794 -0.0031 -0.2807 -0.6190
  364MOL    H3144317   7.055   6.585   2.948 -0.2297  0.5067 -1.2321
  364MOL    C3244318   6.927   6.759   3.017 -0.3879  0.0332 -0.1443
  364MOL    C3344319   6.825   6.677   3.093  0.5627 -0.8366  1.0666
  364MOL    F3444320   6.872   6.654   3.213 -0.7600 -0.2566  0.3820
  364MOL    H3544321   6.946   6.845   3.081  0.9732  0.8118 -1.5781
  364MOL    H3644322   6.881   6.811   2.933  1.6327 -2.2525 -2.7639
  364MOL    H3744323   6.814   6.577   3.050 -2.2875  0.3596 -1.1231
  364MOL    C3844324   6.694   6.738   3.119 -0.1036 -0.3988  0.4793
  364MOL    C3944325   6.606   6.751   2.983 -0.1630  0.5017 -0.1015
  364MOL    F4044326   6.593   6.631   2.920 -0.2033  0.0572 -0.1525
  364MOL    H4144327   6.635   6.686   3.195  1.1551 -5.9024 -2.0422
  364MOL    H4244328   6.704   6.836   3.165 -0.4477 -0.5149  0.8059
  364MOL    H4344329   6.670   6.813   2.919  0.4101  0.8137  0.7700
  364MOL    C4444330   6.466   6.818   2.997 -0.6561 -0.1287 -0.1254
  364MOL    C4544331   6.413   6.879   2.863 -0.6660  0.0901  0.7342
  364MOL    F4644332   6.350   6.774   2.800 -0.5446  0.0350 -0.4423
  364MOL    H4744333   6.387   6.757   3.040 -0.1014 -0.0453  1.0268
  364MOL    H4844334   6.483   6.901   3.065 -0.3529  0.5201 -0.9782
  364MOL    H4944335   6.490   6.904   2.790 -1.9175 -2.4450 -1.5404
  364MOL    C5044336   6.309   6.992   2.885 -0.3074  0.2608 -0.2697
  364MOL    C5144337   6.238   7.040   2.755  0.0503 -1.3043  0.4417
  364MOL    F5244338   6.144   7.123   2.783 -0.5588 -0.0661 -0.0699
  364MOL    H5344339   6.232   6.959   2.955  0.5191 -0.1356  0.4541
  364MOL    H5444340   6.359   7.073   2.938  0.6932 -0.6489  0.1993
  364MOL    H5544341   6.192   6.951   2.711 -3.0626 -0.0439  1.0332
  364MOL    C5644342   6.329   7.092   2.647 -0.0380  0.3095 -0.3386
  364MOL    C5744343   6.375   7.244   2.660  0.1192  0.4134  0.4726
  364MOL    F5844344   6.466   7.245   2.755  0.0352 -0.2586  0.1889
  364MOL    H5944345   6.410   7.019   2.638  0.8190  1.4367 -1.9252
  364MOL    H6044346   6.279   7.085   2.550  1.2606  1.8234 -1.1439
  364MOL    H6144347   6.287   7.305   2.681  0.8754  1.5453  0.4133
  364MOL    C6244348   6.443   7.295   2.528  0.2516 -0.8332 -0.1206
  364MOL    C6344349   6.576   7.230   2.489  0.4193 -0.1169  0.3344
  364MOL    F6444350   6.553   7.100   2.473  0.1411  0.2781  0.0924
  364MOL    H6544351   6.369   7.300   2.448 -1.1090 -0.5516  1.1213
  364MOL    H6644352   6.470   7.398   2.552 -2.2451  0.2392 -1.6548
  364MOL    H6744353   6.653   7.240   2.565 -0.3586 -0.4474  1.1687
  364MOL    C6844354   6.633   7.289   2.360 -0.4448  0.8928 -0.0598
  364MOL    C6944355   6.657   7.437   2.361  0.3384 -0.4183  0.3210
  364MOL    F7044356   6.742   7.461   2.465  0.1405  0.3447 -0.3995
  364MOL    H7144357   6.725   7.235   2.336 -2.0541 -2.2348  0.4785
  364MOL    H7244358   6.570   7.257   2.277  0.7428  1.6086 -1.2758
  364MOL    H7344359   6.567   7.492   2.386  0.0905 -0.2217 -0.9597
  364MOL    C7444360   6.728   7.483   2.232 -0.1451  0.1953 -0.4707
  364MOL    C7544361   6.642   7.487   2.110 -0.0341  0.4571 -0.1923
  364MOL    F7644362   6.545   7.581   2.114 -0.8899 -0.0479  0.2992
  364MOL    H7744363   6.757   7.586   2.251 -2.3667  0.7007  0.3234
  364MOL    H7844364   6.822   7.427   2.231 -0.2609  0.0047 -0.7341
  364MOL    H7944365   6.598   7.387   2.105  3.0802 -1.0865  1.2945
  364MOL    C8044366   6.710   7.526   1.977 -0.1570 -0.2470  0.0560
  364MOL    C8144367   6.804   7.411   1.920 -0.0767 -0.1235  0.1323
  364MOL    F8244368   6.725   7.308   1.905 -0.3858  0.0626 -0.4689
  364MOL    H8344369   6.637   7.556   1.902 -0.9762 -0.4824  0.7487
  364MOL    H8444370   6.766   7.619   1.991 -2.8018  1.2138  1.5216
  364MOL    H8544371   6.875   7.375   1.995  0.1221 -0.8612 -0.4043
  364MOL    C8644372   6.860   7.434   1.782  0.1916  0.6271  0.0191
  364MOL    C8744373   6.971   7.544   1.784  1.3247  0.2467 -0.3230
  364MOL    F8844374   7.055   7.509   1.882  0.6267  0.4050  0.3231
  364MOL    H8944375   6.907   7.340   1.752 -1.1858 -0.1520  0.2790
  364MOL    H9044376   6.780   7.463   1.714  0.2336  0.4406 -0.1089
  364MOL    H9144377   6.946   7.648   1.808  3.2599  0.5845  0.4056
  364MOL    C9244378   7.057   7.545   1.658 -0.2967  0.1329  0.1832
  364MOL    C9344379   7.002   7.610   1.530  0.2622  0.1395 -0.2128
  364MOL    F9444380   6.992   7.746   1.546  0.1822 -0.3824 -0.0208
  364MOL    H9544381   7.149   7.599   1.682 -0.7813  0.6822  0.8291
  364MOL    H9644382   7.098   7.446   1.640  0.2789  0.2703  0.7284
  364MOL    H9744383   6.900   7.578   1.507 -0.2748  1.3741  0.3759
  364MOL    C9844384   7.085   7.584   1.404 -0.2245  0.5661  0.0286
  364MOL    C9944385   7.055   7.661   1.277 -0.6295  0.6478 -0.9204
  364MOL   F10044386   7.148   7.621   1.185  0.1435 -0.5735  0.1990
  364MOL   H10144387   7.184   7.611   1.440  1.0349 -3.8456  0.1917
  364MOL   H10244388   7.116   7.482   1.381  1.0310  1.5359 -2.7193
  364MOL   H10344389   7.067   7.769   1.290 -0.3959  0.3818  1.3017
  364MOL   C10444390   6.911   7.639   1.225 -0.0603  0.3497  0.3909
  364MOL   C10544391   6.887   7.732   1.103  0.1650  0.0002 -0.0490
  364MOL   F10644392   6.765   7.703   1.053 -0.0455 -0.5951 -0.4276
  364MOL   H10744393   6.904   7.532   1.206 -0.1118  0.2509  0.9654
  364MOL   H10844394   6.843   7.657   1.308  0.2080  0.2254  0.6384
  364MOL   H10944395   6.955   7.706   1.022  1.3956  2.4891  0.1485
  364MOL   C11044396   6.884   7.896   1.127 -0.2972  0.1950  0.5041
  364MOL   C11144397   6.827   7.982   1.004 -1.1303  0.0266 -0.6376
  364MOL   F11244398   6.695   7.981   0.991 -0.5627  0.3137  0.1508
  364MOL   H11344399   6.845   7.935   1.221  0.2797 -0.5825  1.0754
  364MOL   H11444400   6.991   7.911   1.140 -0.6631  2.5323  1.1379
  364MOL   H11544401   6.863   7.933   0.913 -0.2677 -3.6886  1.5962
  364MOL   C11644402   6.864   0.127   1.014  1.0595  0.8429  0.0868
  364MOL   C11744403   6.823   0.189   0.880  0.2705 -0.0761  0.6244
  364MOL   F11844404   6.845   0.318   0.886 -0.2449 -0.1760  0.3708
  364MOL   H11944405   6.820   0.178   1.100 -0.4622 -4.0042  2.3922
  364MOL   H12044406   6.972   0.139   1.022  1.3736  0.6871 -3.4629
  364MOL   H12144407   6.715   0.190   0.865  0.5574  0.7526 -1.6161
  364MOL   H12244408   6.872   0.147   0.792  0.1974  0.0780  0.5117
  365MOL     C144409   0.342   1.216   1.179 -0.0199  0.6021 -0.2697
  365MOL     C244410   0.295   1.334   1.092  0.0927 -0.4252 -0.0724
  365MOL     F344411   0.224   1.286   0.989  0.1279  0.0107  0.1706
  365MOL     H444412   0.384   1.142   1.110 -0.9366 -0.4246  0.2472
  365MOL     H544413   0.256   1.165   1.222  0.0747  1.8770  1.4446
  365MOL     H644414   0.373   1.390   1.042 -1.2041  0.8445 -0.7169
  365MOL     H744415   0.409   1.242   1.260 -2.4201  1.2974  1.5292
  365MOL     C844416   0.224   1.441   1.162  0.2770 -0.6796  0.3822
  365MOL     C944417   0.180   1.563   1.084  0.2348  0.3078 -0.6138
  365MOL    F1044418   0.094   1.526   0.987 -0.2326  0.4488  0.9921
  365MOL    H1144419   0.132   1.390   1.191  0.3432 -1.0352 -0.0251
  365MOL    H1244420   0.267   1.466   1.259  0.0346 -0.7759  0.5148
  365MOL    H1344421   0.262   1.607   1.028  0.7079  0.4240  0.1588
  365MOL    C1444422   0.116   1.668   1.166 -0.0812  0.2042 -0.9604
  365MOL    C1544423   0.086   1.801   1.096  0.6279 -0.7604  0.3188
  365MOL    F1644424   0.015   1.775   0.982 -0.6551  0.5075 -0.3246
  365MOL    H1744425   0.029   1.633   1.222  1.8707 -0.4695  1.7195
  365MOL    H1844426   0.191   1.688   1.242 -0.2377 -2.3822 -0.0803
  365MOL    H1944427   0.180   1.850   1.070  0.5911 -0.1736  1.2483
  365MOL    C2044428   0.006   1.901   1.178  0.1428 -0.3356  0.0182
  365MOL    C2144429   0.046   1.935   1.323 -0.5997  0.1848 -0.3752
  365MOL    F2244430   0.170   1.970   1.332 -0.2879  0.3407  0.4143
  365MOL    H2344431   0.002   1.991   1.118 -0.9207 -0.4704 -0.1259
  365MOL    H2444432   7.905   1.867   1.184  0.6029 -1.5446  1.4751
  365MOL    H2544433   0.058   1.847   1.388  2.2159 -0.5000 -1.7295
  365MOL    C2644434   7.965   2.024   1.416 -0.0475 -0.7773  0.3567
  365MOL    C2744435   7.967   2.173   1.373 -0.6991 -0.1876  0.3611
  365MOL    F2844436   7.906   2.172   1.252 -0.3345  0.4484 -0.2668
  365MOL    H2944437   7.867   1.976   1.410 -0.0160 -0.8634  0.5553
  365MOL    H3044438   8.000   2.009   1.518 -0.4674 -1.2037  0.4434
  365MOL    H3144439   0.065   2.214   1.364 -0.3331 -1.3264 -0.8728
  365MOL    C3244440   7.887   2.273   1.457 -0.2682  0.1202 -0.1892
  365MOL    C3344441   7.944   2.414   1.454 -0.0249 -0.8386  0.1462
  365MOL    F3444442   7.955   2.462   1.330  0.2480  0.1288  0.1007
  365MOL    H3544443   7.782   2.267   1.431 -0.7821  0.2568  1.7400
  365MOL    H3644444   7.902   2.241   1.561  1.4038  0.1921 -0.3874
  365MOL    H3744445   0.040   2.413   1.499 -0.5356 -1.1932  1.2997
  365MOL    C3844446   7.866   2.510   1.540  0.1954 -0.4658 -0.1688
  365MOL    C3944447   7.854   2.475   1.691  0.1617  0.3161  0.3692
  365MOL    F4044448   7.766   2.371   1.698 -0.5668 -0.1141  0.2869
  365MOL    H4144449   7.903   2.612   1.536  2.2918 -1.2253 -0.5298
  365MOL    H4244450   7.766   2.528   1.501 -0.3041 -0.3639  1.1373
  365MOL    H4344451   7.789   2.548   1.739  1.8121  1.3617  1.0591
  365MOL    C4444452   7.979   2.453   1.778 -0.2695  0.2471  0.1892
  365MOL    C4544453   7.967   2.467   1.931 -0.4155  0.2252  0.1368
  365MOL    F4644454   7.866   2.384   1.963 -0.5432  0.1495 -0.2856
  365MOL    H4744455   0.021   2.360   1.744 -0.0099  0.5811 -0.4026
  365MOL    H4844456   0.036   2.540   1.750  1.2609 -1.0026 -0.4666
  365MOL    H4944457   7.938   2.567   1.962  0.5018  0.9650 -1.3273
  365MOL    C5044458   0.100   2.438   1.999  0.1877  0.0476 -0.2510
  365MOL    C5144459   0.116   2.464   2.149  0.2605  0.2263  0.0958
  365MOL    F5244460   0.127   2.599   2.149  0.1594  0.0937  0.5385
  365MOL    H5344461   0.118   2.333   1.979  2.0413  0.0810  1.1493
  365MOL    H5444462   0.184   2.485   1.948 -1.0156  0.5524 -1.8392
  365MOL    H5544463   0.207   2.410   2.175 -0.0878  0.1170  1.1252
  365MOL    C5644464   8.003   2.431   2.236 -0.3810  0.6456  0.5384
  365MOL    C5744465   7.996   2.280   2.257 -0.0068  0.1330 -0.2002
  365MOL    F5844466   0.109   2.250   2.316 -0.0630  0.0444 -0.1113
  365MOL    H5944467   0.020   2.476   2.333 -3.6003  1.7717  0.7511
  365MOL    H6044468   7.909   2.464   2.192 -1.4012 -2.4453  0.2831
  365MOL    H6144469   7.995   2.237   2.156 -0.2302 -0.7050  0.1576
  365MOL    C6244470   7.887   2.229   2.350  0.5797  0.3306  0.1132
  365MOL    C6344471   7.742   2.256   2.301 -0.3507 -0.0934  0.2259
  365MOL    F6444472   7.716   2.201   2.186 -0.2548 -0.0137 -0.1965
  365MOL    H6544473   7.906   2.122   2.362  1.8783  0.4562 -0.7710
  365MOL    H6644474   7.894   2.279   2.447  0.8865  1.2455 -0.3716
  365MOL    H6744475   7.737   2.364   2.285 -2.1771 -0.1327  0.5145
  365MOL    C6844476   7.642   2.210   2.414  0.2945  0.7563  0.8799
  365MOL    C6944477   7.492   2.265   2.386 -0.0252 -0.0784  1.0343
  365MOL    F7044478   7.451   2.222   2.270  0.1312 -0.1098  0.1160
  365MOL    H7144479   7.628   2.103   2.397  0.0933  1.5124 -4.6262
  365MOL    H7244480   7.665   2.226   2.519 -0.2105 -0.3614  1.1661
  365MOL    H7344481   7.482   2.373   2.378  1.9523  0.0900  0.5523
  365MOL    C7444482   7.379   2.224   2.488  0.0897 -0.3752 -0.2168
  365MOL    C7544483   7.241   2.290   2.466  0.0569 -0.5039  0.2850
  365MOL    F7644484   7.164   2.194   2.408 -0.2982 -0.0950 -0.2693
  365MOL    H7744485   7.364   2.116   2.489  0.9862 -0.4969  0.6998
  365MOL    H7844486   7.417   2.252   2.586 -0.5164 -1.9052  0.4594
  365MOL    H7944487   7.255   2.370   2.393 -1.6771 -1.6232 -1.3517
  365MOL    C8044488   7.173   2.332   2.595 -0.4212  0.2534 -0.3139
  365MOL    C8144489   7.227   2.460   2.659  0.1105  0.1354  0.0147
  365MOL    F8244490   7.244   2.546   2.563 -0.1168 -0.0832  0.3552
  365MOL    H8344491   7.064   2.336   2.597 -0.5815 -3.0504  0.6797
  365MOL    H8444492   7.200   2.248   2.660  0.6408 -1.3384 -2.7364
  365MOL    H8544493   7.327   2.450   2.702  0.3271 -0.1119 -0.5402
  365MOL    C8644494   7.145   2.509   2.772  0.1085 -0.3307  0.5807
  365MOL    C8744495   7.175   2.656   2.806 -0.2672  0.1457  0.3112
  365MOL    F8844496   7.143   2.743   2.709  0.4105 -0.0254 -0.2133
  365MOL    H8944497   7.038   2.499   2.752  0.3729  0.8117 -1.5598
  365MOL    H9044498   7.151   2.440   2.856 -0.5058  1.7619  2.4114
  365MOL    H9144499   7.283   2.664   2.818 -0.1312  0.5884 -1.1446
  365MOL    C9244500   7.107   2.693   2.929  0.0812  0.0575 -0.1181
  365MOL    C9344501   7.149   2.825   2.983  0.0524  0.1863 -0.3169
  365MOL    F9444502   7.051   2.876   3.055  0.3901 -0.0561 -0.6511
  365MOL    H9544503   7.001   2.704   2.905  0.0056  2.0461  1.0170
  365MOL    H9644504   7.123   2.620   3.009 -3.3815  0.2586  0.8652
  365MOL    H9744505   7.174   2.896   2.905 -0.8166 -0.9956 -1.6883
  365MOL    C9844506   7.278   2.823   3.071 -0.0394  0.7554 -0.5636
  365MOL    C9944507   7.278   2.756   3.209  0.3354  0.0162 -0.5419
  365MOL   F10044508   7.275   2.624   3.196 -0.3257 -0.3329  0.4527
  365MOL   H10144509   7.357   2.785   3.007 -0.7843  0.6788 -1.4556
  365MOL   H10244510   7.325   2.920   3.085  2.5282 -0.1803 -2.4513
  365MOL   H10344511   7.192   2.785   3.269  1.8672  1.8294  0.8247
  365MOL   C10444512   7.414   2.792   3.276  0.1758 -0.4133 -0.4825
  365MOL   C10544513   7.437   2.693   3.394 -0.4555 -0.1534  0.0798
  365MOL   F10644514   7.559   2.700   3.425  0.1172 -0.0817 -0.0691
  365MOL   H10744515   7.489   2.779   3.198  1.9993 -0.1831  1.2007
  365MOL   H10844516   7.416   2.896   3.308  0.4153 -0.7006  0.4426
  365MOL   H10944517   7.433   2.596   3.345  1.8090 -0.5930  0.6830
  365MOL   C11044518   7.363   2.706   3.523 -0.1689  0.5860  0.3262
  365MOL   C11144519   7.397   2.603   3.634  0.1539  0.4712 -0.2271
  365MOL   F11244520   7.340   2.644   3.753 -0.2441 -0.0554 -0.0729
  365MOL   H11344521   7.378   2.809   3.558 -0.4677  0.8489 -0.3119
  365MOL   H11444522   7.256   2.689   3.508  0.5106 -1.4354 -2.6149
  365MOL   H11544523   7.502   2.615   3.658 -0.0762 -0.8053  1.5198
  365MOL   C11644524   7.348   2.455   3.605 -0.0886 -0.3102 -0.4035
  365MOL   C11744525   7.453   2.352   3.654  0.5712  0.1311 -0.0186
  365MOL   F11844526   7.403   2.230   3.626 -0.0085  0.5784 -0.2972
  365MOL   H11944527   7.254   2.427   3.652 -0.7514  0.3682 -1.2939
  365MOL   H12044528   7.342   2.440   3.497  2.4921 -1.7398 -0.3746
  365MOL   H12144529   7.480   2.364   3.759 -1.5354  0.1113  0.5357
  365MOL   H12244530   7.546   2.359   3.598  1.0505  0.2005  0.7789
  366MOL     C144531   6.853   6.355   2.165 -0.0052 -0.5920  0.4512
  366MOL     C244532   6.925   6.441   2.060  0.0954  0.5349  0.0955
  366MOL     F344533   6.837   6.471   1.963 -0.0453  0.6502  0.3182
  366MOL     H444534   6.801   6.270   2.120 -0.9893  0.9580 -1.3967
  366MOL     H544535   6.771   6.414   2.205  1.3040  2.3104 -0.9744
  366MOL     H644536   6.999   6.375   2.015 -0.1064  0.3683  0.0063
  366MOL     H744537   6.914   6.315   2.246  1.5116 -0.1653 -0.4515
  366MOL     C844538   6.984   6.568   2.115 -0.4445 -0.5571 -0.0533
  366MOL     C944539   7.038   6.660   2.008  0.2554 -0.5681 -0.1743
  366MOL    F1044540   7.081   6.769   2.075 -0.6759  0.2263  0.4807
  366MOL    H1144541   6.923   6.627   2.183 -0.5206  0.3243 -0.8651
  366MOL    H1244542   7.076   6.543   2.167 -0.6292 -1.5070 -0.1862
  366MOL    H1344543   6.967   6.701   1.937  1.5390  0.9424 -0.6256
  366MOL    C1444544   7.163   6.609   1.941 -0.4020  0.4360 -0.1152
  366MOL    C1544545   7.204   6.697   1.815 -0.5019  0.3366  0.1801
  366MOL    F1644546   7.118   6.653   1.726  0.3059 -0.2067  0.2067
  366MOL    H1744547   7.252   6.612   2.003 -0.0975 -1.6819 -0.4355
  366MOL    H1844548   7.159   6.511   1.894  1.3364  0.7162 -0.8521
  366MOL    H1944549   7.304   6.669   1.782 -0.8285 -1.0124  0.3355
  366MOL    C2044550   7.193   6.849   1.821 -0.0722  0.4258  0.4593
  366MOL    C2144551   7.311   6.900   1.908 -0.2490 -0.3336  0.2931
  366MOL    F2244552   7.427   6.874   1.847 -0.1651  0.6987 -0.0885
  366MOL    H2344553   7.210   6.882   1.718  0.6002 -2.6745 -0.4965
  366MOL    H2444554   7.093   6.879   1.851 -0.3814 -0.3126  0.1806
  366MOL    H2544555   7.305   6.857   2.008  1.1054  1.5097  1.2013
  366MOL    C2644556   7.305   7.047   1.932 -0.2835  0.3808  0.6461
  366MOL    C2744557   7.209   7.089   2.035 -0.1867 -0.1567  0.2459
  366MOL    F2844558   7.252   7.051   2.156  0.6413  0.4685 -0.1892
  366MOL    H2944559   7.406   7.075   1.960  0.1488  0.3587 -0.8254
  366MOL    H3044560   7.290   7.102   1.839  3.2949  0.9851  0.3473
  366MOL    H3144561   7.114   7.037   2.023 -0.8149  0.8673  0.6648
  366MOL    C3244562   7.197   7.243   2.027  0.1611  0.5726  0.2213
  366MOL    C3344563   7.325   7.323   2.044  0.2148  0.0085  0.0640
  366MOL    F3444564   7.388   7.329   1.925 -0.3048  0.2687 -0.3576
  366MOL    H3544565   7.150   7.268   1.932  0.4860  0.8730  0.1387
  366MOL    H3644566   7.121   7.278   2.097  0.9588  3.6979 -0.3775
  366MOL    H3744567   7.389   7.272   2.115  0.7523  2.1430  1.1536
  366MOL    C3844568   7.303   7.462   2.097  0.1419  0.4784 -0.2695
  366MOL    C3944569   7.417   7.520   2.170 -0.1187  0.3892 -0.6634
  366MOL    F4044570   7.525   7.507   2.092 -0.0860 -0.4004  0.5750
  366MOL    H4144571   7.283   7.533   2.016 -0.0298  0.5660 -0.1499
  366MOL    H4244572   7.208   7.473   2.150 -1.2625 -4.2541 -1.5700
  366MOL    H4344573   7.449   7.449   2.246 -0.1850 -0.4269 -1.3948
  366MOL    C4444574   7.404   7.665   2.222  0.0545  0.3860  0.3017
  366MOL    C4544575   7.491   7.702   2.336 -0.1425 -0.1084 -0.6089
  366MOL    F4644576   7.485   7.832   2.353 -0.1448 -0.2418 -0.1385
  366MOL    H4744577   7.428   7.739   2.145  1.7368  0.4538  0.8935
  366MOL    H4844578   7.300   7.686   2.247 -0.1198  1.1122 -0.9566
  366MOL    H4944579   7.598   7.688   2.318  0.2051 -0.0840  1.3025
  366MOL    C5044580   7.455   7.633   2.471  0.4377 -0.0015 -0.4007
  366MOL    C5144581   7.571   7.648   2.576 -0.7628 -0.3767 -1.1657
  366MOL    F5244582   7.600   7.780   2.600  0.1334  0.0132  0.6861
  366MOL    H5344583   7.368   7.687   2.510 -1.7153 -1.6146 -2.8531
  366MOL    H5444584   7.431   7.528   2.459  0.2296  0.2349 -2.2128
  366MOL    H5544585   7.666   7.608   2.541 -0.5949  0.2954 -1.4810
  366MOL    C5644586   7.533   7.567   2.707  0.2425  0.9456  0.5583
  366MOL    C5744587   7.651   7.541   2.807  0.0765  0.2675  0.4399
  366MOL    F5844588   7.726   7.454   2.738 -0.6259 -0.3619  0.1065
  366MOL    H5944589   7.465   7.623   2.771 -0.0488 -0.9633  1.9426
  366MOL    H6044590   7.471   7.486   2.669 -0.7110  2.6307 -1.6257
  366MOL    H6144591   7.619   7.489   2.898  0.2797  0.4328  0.6066
  366MOL    C6244592   7.739   7.658   2.850  0.0105 -0.2312 -0.7503
  366MOL    C6344593   7.852   7.608   2.947 -0.1272  0.3851 -0.4411
  366MOL    F6444594   7.937   7.715   2.948  0.8429  0.6214  0.4008
  366MOL    H6544595   7.791   7.698   2.762  1.8264  1.0507  0.8696
  366MOL    H6644596   7.683   7.746   2.878  1.0314  0.3910 -0.6226
  366MOL    H6744597   7.909   7.519   2.922 -0.0333 -0.0646  1.3291
  366MOL    C6844598   7.807   7.585   3.096  0.0730 -0.3678  0.0223
  366MOL    C6944599   7.899   7.498   3.187 -0.5867  0.1451  0.3789
  366MOL    F7044600   8.000   7.574   3.222  0.5037 -0.1838 -0.0571
  366MOL    H7144601   7.790   7.679   3.149  0.0009 -1.1615  1.4251
  366MOL    H7244602   7.714   7.529   3.102 -0.0008 -0.4311 -1.4133
  366MOL    H7344603   7.944   7.410   3.141 -3.1963 -1.2571  0.4227
  366MOL    C7444604   7.830   7.443   3.316 -0.5287 -0.4452 -0.1626
  366MOL    C7544605   7.933   7.366   3.403  0.0858 -0.0447 -0.0542
  366MOL    F7644606   0.037   7.441   3.431  0.4008  0.7331 -0.9750
  366MOL    H7744607   7.801   7.529   3.376  0.1120 -0.5958  0.3664
  366MOL    H7844608   7.742   7.384   3.289 -0.4795 -0.8119  0.4657
  366MOL    H7944609   7.975   7.285   3.345  0.1505  0.3261 -0.5232
  366MOL    C8044610   7.866   7.315   3.537  0.9710 -0.5301 -0.1465
  366MOL    C8144611   7.957   7.213   3.610  0.3118  0.0058  0.0913
  366MOL    F8244612   7.900   7.194   3.727  0.2107  0.0115 -0.0397
  366MOL    H8344613   7.844   7.397   3.605  0.9551 -0.9760  0.3876
  366MOL    H8444614   7.767   7.272   3.527  1.3385 -1.3534 -0.2959
  366MOL    H8544615   0.046   7.269   3.624  0.7014 -0.9870  1.6957
  366MOL    C8644616   7.971   7.079   3.539 -0.3958  0.2872 -0.6807
  366MOL    C8744617   0.037   6.981   3.636  0.0702 -0.1447  0.2866
  366MOL    F8844618   0.029   6.859   3.591 -0.4111 -0.4485 -0.0979
  366MOL    H8944619   7.872   7.049   3.504  1.0253 -2.0398 -2.8707
  366MOL    H9044620   0.036   7.082   3.454  0.2248 -1.0008 -0.2432
  366MOL    H9144621   7.992   6.982   3.733  1.3597  2.6669  0.9535
  366MOL    C9244622   0.184   7.006   3.668  0.6094  0.0772 -0.7734
  366MOL    C9344623   0.241   6.895   3.755  0.0241 -0.2378 -0.3616
  366MOL    F9444624   0.365   6.924   3.755  0.2783  0.0277  0.1187
  366MOL    H9544625   0.238   7.033   3.577 -1.2945  0.3750 -1.8488
  366MOL    H9644626   0.183   7.103   3.718  0.6822  0.9099 -2.3371
  366MOL    H9744627   0.241   6.800   3.702 -0.8322  0.4268 -1.5791
  366MOL    C9844628   0.181   6.887   3.897 -0.0480 -0.0228 -0.1711
  366MOL    C9944629   0.243   6.792   3.998 -0.0443 -0.6445  0.8430
  366MOL   F10044630   0.179   6.811   4.115 -0.0556 -0.2181  0.5592
  366MOL   H10144631   0.175   6.983   3.949  1.8015  0.2574 -0.4343
  366MOL   H10244632   0.077   6.856   3.889  0.1618 -1.8435  3.3891
  366MOL   H10344633   0.345   6.825   4.015 -0.1677  0.1389  0.1521
  366MOL   C10444634   0.235   6.645   3.943 -0.1636 -0.1421 -0.1091
  366MOL   C10544635   0.275   6.542   4.061  0.1202  0.1479 -0.1720
  366MOL   F10644636   0.245   6.426   4.011  0.2941 -0.2819  1.1338
  366MOL   H10744637   0.132   6.630   3.911 -0.3322  1.8937 -0.5842
  366MOL   H10844638   0.302   6.636   3.858 -2.8110  0.7213 -2.3383
  366MOL   H10944639   0.211   6.558   4.147  0.2606  1.0439 -0.2262
  366MOL   C11044640   0.422   6.553   4.099 -0.4816  0.0981  0.0699
  366MOL   C11144641   0.468   6.449   4.201  0.2768 -0.1116  0.0134
  366MOL   F11244642   0.596   6.455   4.206  0.3829  0.1289 -0.0521
  366MOL   H11344643   0.486   6.533   4.013  0.1051 -1.8361  0.9415
  366MOL   H11444644   0.444   6.658   4.121  1.2703  0.0652 -1.3810
  366MOL   H11544645   0.453   6.346   4.171  1.0209  0.0137 -0.8080
  366MOL   C11644646   0.416   6.452   4.350  0.6734  0.5538 -0.3795
  366MOL   C11744647   0.458   6.585   4.420 -0.1384  0.3044  0.3148
  366MOL   F11844648   0.410   6.578   4.547  0.1117 -0.2098  0.4775
  366MOL   H11944649   0.309   6.432   4.358  0.5088  1.1717 -1.0288
  366MOL   H12044650   0.459   6.367   4.404  0.3857 -0.7482 -2.1325
  366MOL   H12144651   0.412   6.670   4.370 -1.0233 -0.9765 -1.1161
  366MOL   H12244652   0.566   6.602   4.425 -0.1767  0.8319 -0.5328
  367MOL     C144653   2.013   4.004   2.892  0.0967 -0.5219 -0.0688
  367MOL     C244654   1.953   4.016   3.033  0.1591 -0.4205 -0.0830
  367MOL     F344655   1.994   4.128   3.089 -0.2570 -0.3000  0.2068
  367MOL     H444656   1.973   3.922   2.832 -0.3310 -0.5627  0.2687
  367MOL     H544657   2.121   3.992   2.902  0.5577  3.0809 -0.2460
  367MOL     H644658   1.995   3.941   3.100  0.9057  0.4627  0.4456
  367MOL     H744659   1.996   4.099   2.841 -0.6501 -0.6103  0.0075
  367MOL     C844660   1.796   4.023   3.029  0.1582 -0.4770  0.4890
  367MOL     C944661   1.724   3.888   3.017 -0.3233  0.2462  0.1272
  367MOL    F1044662   1.742   3.818   3.126 -0.5853 -0.2869 -0.4664
  367MOL    H1144663   1.760   4.066   3.122  0.5729 -0.4542  0.6366
  367MOL    H1244664   1.774   4.093   2.949  0.6897 -0.5466  0.2792
  367MOL    H1344665   1.767   3.829   2.935  1.1715  0.2064  0.9276
  367MOL    C1444666   1.573   3.911   2.999 -0.4532 -0.0700 -0.5929
  367MOL    C1544667   1.488   3.779   3.001  0.0999  0.1456 -0.7067
  367MOL    F1644668   1.359   3.809   3.021  0.0134  0.2453 -0.0591
  367MOL    H1744669   1.540   3.971   3.084  1.8253 -2.0787  1.8174
  367MOL    H1844670   1.551   3.970   2.911 -0.6881  0.0283 -0.4696
  367MOL    H1944671   1.517   3.726   3.092  1.7415  0.4084 -1.0594
  367MOL    C2044672   1.494   3.686   2.880  0.3798  0.8290  0.3187
  367MOL    C2144673   1.398   3.567   2.886 -0.1016  0.9094  0.1531
  367MOL    F2244674   1.269   3.597   2.872  0.4897 -0.2989 -0.2148
  367MOL    H2344675   1.460   3.750   2.799 -1.0055 -0.2260  0.0375
  367MOL    H2444676   1.592   3.646   2.857  0.8345  2.8445 -1.3993
  367MOL    H2544677   1.411   3.495   2.968  3.6910 -2.1263 -2.8765
  367MOL    C2644678   1.404   3.481   2.757 -0.1022  0.5527 -0.6281
  367MOL    C2744679   1.543   3.407   2.735 -0.3557  0.3537  0.2962
  367MOL    F2844680   1.571   3.352   2.852 -0.3200 -0.0600 -0.1329
  367MOL    H2944681   1.326   3.405   2.762  0.7103 -0.6202 -4.3221
  367MOL    H3044682   1.367   3.553   2.684  0.3609  0.6497 -0.7660
  367MOL    H3144683   1.617   3.485   2.715 -1.1523  1.6254  2.1775
  367MOL    C3244684   1.532   3.291   2.633 -0.2028 -0.7451 -0.0842
  367MOL    C3344685   1.449   3.166   2.664 -0.6730  0.1060  1.1572
  367MOL    F3444686   1.318   3.199   2.684  0.3432 -0.2061 -0.0049
  367MOL    H3544687   1.490   3.338   2.544  0.9986 -1.9889 -1.3413
  367MOL    H3644688   1.632   3.252   2.614 -1.1942 -2.7712 -1.3886
  367MOL    H3744689   1.472   3.111   2.755  0.2046  0.7297  1.3169
  367MOL    C3844690   1.440   3.081   2.535 -0.2330 -0.7516 -0.2333
  367MOL    C3944691   1.383   2.934   2.564  0.0085 -0.2932 -0.2249
  367MOL    F4044692   1.247   2.950   2.575  0.4671 -0.3359  0.2081
  367MOL    H4144693   1.388   3.139   2.459  0.5470 -1.2919 -1.1872
  367MOL    H4244694   1.540   3.059   2.497  0.3403 -0.5157  1.1278
  367MOL    H4344695   1.411   2.901   2.664 -0.7760 -1.9627 -0.5456
  367MOL    C4444696   1.421   2.827   2.457 -0.3782 -0.0003  0.0724
  367MOL    C4544697   1.377   2.679   2.496 -0.2935  0.1859  0.4937
  367MOL    F4644698   1.264   2.660   2.434 -0.2024 -0.4351  0.0268
  367MOL    H4744699   1.391   2.861   2.358  2.4872 -0.3152 -0.9456
  367MOL    H4844700   1.530   2.833   2.458 -0.4302  1.4924 -0.9407
  367MOL    H4944701   1.357   2.671   2.602 -3.1869 -0.9068 -0.0908
  367MOL    C5044702   1.472   2.566   2.448  0.5477 -0.7187 -0.1782
  367MOL    C5144703   1.621   2.577   2.485  0.2091  0.1640  0.1860
  367MOL    F5244704   1.631   2.628   2.609  0.2561  0.1182  0.0820
  367MOL    H5344705   1.429   2.483   2.504  0.1939 -0.3034  0.1637
  367MOL    H5444706   1.464   2.547   2.340  1.1247 -2.0781  0.0055
  367MOL    H5544707   1.672   2.654   2.426  0.0290  0.2304  0.1180
  367MOL    C5644708   1.699   2.439   2.472  0.2876  0.0479  0.1682
  367MOL    C5744709   1.847   2.444   2.488  0.3546  0.1331  0.2614
  367MOL    F5844710   1.897   2.543   2.413  0.8235 -0.0583 -0.0152
  367MOL    H5944711   1.660   2.357   2.532  0.6268  0.2508  0.6676
  367MOL    H6044712   1.674   2.409   2.371 -1.8836 -0.2780  0.7742
  367MOL    H6144713   1.892   2.354   2.444  1.1008  1.0872 -0.9501
  367MOL    C6244714   1.904   2.494   2.620 -0.0229  0.4684  0.8092
  367MOL    C6344715   1.849   2.431   2.746 -0.0728 -0.0417  0.2383
  367MOL    F6444716   1.872   2.303   2.741 -0.1367  0.1522 -0.2057
  367MOL    H6544717   2.011   2.479   2.614 -0.4555 -2.3717 -0.7641
  367MOL    H6644718   1.896   2.601   2.637  2.0826  0.8261 -0.4458
  367MOL    H6744719   1.743   2.455   2.752 -0.1888 -0.4718 -0.0515
  367MOL    C6844720   1.918   2.488   2.872  0.0394  0.6855  0.0632
  367MOL    C6944721   1.876   2.432   3.008 -0.8245 -0.8203 -0.0921
  367MOL    F7044722   1.952   2.325   3.038 -0.4059  0.4643  0.2506
  367MOL    H7144723   2.026   2.479   2.857 -0.0751 -1.8112  0.5180
  367MOL    H7244724   1.888   2.592   2.871 -0.8528  0.4553  1.4897
  367MOL    H7344725   1.778   2.385   3.013 -2.2751  2.1925  0.8551
  367MOL    C7444726   1.890   2.531   3.127 -0.3051  0.4000  0.3490
  367MOL    C7544727   2.030   2.604   3.121  0.4222 -0.8777 -0.6643
  367MOL    F7644728   2.035   2.687   3.015  0.2742  0.8103  0.1922
  367MOL    H7744729   1.811   2.604   3.111 -0.7976  0.2970  2.2314
  367MOL    H7844730   1.870   2.470   3.216 -1.9177 -1.0874 -1.0005
  367MOL    H7944731   2.107   2.532   3.093  1.1328  0.0187 -1.0354
  367MOL    C8044732   2.075   2.676   3.248  0.8610 -0.1144  0.6931
  367MOL    C8144733   1.988   2.805   3.281  0.0153  0.2148 -0.5058
  367MOL    F8244734   1.863   2.770   3.325  0.3802 -0.4900  0.1240
  367MOL    H8344735   2.082   2.605   3.330 -0.5313 -2.4871 -1.1720
  367MOL    H8444736   2.178   2.707   3.230  1.0373 -1.2664 -0.2793
  367MOL    H8544737   1.961   2.856   3.189  1.3898  0.1481 -0.9662
  367MOL    C8644738   2.045   2.896   3.393  0.1925  0.8080  0.0869
  367MOL    C8744739   2.070   2.815   3.525  1.3921  0.1286  0.1514
  367MOL    F8844740   2.127   2.916   3.593  0.1747  0.0772 -0.1627
  367MOL    H8944741   2.135   2.948   3.361 -1.2678  1.3228 -3.4176
  367MOL    H9044742   1.976   2.978   3.415  0.1519  1.1879 -1.3683
  367MOL    H9144743   2.147   2.741   3.508  1.2358  0.0371 -0.1619
  367MOL    C9244744   1.945   2.747   3.592 -0.3471 -0.4139  0.1252
  367MOL    C9344745   1.957   2.717   3.741  0.1412  0.9250  0.3020
  367MOL    F9444746   1.958   2.840   3.793  0.0817 -0.5836 -0.1130
  367MOL    H9544747   1.864   2.815   3.568  0.1256 -0.4073 -1.5108
  367MOL    H9644748   1.926   2.666   3.522 -0.9612  1.2698 -1.6921
  367MOL    H9744749   2.050   2.665   3.768 -0.1255  1.9020  3.2794
  367MOL    C9844750   1.841   2.643   3.809 -0.7762  0.1876 -0.1834
  367MOL    C9944751   1.831   2.494   3.776  0.3924 -0.6354  0.3748
  367MOL   F10044752   1.944   2.435   3.811 -0.3491 -1.0061 -0.1009
  367MOL   H10144753   1.848   2.651   3.918 -0.7360 -0.9937 -0.0883
  367MOL   H10244754   1.749   2.695   3.784 -0.8546  0.4590  0.6502
  367MOL   H10344755   1.835   2.493   3.667  1.6131 -2.6004  0.4114
  367MOL   C10444756   1.702   2.445   3.845 -0.1489 -0.4427  0.5328
  367MOL   C10544757   1.574   2.473   3.765 -1.2539 -1.3253  0.7431
  367MOL   F10644758   1.577   2.428   3.649 -0.2192  0.1637  0.1616
  367MOL   H10744759   1.708   2.337   3.858 -2.9165 -0.6676  0.4166
  367MOL   H10844760   1.680   2.505   3.934 -1.1534  0.5615 -0.3737
  367MOL   H10944761   1.555   2.579   3.750  0.3046 -1.3294 -1.4112
  367MOL   C11044762   1.447   2.416   3.825 -0.0021 -0.3134  0.5160
  367MOL   C11144763   1.328   2.447   3.739 -0.9056  0.2152 -0.4053
  367MOL   F11244764   1.226   2.367   3.780  0.0368  0.3711 -0.2328
  367MOL   H11344765   1.450   2.307   3.823 -1.0972 -0.3546 -2.6433
  367MOL   H11444766   1.432   2.455   3.925  0.1529  0.8116  0.0979
  367MOL   H11544767   1.343   2.411   3.637  0.0925  1.3330 -0.6619
  367MOL   C11644768   1.282   2.597   3.738  0.3083  0.7884  0.1850
  367MOL   C11744769   1.137   2.611   3.677 -0.0192  0.2852  0.4154
  367MOL   F11844770   1.106   2.738   3.664 -0.3206  0.4298  0.1984
  367MOL   H11944771   1.283   2.630   3.842 -1.8675  1.6074 -0.0185
  367MOL   H12044772   1.355   2.663   3.690 -0.0654  0.2911 -1.0880
  367MOL   H12144773   1.052   2.565   3.728 -0.9451 -2.1234 -3.1334
  367MOL   H12244774   1.128   2.570   3.576  0.1769  0.5266  0.2986
  368MOL     C144775   2.499   6.484   0.330  0.4027  0.0445  0.3523
  368MOL     C244776   2.381   6.409   0.389 -0.2403 -0.4136  0.7161
  368MOL     F344777   2.306   6.381   0.285  0.1799 -0.1538 -0.1302
  368MOL     H444778   2.472   6.570   0.269 -0.7807 -0.9096 -0.5148
  368MOL     H544779   2.565   6.423   0.268  0.5604  0.2812  0.2879
  368MOL     H644780   2.319   6.475   0.450  1.3222  0.9180  0.9039
  368MOL     H744781   2.563   6.529   0.405  0.2920 -1.0096  1.0835
  368MOL     C844782   2.421   6.270   0.451  0.0175 -0.4608  0.0133
  368MOL     C944783   2.491   6.298   0.581 -0.6091 -0.5245 -0.2003
  368MOL    F1044784   2.416   6.370   0.662  0.6065 -0.4025 -0.3732
  368MOL    H1144785   2.327   6.220   0.472  0.5855 -0.9990  1.3590
  368MOL    H1244786   2.478   6.205   0.385  0.5840  0.5880 -0.5434
  368MOL    H1344787   2.588   6.348   0.578 -0.5352 -0.7047 -0.9841
  368MOL    C1444788   2.520   6.160   0.647 -1.0440  0.0754 -0.2981
  368MOL    C1544789   2.631   6.075   0.573  0.3128  0.5347 -0.5442
  368MOL    F1644790   2.740   6.154   0.562  0.0653  0.1901  0.1319
  368MOL    H1744791   2.560   6.175   0.747  1.0399  2.9394 -1.4573
  368MOL    H1844792   2.436   6.091   0.645 -0.1047 -1.0608 -0.8014
  368MOL    H1944793   2.605   6.052   0.470 -1.6840  0.4777 -0.0639
  368MOL    C2044794   2.672   5.953   0.649 -1.2524 -0.3365 -0.1395
  368MOL    C2144795   2.565   5.854   0.683 -0.1806 -0.1539 -0.1660
  368MOL    F2244796   2.533   5.803   0.566 -0.2692 -0.4457  0.1418
  368MOL    H2344797   2.753   5.900   0.599  0.4051  1.0112  1.0402
  368MOL    H2444798   2.716   5.997   0.739  1.2548 -0.2335 -1.3951
  368MOL    H2544799   2.471   5.902   0.706 -1.9734 -2.4713 -2.3191
  368MOL    C2644800   2.599   5.739   0.779  0.1460 -0.3775 -0.2414
  368MOL    C2744801   2.628   5.774   0.923 -0.1636  0.7906  0.6150
  368MOL    F2844802   2.527   5.850   0.967 -0.0478 -0.1429 -0.1139
  368MOL    H2944803   2.510   5.677   0.772 -1.4424  1.8794 -0.5386
  368MOL    H3044804   2.671   5.677   0.724 -0.2129  0.5211 -1.7271
  368MOL    H3144805   2.720   5.832   0.938  0.2019  0.5870 -0.7972
  368MOL    C3244806   2.637   5.653   1.015 -0.0755  0.7926 -0.2078
  368MOL    C3344807   2.761   5.576   1.025  0.1238  0.2404 -0.4348
  368MOL    F3444808   2.862   5.651   1.057  0.7082 -0.4212  0.2351
  368MOL    H3544809   2.614   5.696   1.113  0.5470 -0.1239  0.3438
  368MOL    H3644810   2.558   5.582   0.990 -1.2886  1.9130  0.3456
  368MOL    H3744811   2.790   5.531   0.929 -0.7374 -0.9499 -0.1517
  368MOL    C3844812   2.754   5.461   1.124  0.3739  0.2627 -0.1422
  368MOL    C3944813   2.692   5.337   1.048  1.1380  0.7381  0.8010
  368MOL    F4044814   2.738   5.309   0.923  0.0473 -0.3182  0.1228
  368MOL    H4144815   2.858   5.451   1.156  0.2797  1.0556  0.4173
  368MOL    H4244816   2.694   5.486   1.211 -0.9434  1.7221 -1.4446
  368MOL    H4344817   2.593   5.382   1.039  0.6877 -0.2356  0.8476
  368MOL    C4444818   2.704   5.212   1.141 -0.1606 -0.0074 -0.4988
  368MOL    C4544819   2.622   5.086   1.101 -0.0801  0.5609 -0.3667
  368MOL    F4644820   2.663   5.053   0.979  0.2663  0.0173  0.3485
  368MOL    H4744821   2.805   5.171   1.137  0.1178  0.4079  1.6197
  368MOL    H4844822   2.688   5.240   1.245 -0.5699  0.5876 -0.7244
  368MOL    H4944823   2.517   5.116   1.091 -0.8733 -2.1248 -0.4143
  368MOL    C5044824   2.643   4.977   1.200 -0.4257 -0.0821  0.3378
  368MOL    C5144825   2.550   4.862   1.170 -0.5837 -0.0610  0.4710
  368MOL    F5244826   2.618   4.746   1.196  0.1461  0.0871 -0.2768
  368MOL    H5344827   2.749   4.954   1.209 -0.4773 -0.6190 -0.4417
  368MOL    H5444828   2.612   5.022   1.295 -3.9062  2.2627 -1.8024
  368MOL    H5544829   2.536   4.859   1.062 -0.5330 -2.4906  0.4912
  368MOL    C5644830   2.417   4.861   1.257 -0.3596  0.7201  0.6225
  368MOL    C5744831   2.332   4.738   1.236  0.1085  0.8144  0.0889
  368MOL    F5844832   2.218   4.765   1.288 -0.0762  0.3267 -0.0108
  368MOL    H5944833   2.446   4.861   1.362  2.3849  1.2330 -0.1051
  368MOL    H6044834   2.359   4.950   1.232  0.5578  0.7638 -1.4006
  368MOL    H6144835   2.374   4.651   1.286 -2.0187  0.4093  1.2629
  368MOL    C6244836   2.285   4.716   1.092  0.0772 -1.3575 -0.9579
  368MOL    C6344837   2.190   4.601   1.090 -0.2100  0.0043 -0.6703
  368MOL    F6444838   2.171   4.595   0.957  0.0840 -0.0904  0.3451
  368MOL    H6544839   2.235   4.808   1.060 -0.9563 -1.1219  1.2451
  368MOL    H6644840   2.375   4.691   1.036  0.9193 -1.3329  0.3770
  368MOL    H6744841   2.093   4.621   1.137  0.9096  0.0728  1.6544
  368MOL    C6844842   2.247   4.463   1.122  0.0320  0.7541 -0.0486
  368MOL    C6944843   2.150   4.343   1.089  0.2076 -0.2473  0.5757
  368MOL    F7044844   2.238   4.255   1.044 -0.2305 -0.4221  0.2422
  368MOL    H7144845   2.347   4.449   1.081 -0.6460 -0.2570 -1.3764
  368MOL    H7244846   2.265   4.459   1.230 -0.9192 -2.4978  0.0269
  368MOL    H7344847   2.103   4.362   0.992 -1.4835  1.8456  1.7711
  368MOL    C7444848   2.058   4.286   1.195  0.5101  0.4635 -0.1266
  368MOL    C7544849   1.963   4.175   1.153  0.3930  0.1636  0.4807
  368MOL    F7644850   2.039   4.072   1.118  0.2169 -0.3938  0.2642
  368MOL    H7744851   2.110   4.257   1.286 -1.0062  0.1150  0.6524
  368MOL    H7844852   2.004   4.376   1.226  0.1356  0.5771 -1.0898
  368MOL    H7944853   1.893   4.217   1.080 -1.9358 -1.7913  1.5332
  368MOL    C8044854   1.867   4.127   1.266 -0.6513 -0.0383  0.3260
  368MOL    C8144855   1.743   4.052   1.220  0.0614  0.9705  0.3114
  368MOL    F8244856   1.657   4.141   1.178  0.3199 -0.1543  0.1892
  368MOL    H8344857   1.928   4.054   1.319 -1.4636 -2.2810 -1.7417
  368MOL    H8444858   1.845   4.204   1.340  0.4266 -0.4089  1.0354
  368MOL    H8544859   1.696   4.019   1.313 -0.6922 -0.6511 -0.6195
  368MOL    C8644860   1.760   3.936   1.120 -0.2861  0.7743 -0.7531
  368MOL    C8744861   1.800   3.798   1.186  0.1491  0.1146  0.3044
  368MOL    F8844862   1.708   3.787   1.286  0.3749 -0.1049 -0.0274
  368MOL    H8944863   1.666   3.910   1.071  0.3833  0.6576 -1.9962
  368MOL    H9044864   1.838   3.952   1.045 -0.3008  2.1570 -0.4787
  368MOL    H9144865   1.899   3.810   1.229  0.0137  0.3245  0.5578
  368MOL    C9244866   1.788   3.684   1.079  0.3261 -1.1578 -0.3244
  368MOL    C9344867   1.800   3.543   1.143  0.0027 -0.3570  0.1885
  368MOL    F9444868   1.707   3.540   1.229  0.2156 -0.0348  0.0059
  368MOL    H9544869   1.692   3.699   1.030 -0.3497 -1.5415  0.8566
  368MOL    H9644870   1.865   3.695   1.003  0.4997  1.2997  0.1738
  368MOL    H9744871   1.898   3.526   1.188 -0.0678  0.3883  0.6334
  368MOL    C9844872   1.771   3.432   1.035 -0.5123 -0.0363  0.2391
  368MOL    C9944873   1.836   3.302   1.080  0.3360 -0.1631  0.4192
  368MOL   F10044874   1.968   3.309   1.103 -0.1627 -0.0059  0.9502
  368MOL   H10144875   1.666   3.416   1.010 -0.4213  0.8239 -0.7116
  368MOL   H10244876   1.830   3.458   0.947  0.4888 -1.2378  0.5440
  368MOL   H10344877   1.842   3.224   1.003 -0.2419 -0.0265  0.2315
  368MOL   C10444878   1.776   3.231   1.203 -0.5548  0.5772 -0.2666
  368MOL   C10544879   1.651   3.144   1.185 -0.5615 -0.1132 -0.2381
  368MOL   F10644880   1.692   3.048   1.096  0.6075  0.3174  0.2344
  368MOL   H10744881   1.847   3.159   1.245 -2.4570  0.1505  2.3389
  368MOL   H10844882   1.755   3.311   1.274  1.0931 -0.4271  1.4045
  368MOL   H10944883   1.575   3.200   1.130 -0.3655 -1.1604 -1.5765
  368MOL   C11044884   1.589   3.089   1.310  0.1273 -0.0528 -0.1916
  368MOL   C11144885   1.560   3.188   1.426  0.5997  0.7966 -0.6918
  368MOL   F11244886   1.484   3.276   1.368  0.5837 -0.1258  0.1346
  368MOL   H11344887   1.495   3.049   1.273  0.7086 -1.0461 -0.6167
  368MOL   H11444888   1.649   3.002   1.338 -0.1379 -0.9121 -2.2409
  368MOL   H11544889   1.648   3.247   1.454  0.2516  0.7684  0.4818
  368MOL   C11644890   1.491   3.115   1.547 -0.1134 -0.3709 -0.6369
  368MOL   C11744891   1.473   3.218   1.659  0.1381  0.1363 -0.3571
  368MOL   F11844892   1.574   3.232   1.737  0.2445  0.2172 -0.2586
  368MOL   H11944893   1.393   3.071   1.533  0.5477 -1.9348 -0.3650
  368MOL   H12044894   1.566   3.040   1.569  1.3944  1.3139  0.1382
  368MOL   H12144895   1.394   3.184   1.726  0.9116  3.3039  2.3140
  368MOL   H12244896   1.449   3.319   1.624 -0.8553  0.7252  1.9283
  369MOL     C144897   2.598   7.950   3.841  0.2290 -0.2545 -0.6459
  369MOL     C244898   2.499   7.831   3.824 -0.1240  0.1243  0.2768
  369MOL     F344899   2.562   7.713   3.799 -0.1473 -0.0073 -0.7757
  369MOL     H444900   2.675   7.946   3.763 -1.1822  0.1442 -2.0852
  369MOL     H544901   2.658   7.940   3.931  0.3139 -3.2076 -0.9874
  369MOL     H644902   2.437   7.839   3.735  1.7454 -0.3679 -1.1056
  369MOL     H744903   2.558   0.048   3.844 -0.0485 -0.3262 -1.7201
  369MOL     C844904   2.393   7.803   3.938 -0.5414 -0.0560 -0.0230
  369MOL     C944905   2.282   7.909   3.958 -0.6138 -0.3342 -0.4837
  369MOL    F1044906   2.210   7.909   3.845 -0.4853  0.3493 -0.0649
  369MOL    H1144907   2.345   7.705   3.941 -1.1148  0.2609  2.6506
  369MOL    H1244908   2.443   7.810   4.035 -2.0795 -0.0134  0.7882
  369MOL    H1344909   2.327   0.005   3.966  2.3845 -1.7770  0.9659
  369MOL    C1444910   2.178   7.886   4.071 -0.9050  0.6225 -0.0499
  369MOL    C1544911   2.069   7.996   4.079  0.4061  0.2398  0.1271
  369MOL    F1644912   1.998   7.967   4.185  0.1907 -0.2079  0.3727
  369MOL    H1744913   2.152   7.781   4.077  0.8623  0.1085 -1.0566
  369MOL    H1844914   2.236   7.906   4.162  0.1134  2.0157 -0.9914
  369MOL    H1944915   1.997   7.991   3.997 -0.1858  2.2197  0.4841
  369MOL    C2044916   2.125   0.138   4.086  0.2290 -1.0157 -0.4453
  369MOL    C2144917   2.022   0.234   4.130  0.3109 -0.2097  0.2556
  369MOL    F2244918   2.090   0.346   4.138 -0.0187 -0.2907 -0.0816
  369MOL    H2344919   2.204   0.145   4.161  1.3334 -0.1796 -1.6534
  369MOL    H2444920   2.170   0.162   3.990  0.5944  0.2601  0.0265
  369MOL    H2544921   1.997   0.205   4.232 -1.2442 -0.3939 -0.1717
  369MOL    C2644922   1.904   0.252   4.037  0.0069 -0.2613  0.0374
  369MOL    C2744923   1.811   0.355   4.093 -0.8038 -0.7234 -0.0956
  369MOL    F2844924   1.744   0.411   3.990 -0.4376 -0.9381  0.0012
  369MOL    H2944925   1.945   0.289   3.943 -1.5286  0.4354 -0.3633
  369MOL    H3044926   1.846   0.165   4.007 -0.3319  0.4336 -1.3663
  369MOL    H3144927   1.861   0.442   4.137 -1.0476 -0.6613  0.0607
  369MOL    C3244928   1.715   0.304   4.203  0.2495  0.1216  0.3954
  369MOL    C3344929   1.643   0.407   4.290  0.6618 -0.7036  0.3880
  369MOL    F3444930   1.556   0.339   4.357 -0.5078  0.3874 -0.3831
  369MOL    H3544931   1.647   0.236   4.153  0.4343 -0.7685  1.3216
  369MOL    H3644932   1.778   0.242   4.267  0.9714 -0.2754 -0.6861
  369MOL    H3744933   1.581   0.481   4.239  1.6929  0.1450  0.3676
  369MOL    C3844934   1.716   0.480   4.395  0.2863  0.0765 -0.1634
  369MOL    C3944935   1.805   0.391   4.494  0.3462  0.1950  0.4217
  369MOL    F4044936   1.911   0.340   4.431  0.3210 -0.2918  0.0891
  369MOL    H4144937   1.776   0.547   4.334 -2.0478  3.2147  0.9198
  369MOL    H4244938   1.641   0.534   4.452  0.7766  0.6692 -0.0826
  369MOL    H4344939   1.753   0.300   4.524 -0.0979  0.8226  1.6404
  369MOL    C4444940   1.855   0.469   4.616 -0.6589 -0.8548  0.2067
  369MOL    C4544941   1.924   0.383   4.724  0.5319  0.1330 -0.9981
  369MOL    F4644942   1.842   0.285   4.770 -0.1246 -0.3021 -0.1395
  369MOL    H4744943   1.914   0.554   4.583 -2.4842 -0.8626 -3.2724
  369MOL    H4844944   1.770   0.518   4.664 -0.0377 -0.3339  0.7723
  369MOL    H4944945   1.944   0.440   4.815 -2.1529 -0.0773 -0.2400
  369MOL    C5044946   2.056   0.317   4.680 -0.2323 -0.0213 -0.2946
  369MOL    C5144947   2.166   0.427   4.659 -0.4387 -0.8129  0.1061
  369MOL    F5244948   2.201   0.495   4.773  0.0004  0.0526 -0.6577
  369MOL    H5344949   2.080   0.234   4.747  1.2273  0.0424 -0.7281
  369MOL    H5444950   2.037   0.251   4.595 -0.7577  2.3496 -2.0566
  369MOL    H5544951   2.137   0.512   4.597 -0.5376 -2.9448 -2.8517
  369MOL    C5644952   2.295   0.374   4.608 -0.4815  0.7835  0.3842
  369MOL    C5744953   2.303   0.351   4.453  0.7790 -0.1633  0.1883
  369MOL    F5844954   2.201   0.279   4.415  0.0779  0.2685  0.1708
  369MOL    H5944955   2.369   0.448   4.636  0.4322  0.2389 -0.5560
  369MOL    H6044956   2.318   0.278   4.655 -1.3929  0.5258  0.3278
  369MOL    H6144957   2.384   0.291   4.411  0.1414  0.1256 -1.5107
  369MOL    C6244958   2.314   0.479   4.368  0.0696  0.2018  0.4472
  369MOL    C6344959   2.447   0.552   4.391  0.0287 -0.7487  0.3476
  369MOL    F6444960   2.536   0.468   4.343  0.1442 -0.2699  0.3842
  369MOL    H6544961   2.312   0.460   4.260 -2.4142  2.0031  0.1185
  369MOL    H6644962   2.226   0.542   4.384  0.9664  1.8716 -1.0801
  369MOL    H6744963   2.481   0.577   4.492 -2.1070  2.4628  0.3463
  369MOL    C6844964   2.447   0.684   4.313  0.1215  0.3627 -0.3656
  369MOL    C6944965   2.578   0.759   4.296 -0.4756 -0.4876  0.0809
  369MOL    F7044966   2.661   0.689   4.220 -0.1065 -0.0041 -0.0745
  369MOL    H7144967   2.405   0.661   4.215 -0.2788 -0.2426 -0.0586
  369MOL    H7244968   2.375   0.748   4.364 -1.2926 -1.3571 -0.1609
  369MOL    H7344969   2.631   0.780   4.389 -0.0208  0.3499 -0.3528
  369MOL    C7444970   2.556   0.896   4.217 -0.3303 -0.4637  0.0295
  369MOL    C7544971   2.531   0.888   4.065  0.5189  0.7512 -0.7089
  369MOL    F7644972   2.403   0.852   4.053 -0.6495 -0.6015  0.0177
  369MOL    H7744973   2.476   0.949   4.268 -0.5215 -0.7757  0.0539
  369MOL    H7844974   2.650   0.946   4.241 -0.8814  0.6307 -0.1016
  369MOL    H7944975   2.601   0.815   4.025 -0.0153 -0.6743  0.8939
  369MOL    C8044976   2.533   1.027   4.001  0.2246  0.5853 -0.4241
  369MOL    C8144977   2.497   1.020   3.849  0.1201  0.4179 -0.8408
  369MOL    F8244978   2.465   1.138   3.796  0.0992 -0.4649 -0.3318
  369MOL    H8344979   2.458   1.074   4.065 -1.6671 -2.5996 -0.1509
  369MOL    H8444980   2.624   1.077   4.031 -1.5785  2.8326  1.4848
  369MOL    H8544981   2.404   0.964   3.836 -0.3159  1.1093 -0.7968
  369MOL    C8644982   2.616   0.967   3.766 -0.0257  0.5371  0.0025
  369MOL    C8744983   2.575   0.927   3.626  0.2879 -0.3083  0.0990
  369MOL    F8844984   2.548   1.043   3.570 -0.1787 -0.3239  0.6575
  369MOL    H8944985   2.691   1.046   3.762 -0.1795  0.5685 -3.2324
  369MOL    H9044986   2.654   0.883   3.824 -1.5506  1.1333  1.9139
  369MOL    H9144987   2.476   0.879   3.623  0.9906 -1.7062 -1.9945
  369MOL    C9244988   2.677   0.848   3.549  0.1742  0.8067 -0.1882
  369MOL    C9344989   2.647   0.825   3.402  0.1682 -0.3245  0.6056
  369MOL    F9444990   2.638   0.942   3.332  0.7256  0.1388 -0.0748
  369MOL    H9544991   2.771   0.900   3.566  0.6451 -0.1805  0.3085
  369MOL    H9644992   2.699   0.750   3.591 -1.9498 -0.2476 -1.4246
  369MOL    H9744993   2.550   0.775   3.407  0.2209 -0.4116  0.7722
  369MOL    C9844994   2.751   0.737   3.338  0.2734 -0.7953  0.0870
  369MOL    C9944995   2.718   0.713   3.184 -0.2882  0.0611 -0.2766
  369MOL   F10044996   2.747   0.819   3.108 -0.2685 -0.4678  0.4075
  369MOL   H10144997   2.853   0.772   3.353 -1.5147  4.2235  1.7451
  369MOL   H10244998   2.761   0.642   3.390  0.5886 -0.8355 -0.0490
  369MOL   H10344999   2.613   0.693   3.167 -0.5154  0.1067  1.0108
  369MOL   C10445000   2.811   0.603   3.130 -0.5068  0.7010  0.4138
  369MOL   C10545001   2.764   0.458   3.163  0.1000 -0.4814  0.0459
  369MOL   F10645002   2.629   0.457   3.146 -0.2739 -0.3149 -0.2163
  369MOL   H10745003   2.820   0.600   3.021  3.6778 -1.8638  0.7491
  369MOL   H10845004   2.914   0.620   3.161  0.4311 -1.1410 -1.4995
  369MOL   H10945005   2.752   0.426   3.267 -1.2583  0.8389  0.3066
  369MOL   C11045006   2.828   0.346   3.075 -0.0888  0.0558 -0.3948
  369MOL   C11145007   2.979   0.335   3.083 -0.1570  0.8048 -0.2980
  369MOL   F11245008   2.997   0.301   3.209  0.1183 -0.1722  0.3002
  369MOL   H11345009   2.775   0.253   3.098 -0.9054  1.0043  1.7010
  369MOL   H11445010   2.806   0.384   2.976  2.1044  0.0839 -0.8765
  369MOL   H11545011   3.007   0.437   3.056 -0.7023  1.4529  1.4844
  369MOL   C11645012   3.034   0.237   2.980 -0.1876 -0.1533  0.4417
  369MOL   C11745013   3.181   0.260   2.951  0.0181  0.0181 -0.3189
  369MOL   F11845014   3.236   0.153   2.897  0.5769 -0.0461 -0.6057
  369MOL   H11945015   3.012   0.136   3.016  0.4536  0.0599  1.4409
  369MOL   H12045016   2.976   0.246   2.888  1.4072  1.5107 -0.4391
  369MOL   H12145017   3.240   0.291   3.038 -0.8152  2.2578 -0.4988
  369MOL   H12245018   3.187   0.353   2.895 -0.8688  0.3490  0.1128
  370MOL     C145019   3.069   6.287   6.761 -0.8547 -0.5386 -0.0372
  370MOL     C245020   3.147   6.421   6.739 -0.1772 -0.1329  0.2102
  370MOL     F345021   3.215   6.460   6.841  0.3725  0.1052  0.1523
  370MOL     H445022   3.137   6.202   6.761  0.9149  0.8558 -0.1762
  370MOL     H545023   3.003   6.270   6.676 -0.8352  0.9876 -0.3762
  370MOL     H645024   3.073   6.498   6.721  0.8201  0.7668 -0.0546
  370MOL     H745025   2.999   6.287   6.845 -0.8534 -0.6105 -0.0363
  370MOL     C845026   3.248   6.428   6.623 -0.4874  0.0751 -1.5495
  370MOL     C945027   3.193   6.397   6.485  1.2752  0.7976  0.0738
  370MOL    F1045028   3.101   6.477   6.447  0.0292 -0.5420  0.1289
  370MOL    H1145029   3.293   6.528   6.621 -1.1490  0.3610 -2.6633
  370MOL    H1245030   3.326   6.355   6.644 -0.8372  0.1804  0.2472
  370MOL    H1345031   3.137   6.304   6.482 -2.2899  2.9268 -1.6798
  370MOL    C1445032   3.303   6.372   6.390 -0.5625  0.3353 -0.3041
  370MOL    C1545033   3.259   6.312   6.254  0.2305  0.4051 -0.0230
  370MOL    F1645034   3.251   6.401   6.157  0.0679 -0.4573  0.4813
  370MOL    H1745035   3.361   6.462   6.374  0.6075 -0.4702 -0.7124
  370MOL    H1845036   3.367   6.294   6.431 -0.6454  0.0067 -0.7780
  370MOL    H1945037   3.158   6.270   6.264  1.6389 -2.6462  2.3178
  370MOL    C2045038   3.351   6.200   6.204 -0.2834 -0.8012 -0.4801
  370MOL    C2145039   3.334   6.144   6.063  0.4029 -0.4027 -0.8513
  370MOL    F2245040   3.438   6.069   6.041 -0.3487  0.0321 -0.0056
  370MOL    H2345041   3.454   6.230   6.224 -1.2268  0.2814  3.2398
  370MOL    H2445042   3.347   6.117   6.275  2.3731 -2.1810 -1.8787
  370MOL    H2545043   3.332   6.233   6.000 -0.1043  1.5189  1.8232
  370MOL    C2645044   3.207   6.061   6.038 -0.4320 -0.2264  0.4152
  370MOL    C2745045   3.174   6.044   5.891  0.2576 -0.7500 -0.7755
  370MOL    F2845046   3.275   6.008   5.816  0.1706 -0.0102  0.4942
  370MOL    H2945047   3.218   5.957   6.070 -1.7345 -0.3761  0.4072
  370MOL    H3045048   3.114   6.102   6.076 -0.0894 -0.4579  1.5220
  370MOL    H3145049   3.145   6.147   5.871  0.8884 -0.2497  0.8011
  370MOL    C3245050   3.045   5.958   5.866 -0.3596 -0.4995  0.3767
  370MOL    C3345051   3.075   5.808   5.850 -0.3670  0.6188  0.4447
  370MOL    F3445052   3.119   5.760   5.967 -0.7465 -0.0272  0.0267
  370MOL    H3545053   2.987   5.975   5.957  0.8002  1.0480  0.8586
  370MOL    H3645054   2.980   5.992   5.785  0.6298 -0.6787 -0.4985
  370MOL    H3745055   3.160   5.788   5.784 -2.1341  1.1821 -2.0467
  370MOL    C3845056   2.955   5.735   5.788  0.1473  0.1549  0.0723
  370MOL    C3945057   2.972   5.583   5.773 -0.4041 -0.7764 -0.6022
  370MOL    F4045058   2.857   5.527   5.729  0.0200  0.4847 -0.1096
  370MOL    H4145059   2.865   5.767   5.839  0.2699 -0.5201  0.7151
  370MOL    H4245060   2.941   5.774   5.687 -0.1174  0.6039  0.2792
  370MOL    H4345061   2.986   5.536   5.870  0.1954 -2.8989 -1.6854
  370MOL    C4445062   3.085   5.535   5.673 -0.6394 -0.1933  0.5802
  370MOL    C4545063   3.115   5.379   5.683  0.3468 -0.5326 -0.4046
  370MOL    F4645064   3.207   5.363   5.590 -0.1508 -0.3839 -0.4423
  370MOL    H4745065   3.045   5.546   5.572  1.3575  0.2287 -0.1946
  370MOL    H4845066   3.178   5.590   5.688 -0.2879 -0.5409 -0.2910
  370MOL    H4945067   3.030   5.320   5.650 -1.2665  1.4802  0.0879
  370MOL    C5045068   3.158   5.324   5.821  0.0140 -0.1173 -0.4134
  370MOL    C5145069   3.214   5.181   5.830 -0.3850  0.5792  0.1799
  370MOL    F5245070   3.250   5.166   5.958  0.2902 -0.1791  0.2846
  370MOL    H5345071   3.237   5.384   5.864  0.7284 -1.8918  0.7753
  370MOL    H5445072   3.070   5.334   5.885 -0.9098  0.9109 -1.7991
  370MOL    H5545073   3.304   5.176   5.768 -1.2816  0.4680 -1.1209
  370MOL    C5645074   3.113   5.065   5.809 -0.6649  0.1375 -0.2640
  370MOL    C5745075   3.182   4.925   5.808 -0.0352 -0.6305  0.4949
  370MOL    F5845076   3.227   4.900   5.927  0.0050 -0.6501  0.4375
  370MOL    H5945077   3.033   5.075   5.882 -0.4692  1.2749 -0.2087
  370MOL    H6045078   3.067   5.091   5.714  1.6873 -0.5354 -1.6177
  370MOL    H6145079   3.264   4.923   5.737  2.1670 -0.4641  2.9903
  370MOL    C6245080   3.072   4.826   5.773  0.6178 -0.2311 -0.0795
  370MOL    C6345081   3.138   4.686   5.754 -0.0476  0.7059  0.3330
  370MOL    F6445082   3.214   4.654   5.856 -0.0193  0.4774 -0.5320
  370MOL    H6545083   3.003   4.823   5.857  1.5934  0.5798  0.7625
  370MOL    H6645084   3.006   4.847   5.689 -1.3256  0.3480  1.5635
  370MOL    H6745085   3.212   4.700   5.675 -0.1108  2.6734  0.5895
  370MOL    C6845086   3.033   4.576   5.721  0.8821  0.1061  0.1264
  370MOL    C6945087   3.095   4.442   5.663  0.4607 -0.3258 -0.6670
  370MOL    F7045088   3.174   4.478   5.561  0.1029 -0.2480  0.1288
  370MOL    H7145089   2.975   4.565   5.813  0.5617  0.3050 -0.0508
  370MOL    H7245090   2.967   4.609   5.641  2.8489 -1.2487 -2.1138
  370MOL    H7345091   3.007   4.388   5.628 -1.9208  0.4887  3.7155
  370MOL    C7445092   3.173   4.359   5.770  0.0353  0.7430  0.0303
  370MOL    C7545093   3.102   4.309   5.894  0.1557  0.6035  0.1783
  370MOL    F7645094   2.992   4.246   5.851  0.4697  0.0548  0.2125
  370MOL    H7745095   3.207   4.270   5.717 -1.0213  1.6449 -2.2395
  370MOL    H7845096   3.262   4.416   5.796  0.9006 -0.7445  0.3561
  370MOL    H7945097   3.072   4.391   5.960 -1.6496 -0.8277  1.1847
  370MOL    C8045098   3.186   4.216   5.980 -0.1277  0.9752 -0.1386
  370MOL    C8145099   3.305   4.270   6.059  0.4004 -0.1159  0.1999
  370MOL    F8245100   3.276   4.376   6.139  0.0988  0.5006 -0.3646
  370MOL    H8345101   3.124   4.163   6.052  0.6021 -0.9750 -0.9054
  370MOL    H8445102   3.225   4.134   5.920 -0.2496  1.4645 -0.8849
  370MOL    H8545103   3.360   4.325   5.983 -3.5328  0.3247 -2.4591
  370MOL    C8645104   3.381   4.167   6.140  0.1120  0.1011 -0.5448
  370MOL    C8745105   3.486   4.081   6.064 -1.0724  0.2750  0.1169
  370MOL    F8845106   3.578   4.164   6.022 -0.3912 -0.0739 -0.1717
  370MOL    H8945107   3.444   4.230   6.203  3.0650 -3.0948 -0.1414
  370MOL    H9045108   3.316   4.098   6.194  1.2066 -0.0075  0.6743
  370MOL    H9145109   3.438   4.041   5.975 -1.5144  2.5560 -0.6887
  370MOL    C9245110   3.559   3.970   6.159  0.5578  0.3112  0.3865
  370MOL    C9345111   3.654   3.874   6.089  0.4136 -0.3156  0.6545
  370MOL    F9445112   3.574   3.794   6.016 -0.3356  0.1418  0.1149
  370MOL    H9545113   3.607   4.019   6.244 -1.1260  0.5130  1.2301
  370MOL    H9645114   3.494   3.902   6.215  1.5612  0.6305  1.9786
  370MOL    H9745115   3.688   3.799   6.160  0.0128 -1.0305  0.0899
  370MOL    C9845116   3.766   3.930   6.015 -0.1989  0.3038 -0.0387
  370MOL    C9945117   3.875   3.992   6.104  0.9502 -0.4574  0.4023
  370MOL   F10045118   3.938   3.895   6.173  0.0617  0.1810 -0.6203
  370MOL   H10145119   3.815   3.855   5.952 -0.3146 -0.3171  0.6085
  370MOL   H10245120   3.738   4.002   5.938 -2.1539  2.7974  2.9293
  370MOL   H10345121   3.829   4.047   6.186 -1.6463 -0.6409 -0.8740
  370MOL   C10445122   3.974   4.085   6.029 -0.3503 -0.4920 -0.1145
  370MOL   C10545123   3.987   4.225   6.094  0.5319 -0.1306 -0.3135
  370MOL   F10645124   4.037   4.194   6.214 -0.3410 -0.2961 -0.2832
  370MOL   H10745125   4.063   4.036   5.990  0.0331 -0.1206  0.2970
  370MOL   H10845126   3.928   4.098   5.931  1.0891 -1.7831 -0.9734
  370MOL   H10945127   3.887   4.267   6.110  1.4273  1.7479  0.4718
  370MOL   C11045128   4.081   4.324   6.029 -0.2926 -1.2048  0.6553
  370MOL   C11145129   4.081   4.462   6.094  0.2736 -0.2860  0.5014
  370MOL   F11245130   4.179   4.531   6.039  0.1779 -0.1210 -0.4046
  370MOL   H11345131   4.182   4.283   6.032 -0.0844 -0.7027  0.4072
  370MOL   H11445132   4.067   4.339   5.922  1.5454  1.6647  0.7781
  370MOL   H11545133   4.111   4.439   6.196  1.6566 -1.7968 -0.2357
  370MOL   C11645134   3.951   4.544   6.109  0.3983  0.0302 -0.0658
  370MOL   C11745135   3.956   4.642   6.226 -0.1844 -0.0969  0.7586
  370MOL   F11845136   3.950   4.570   6.337 -0.4561 -0.7708 -0.6945
  370MOL   H11945137   3.924   4.590   6.014 -1.4738  1.5540  1.1365
  370MOL   H12045138   3.867   4.479   6.136  0.5070  0.1708  0.6162
  370MOL   H12145139   3.860   4.694   6.224 -0.1547 -0.0325  0.9403
  370MOL   H12245140   4.044   4.704   6.240 -1.0526  1.4954 -0.6855
  371MOL     C145141   1.789   5.543   3.205  0.2155  0.6974 -0.0089
  371MOL     C245142   1.862   5.484   3.326  0.3897 -0.4957  0.3079
  371MOL     F345143   1.986   5.451   3.284 -0.0880 -0.0044 -0.1007
  371MOL     H445144   1.784   5.469   3.126  0.1626  0.6268  0.0620
  371MOL     H545145   1.838   5.634   3.170 -1.6586  1.3797 -0.9616
  371MOL     H645146   1.804   5.395   3.351 -1.2004 -0.1564 -2.0074
  371MOL     H745147   1.687   5.570   3.234 -0.1329 -0.3149 -0.2684
  371MOL     C845148   1.890   5.582   3.436 -0.1849  0.3330 -0.7110
  371MOL     C945149   1.967   5.525   3.560  0.6519 -0.1599 -0.6007
  371MOL    F1045150   1.948   5.609   3.666  0.2613 -0.1064  0.0346
  371MOL    H1145151   1.933   5.677   3.405  0.7728  0.6550  1.5098
  371MOL    H1245152   1.795   5.619   3.473 -0.2224 -0.5425  0.1103
  371MOL    H1345153   2.071   5.545   3.539  0.3379  2.0576 -0.1268
  371MOL    C1445154   1.945   5.378   3.595 -0.2429  0.4354 -0.4462
  371MOL    C1545155   1.996   5.334   3.740 -0.5219  0.2178  0.7764
  371MOL    F1645156   1.948   5.216   3.765  0.0070  0.0187 -0.3852
  371MOL    H1745157   1.839   5.362   3.578 -0.2232 -2.5092  1.8348
  371MOL    H1845158   1.982   5.306   3.522 -0.9186  1.3894 -1.7608
  371MOL    H1945159   1.967   5.395   3.825 -1.6130  1.4271 -0.4302
  371MOL    C2045160   2.143   5.319   3.746  0.6305 -0.3998 -0.4932
  371MOL    C2145161   2.198   5.225   3.630 -0.6846  0.3552  0.5790
  371MOL    F2245162   2.215   5.288   3.507  0.0817 -0.2823 -0.2378
  371MOL    H2345163   2.199   5.411   3.733  0.3116 -0.2724 -1.0111
  371MOL    H2445164   2.161   5.271   3.842 -0.4612  1.5449  0.7208
  371MOL    H2545165   2.128   5.141   3.621  2.9922 -2.8158  0.3869
  371MOL    C2645166   2.331   5.154   3.660 -0.5206  0.0665  0.0133
  371MOL    C2745167   2.382   5.050   3.553  0.3704 -0.6302  0.0986
  371MOL    F2845168   2.499   5.017   3.612  0.0033  0.7863 -0.1313
  371MOL    H2945169   2.401   5.237   3.674  0.6671 -1.1483  1.5529
  371MOL    H3045170   2.340   5.110   3.759  1.5205 -1.1926 -0.6927
  371MOL    H3145171   2.407   5.100   3.459 -0.9166  2.8452  1.5130
  371MOL    C3245172   2.292   4.927   3.543 -0.0222 -1.0365  0.0818
  371MOL    C3345173   2.336   4.818   3.445 -0.1280  0.7236  0.0709
  371MOL    F3445174   2.272   4.703   3.474  0.0035  0.1735  0.5772
  371MOL    H3545175   2.272   4.884   3.641  1.7826 -2.6575 -0.2379
  371MOL    H3645176   2.190   4.960   3.524  0.1361  0.2120  1.4044
  371MOL    H3745177   2.443   4.809   3.461  0.4977  5.2662 -0.9224
  371MOL    C3845178   2.317   4.866   3.298  0.3495 -0.1553 -0.0167
  371MOL    C3945179   2.405   4.804   3.181  0.4720  0.7547 -0.2082
  371MOL    F4045180   2.533   4.838   3.197  0.3785  0.0764 -0.2048
  371MOL    H4145181   2.212   4.854   3.272 -0.3408  0.9343  2.1667
  371MOL    H4245182   2.340   4.972   3.287 -1.1637  0.1071 -0.8189
  371MOL    H4345183   2.365   4.843   3.088  0.1168 -0.9630 -0.7969
  371MOL    C4445184   2.408   4.651   3.167 -0.2522  0.8178 -0.7209
  371MOL    C4545185   2.275   4.584   3.137  0.4088  0.0646  0.7044
  371MOL    F4645186   2.250   4.606   3.010 -0.5510 -0.0607  0.5309
  371MOL    H4745187   2.473   4.629   3.082  0.1913  1.0027 -0.4354
  371MOL    H4845188   2.453   4.598   3.251 -2.5912 -1.2410 -0.7360
  371MOL    H4945189   2.192   4.630   3.189  1.3644  1.4592  1.0160
  371MOL    C5045190   2.283   4.427   3.170 -0.7768 -0.5361  0.4529
  371MOL    C5145191   2.270   4.385   3.321 -0.2299 -0.3581  0.2506
  371MOL    F5245192   2.149   4.424   3.360 -0.2606  0.3359 -0.3227
  371MOL    H5345193   2.199   4.383   3.116 -2.4759  2.8142  0.2174
  371MOL    H5445194   2.369   4.378   3.126  0.2227 -1.3711  3.2178
  371MOL    H5545195   2.350   4.440   3.370  2.0441 -2.1748 -1.2519
  371MOL    C5645196   2.297   4.232   3.334  0.2627  0.3912 -0.5592
  371MOL    C5745197   2.305   4.190   3.478 -0.2424  0.3191  0.4493
  371MOL    F5845198   2.413   4.247   3.533 -0.2740 -0.3383  0.2178
  371MOL    H5945199   2.210   4.183   3.291 -0.7292  1.6025  0.0314
  371MOL    H6045200   2.389   4.203   3.283 -0.1240  0.7667 -1.4892
  371MOL    H6145201   2.320   4.083   3.491  1.3018  0.6569  1.7250
  371MOL    C6245202   2.172   4.216   3.569  0.4976 -0.1072 -0.5342
  371MOL    C6345203   2.167   4.129   3.693  0.5434  0.1348 -0.4403
  371MOL    F6445204   2.063   4.171   3.764 -0.5410  0.2785 -0.2338
  371MOL    H6545205   2.185   4.319   3.603  1.4892 -0.4993  0.3132
  371MOL    H6645206   2.092   4.205   3.496 -1.9966  1.1816  1.9227
  371MOL    H6745207   2.260   4.161   3.742  0.8123  1.4402 -1.7791
  371MOL    C6845208   2.148   3.976   3.676  1.0814 -0.0749 -0.3052
  371MOL    C6945209   2.094   3.916   3.813 -0.0996  0.2867  0.8030
  371MOL    F7045210   2.064   3.794   3.773  0.2203 -0.4314 -0.0059
  371MOL    H7145211   2.076   3.963   3.595  0.0010  2.3397  0.2300
  371MOL    H7245212   2.243   3.928   3.651  0.1380 -1.9469 -0.3634
  371MOL    H7345213   2.015   3.979   3.854  0.1882  2.5744 -1.9998
  371MOL    C7445214   2.189   3.893   3.926  0.0792  0.4957 -0.1154
  371MOL    C7545215   2.130   3.828   4.052  0.1246  0.6498  0.1665
  371MOL    F7645216   2.222   3.829   4.142 -0.2260 -0.3856  0.3076
  371MOL    H7745217   2.274   3.831   3.897  0.4978  1.2925 -0.6217
  371MOL    H7845218   2.245   3.986   3.941  2.5372 -1.1762  1.4705
  371MOL    H7945219   2.104   3.726   4.025  0.2359  0.3111  1.3328
  371MOL    C8045220   2.013   3.894   4.123 -0.3877  0.3081  0.5240
  371MOL    C8145221   1.979   3.829   4.259 -0.0925 -0.5241  0.0877
  371MOL    F8245222   1.896   3.912   4.315  0.1382  0.1555 -0.1820
  371MOL    H8345223   2.031   3.998   4.146  1.0167  0.2581 -0.2891
  371MOL    H8445224   1.930   3.891   4.052  1.4450  2.0839 -1.7739
  371MOL    H8545225   2.067   3.834   4.324 -1.2124 -1.1206  1.6736
  371MOL    C8645226   1.922   3.685   4.241  0.3988  0.0426  0.3995
  371MOL    C8745227   1.910   3.605   4.376 -0.0542  0.1332  0.2300
  371MOL    F8845228   1.829   3.673   4.450 -0.1402  0.4944  0.4320
  371MOL    H8945229   1.827   3.686   4.188 -0.1978  0.3560  1.4522
  371MOL    H9045230   1.984   3.616   4.185  0.0989  0.0032  0.1141
  371MOL    H9145231   2.009   3.618   4.421  0.0583  0.2603 -0.0533
  371MOL    C9245232   1.856   3.464   4.364 -0.8235 -0.8121 -0.3862
  371MOL    C9345233   1.938   3.354   4.300  0.2828  0.0607  0.0052
  371MOL    F9445234   1.964   3.378   4.170  0.3275  0.7624 -0.3040
  371MOL    H9545235   1.827   3.434   4.465  0.0951  2.6035  0.9440
  371MOL    H9645236   1.762   3.463   4.308 -0.8830  0.0424 -0.3064
  371MOL    H9745237   1.879   3.262   4.306 -2.3360  1.7551  1.3901
  371MOL    C9845238   2.070   3.317   4.372  0.3837 -0.2513  0.0866
  371MOL    C9945239   2.151   3.191   4.325 -0.5954 -0.2910 -1.0119
  371MOL   F10045240   2.073   3.088   4.368 -0.7088  0.0592 -0.5033
  371MOL   H10145241   2.130   3.407   4.357 -1.3199  0.8198 -0.4912
  371MOL   H10245242   2.055   3.305   4.479  1.6637  1.0518  0.4220
  371MOL   H10345243   2.247   3.190   4.378 -0.6229  3.8137 -0.7766
  371MOL   C10445244   2.172   3.168   4.173 -0.6602 -0.3723  1.3116
  371MOL   C10545245   2.253   3.036   4.147 -0.3493  0.4252 -0.0070
  371MOL   F10645246   2.202   2.929   4.215 -0.4801 -0.0637 -0.7091
  371MOL   H10745247   2.075   3.150   4.127 -0.7049  1.3121  0.7178
  371MOL   H10845248   2.229   3.244   4.120 -2.1666 -0.4007 -0.4207
  371MOL   H10945249   2.352   3.056   4.189  0.1977  0.5444 -1.3286
  371MOL   C11045250   2.267   3.004   3.999  0.1388  0.2136  0.1585
  371MOL   C11145251   2.349   2.878   3.974  0.5718  0.4492 -1.0294
  371MOL   F11245252   2.285   2.769   4.015 -0.0790  0.3056 -0.3753
  371MOL   H11345253   2.172   2.995   3.947  0.8665  1.5631 -1.4375
  371MOL   H11445254   2.316   3.088   3.951  0.4805  0.3005  0.6455
  371MOL   H11545255   2.438   2.876   4.036  0.5113  0.6002 -0.9385
  371MOL   C11645256   2.381   2.849   3.824  1.0761  0.0095 -0.4179
  371MOL   C11745257   2.438   2.708   3.813 -0.3684 -0.1995 -0.3426
  371MOL   F11845258   2.463   2.679   3.690  0.0882 -0.3786  0.0748
  371MOL   H11945259   2.283   2.852   3.776  0.6525 -1.1861  0.3490
  371MOL   H12045260   2.447   2.929   3.790  0.6329 -0.0376 -1.3960
  371MOL   H12145261   2.366   2.631   3.842 -0.0412 -0.8224 -1.1694
  371MOL   H12245262   2.531   2.700   3.870 -1.1526  2.3800  1.3678
  372MOL     C145263   6.153   6.557   7.979 -0.4186  0.3027  0.3701
  372MOL     C245264   6.024   6.602   0.037 -0.0244 -0.2628  0.4110
  372MOL     F345265   6.018   6.717   0.091  0.1371  0.0779 -0.0296
  372MOL     H445266   6.143   6.462   7.926 -0.1987 -0.4179  1.6002
  372MOL     H545267   6.243   6.556   0.036  2.4688 -1.8983 -3.7073
  372MOL     H645268   5.999   6.524   0.109 -0.4537 -1.3719 -0.9089
  372MOL     H745269   6.181   6.622   7.896 -1.7649  0.8057  0.2906
  372MOL     C845270   5.914   6.606   7.929  0.4229  0.9432  0.3162
  372MOL     C945271   5.778   6.653   7.977 -0.0564  0.1646 -0.1352
  372MOL    F1045272   5.707   6.681   7.871  0.0369 -0.5141  0.1939
  372MOL    H1145273   5.952   6.661   7.843 -0.4296 -3.0460 -2.7970
  372MOL    H1245274   5.904   6.501   7.900  4.0378  0.4677  0.5661
  372MOL    H1345275   5.800   6.747   0.024  1.2494 -0.1217 -0.1591
  372MOL    C1445276   5.698   6.560   0.066  0.9475  0.2219 -0.4297
  372MOL    C1545277   5.652   6.431   7.999 -1.6910 -0.4695 -0.1055
  372MOL    F1645278   5.758   6.351   7.996 -0.1357 -0.2959  0.3397
  372MOL    H1745279   5.753   6.543   0.158 -1.2658 -1.2434  0.6497
  372MOL    H1845280   5.603   6.602   0.101  0.7874  0.3558 -1.0133
  372MOL    H1945281   5.626   6.455   7.895  0.1668  0.1752 -0.4443
  372MOL    C2045282   5.543   6.362   0.076  0.2667 -0.5506  0.2916
  372MOL    C2145283   5.484   6.233   0.024 -0.1315 -0.2670 -0.5182
  372MOL    F2245284   5.408   6.182   0.121 -0.1021  0.0857  0.8932
  372MOL    H2345285   5.596   6.323   0.163 -1.2220 -0.2002  1.3768
  372MOL    H2445286   5.467   6.433   0.109  1.5776  0.3498  1.3976
  372MOL    H2545287   5.568   6.167   0.005  0.3587  0.5586 -1.2886
  372MOL    C2645288   5.407   6.239   7.891 -0.7312  0.4263 -1.0360
  372MOL    C2745289   5.276   6.322   7.904  0.8416 -0.6259 -0.3512
  372MOL    F2845290   5.305   6.448   7.912 -0.5698 -0.0792 -0.2818
  372MOL    H2945291   5.471   6.284   7.816 -1.4126  1.8219 -0.8010
  372MOL    H3045292   5.385   6.140   7.851  0.0617  0.2801 -1.1049
  372MOL    H3145293   5.209   6.288   7.983  0.8006  0.7932  0.2503
  372MOL    C3245294   5.179   6.296   7.790 -0.3930  0.2967 -0.5697
  372MOL    C3345295   5.112   6.162   7.779 -0.0497 -0.2128  0.0826
  372MOL    F3445296   5.048   6.151   7.891  0.5561  0.2141 -0.1994
  372MOL    H3545297   5.099   6.370   7.785  0.4346  1.3085  1.0189
  372MOL    H3645298   5.245   6.318   7.706 -1.4010  1.2750 -1.1192
  372MOL    H3745299   5.179   6.076   7.791  1.0115  0.6961  0.6992
  372MOL    C3845300   5.011   6.153   7.667 -1.3005  0.3162  0.0540
  372MOL    C3945301   5.053   6.148   7.516  0.3679 -0.6093  0.0289
  372MOL    F4045302   5.151   6.054   7.509 -0.0633 -0.2549 -0.2859
  372MOL    H4145303   4.954   6.061   7.683 -0.2337 -0.2847  0.4969
  372MOL    H4245304   4.928   6.223   7.678 -0.9520  0.6525  0.5845
  372MOL    H4345305   5.098   6.244   7.488  2.2393 -1.8262 -1.2426
  372MOL    C4445306   4.932   6.114   7.432  1.0240  0.2574 -0.1887
  372MOL    C4545307   4.948   6.125   7.281 -0.3810 -0.1467 -0.0852
  372MOL    F4645308   5.007   6.246   7.267  0.2889  0.2028 -0.0379
  372MOL    H4745309   4.896   6.018   7.468  0.7193  0.6605  0.6176
  372MOL    H4845310   4.857   6.191   7.452 -0.6952 -1.8130  1.5705
  372MOL    H4945311   4.850   6.127   7.233  0.2117  1.4400 -1.2615
  372MOL    C5045312   5.031   6.009   7.224  0.0156 -0.3070  0.6687
  372MOL    C5145313   5.027   6.002   7.074  0.6960 -0.2418  0.1659
  372MOL    F5245314   5.127   5.930   7.035  0.7090  0.6554  0.0310
  372MOL    H5345315   5.133   6.022   7.260 -0.4918 -0.0062  2.0345
  372MOL    H5445316   5.009   5.911   7.268 -0.5630 -0.6027 -0.2604
  372MOL    H5545317   5.049   6.101   7.036 -0.4515 -0.5429 -1.3207
  372MOL    C5645318   4.893   5.957   7.010  0.5964  0.1751  0.3832
  372MOL    C5745319   4.828   5.818   7.059 -1.1001 -0.0972 -0.2130
  372MOL    F5845320   4.781   5.835   7.185 -0.2040  0.1190  0.3236
  372MOL    H5945321   4.820   6.037   7.026 -0.5424 -0.4450 -1.4779
  372MOL    H6045322   4.911   5.955   6.903  0.5957  0.9176  0.3691
  372MOL    H6145323   4.898   5.735   7.060  0.8496  1.4319 -2.7347
  372MOL    C6245324   4.716   5.778   6.962  0.3822  0.4554 -0.0042
  372MOL    C6345325   4.584   5.858   6.964  0.3857 -0.0824  0.7398
  372MOL    F6445326   4.608   5.988   6.964 -0.0202 -0.3892  0.3119
  372MOL    H6545327   4.761   5.778   6.862  1.1401 -0.7724  0.3262
  372MOL    H6645328   4.688   5.675   6.978 -2.4453  1.0282 -0.9964
  372MOL    H6745329   4.527   5.845   7.055 -3.1220  0.2682 -1.3227
  372MOL    C6845330   4.482   5.833   6.856  0.0342 -0.3544  0.2486
  372MOL    C6945331   4.462   5.686   6.817 -0.2229  0.9149  0.0331
  372MOL    F7045332   4.462   5.625   6.937  0.0762 -0.3510 -0.0598
  372MOL    H7145333   4.382   5.865   6.884  0.1200 -1.7045  2.2404
  372MOL    H7245334   4.510   5.877   6.761 -0.0718 -1.0726 -0.1218
  372MOL    H7345335   4.551   5.652   6.764  0.2696  1.9078  0.2119
  372MOL    C7445336   4.336   5.665   6.733  0.1553  0.0810  0.3285
  372MOL    C7545337   4.338   5.543   6.649 -0.3471  0.9849  0.3301
  372MOL    F7645338   4.455   5.547   6.579  0.0319 -0.4127  0.1095
  372MOL    H7745339   4.255   5.677   6.805 -0.4450 -0.8881 -0.1825
  372MOL    H7845340   4.329   5.748   6.664 -2.3468 -1.6311 -1.5551
  372MOL    H7945341   4.254   5.540   6.579  0.1178 -2.5001 -0.1380
  372MOL    C8045342   4.334   5.412   6.730  0.6275 -0.5874  0.7260
  372MOL    C8145343   4.197   5.380   6.793 -0.1758  0.1048  0.2170
  372MOL    F8245344   4.108   5.373   6.694 -0.2814 -0.7241 -0.3500
  372MOL    H8345345   4.357   5.334   6.657  0.9789  0.7272 -0.5931
  372MOL    H8445346   4.413   5.411   6.805  0.2800  0.0762  1.1141
  372MOL    H8545347   4.153   5.458   6.855 -0.1338 -1.3302  2.0917
  372MOL    C8645348   4.187   5.255   6.883  0.1739  0.4670  0.2001
  372MOL    C8745349   4.266   5.262   7.020  0.5169  0.1490 -0.2689
  372MOL    F8845350   4.241   5.380   7.081 -0.4504 -0.2341 -0.1513
  372MOL    H8945351   4.080   5.247   6.904  0.1388  0.3353 -0.0298
  372MOL    H9045352   4.210   5.172   6.816  2.2432  2.8318 -2.1153
  372MOL    H9145353   4.367   5.257   6.980  0.5691  0.1941 -0.1442
  372MOL    C9245354   4.238   5.142   7.108 -0.5468  0.7921 -0.9946
  372MOL    C9345355   4.364   5.078   7.172  0.9058 -0.0553 -0.0772
  372MOL    F9445356   4.428   5.165   7.254 -0.2519  0.3211  0.1222
  372MOL    H9545357   4.162   5.165   7.182  0.0839  0.3061 -0.1865
  372MOL    H9645358   4.183   5.064   7.055 -0.2428  0.2072 -0.4599
  372MOL    H9745359   4.440   5.053   7.098  1.4070 -0.1805  0.4799
  372MOL    C9845360   4.334   4.947   7.246 -0.0220  0.3462  0.1394
  372MOL    C9945361   4.276   4.837   7.151 -0.5051  0.2549 -0.7127
  372MOL   F10045362   4.357   4.813   7.038  0.1229 -0.5035  0.4681
  372MOL   H10145363   4.424   4.909   7.295 -1.1326 -2.1320  0.2992
  372MOL   H10245364   4.266   4.983   7.324 -2.6831 -0.3472 -1.7941
  372MOL   H10345365   4.179   4.869   7.112 -0.9382  0.1542  0.2766
  372MOL   C10445366   4.244   4.694   7.201  0.3177  0.1936 -0.1648
  372MOL   C10545367   4.184   4.606   7.089 -0.2326  0.0629  0.8878
  372MOL   F10645368   4.182   4.491   7.147  0.7328  0.5806 -0.8143
  372MOL   H10745369   4.328   4.650   7.256 -0.0380  0.3080  0.4766
  372MOL   H10845370   4.175   4.702   7.285  0.1788 -0.9277 -0.1619
  372MOL   H10945371   4.260   4.602   7.011  0.5378  2.2916  1.4778
  372MOL   C11045372   4.044   4.648   7.058  0.2231  0.5118  0.6299
  372MOL   C11145373   3.961   4.542   6.983  0.1444  0.5831  0.2864
  372MOL   F11245374   3.967   4.419   7.033  0.2119 -0.5067 -0.0752
  372MOL   H11345375   3.985   4.679   7.144 -2.5365 -2.0185 -0.2818
  372MOL   H11445376   4.054   4.736   6.995 -1.9561  1.3722  1.4233
  372MOL   H11545377   4.009   4.539   6.885 -0.1022  2.7546  0.0697
  372MOL   C11645378   3.817   4.587   6.962  0.3379 -0.3197 -0.0368
  372MOL   C11745379   3.724   4.504   6.873  0.1369  0.0449 -0.1039
  372MOL   F11845380   3.741   4.537   6.745  0.0149 -0.2692 -0.5747
  372MOL   H11945381   3.763   4.600   7.056  0.6158  1.2006 -0.0680
  372MOL   H12045382   3.818   4.685   6.914  0.8577 -1.4349 -2.3568
  372MOL   H12145383   3.621   4.533   6.891  0.3499  1.8920 -1.7465
  372MOL   H12245384   3.738   4.396   6.885 -2.1768 -0.4977 -1.9369
  373MOL     C145385   4.917   6.822   3.251 -0.6968  0.6548  0.0612
  373MOL     C245386   4.961   6.700   3.165  0.5001  1.2631  0.8388
  373MOL     F345387   5.092   6.703   3.161  0.3302 -0.4505  0.4622
  373MOL     H445388   4.955   6.917   3.212 -0.8344  0.2747 -1.0104
  373MOL     H545389   4.961   6.830   3.350  1.1119 -0.3448 -0.6432
  373MOL     H645390   4.942   6.725   3.060  0.2488  0.2245  0.6370
  373MOL     H745391   4.809   6.834   3.262 -0.5492  1.2553  0.9387
  373MOL     C845392   4.907   6.553   3.203 -0.0518 -0.0236  0.8381
  373MOL     C945393   4.953   6.510   3.348 -0.0658 -0.0508  0.2545
  373MOL    F1045394   4.869   6.567   3.425 -0.3073 -0.4353  0.0561
  373MOL    H1145395   4.799   6.543   3.193 -0.4013  3.5593  0.0791
  373MOL    H1245396   4.959   6.488   3.133  1.9942  2.1971  0.1954
  373MOL    H1345397   5.055   6.545   3.370  0.7609 -2.8387  1.0770
  373MOL    C1445398   4.956   6.354   3.373  0.7089  0.0615  0.3603
  373MOL    C1545399   4.833   6.276   3.345  0.2178  0.9160 -0.5400
  373MOL    F1645400   4.866   6.141   3.355 -0.7941  0.5506 -0.3806
  373MOL    H1745401   5.034   6.311   3.311 -0.0223 -1.2481  0.3419
  373MOL    H1845402   4.980   6.351   3.480 -1.6427 -0.9113  0.8945
  373MOL    H1945403   4.805   6.290   3.241 -1.0142 -0.1180 -0.3547
  373MOL    C2045404   4.722   6.296   3.451 -0.3446 -0.3762  0.4908
  373MOL    C2145405   4.601   6.211   3.430  0.5616 -0.5957  0.3557
  373MOL    F2245406   4.635   6.092   3.472  0.0430  0.3996  0.5197
  373MOL    H2345407   4.754   6.280   3.554 -1.2152  1.7918  1.1168
  373MOL    H2445408   4.687   6.399   3.449 -1.7413 -0.8353  0.5667
  373MOL    H2545409   4.567   6.208   3.326  1.9052 -0.1209 -0.0998
  373MOL    C2645410   4.469   6.247   3.510 -0.1432 -0.1098  0.3030
  373MOL    C2745411   4.335   6.185   3.451  0.5227  0.2246 -0.4718
  373MOL    F2845412   4.340   6.054   3.438  0.2074  0.6072  0.6252
  373MOL    H2945413   4.487   6.214   3.612 -0.9068 -2.6301 -0.3334
  373MOL    H3045414   4.457   6.355   3.514 -1.6149 -0.2643  0.1504
  373MOL    H3145415   4.309   6.222   3.352  1.1589 -2.4811 -1.7077
  373MOL    C3245416   4.219   6.215   3.553 -1.1688  0.5158  0.2309
  373MOL    C3345417   4.100   6.136   3.509  0.1895 -0.7519 -0.1014
  373MOL    F3445418   4.010   6.134   3.606 -0.0099 -0.3935 -0.1340
  373MOL    H3545419   4.242   6.180   3.654 -0.3507  0.3350 -0.0072
  373MOL    H3645420   4.205   6.322   3.567  1.8307  0.7896  1.7211
  373MOL    H3745421   4.119   6.031   3.487 -1.4691 -0.8852 -0.9808
  373MOL    C3845422   4.038   6.197   3.382 -0.5049  0.3079 -0.1399
  373MOL    C3945423   3.915   6.127   3.322 -0.0309 -0.2816  0.5221
  373MOL    F4045424   3.876   6.193   3.214 -0.3449  0.2856  0.2748
  373MOL    H4145425   4.014   6.301   3.407  1.3866  0.6490  0.3351
  373MOL    H4245426   4.107   6.210   3.298  0.6692 -1.6440  0.4889
  373MOL    H4345427   3.842   6.142   3.401 -1.3113  1.7211 -0.9865
  373MOL    C4445428   3.928   5.980   3.283 -0.0890 -0.0579 -0.2397
  373MOL    C4545429   4.018   5.944   3.157 -0.4435  0.0013  0.5938
  373MOL    F4645430   4.147   5.992   3.181 -0.0077  0.2349  0.4202
  373MOL    H4745431   3.951   5.913   3.366 -2.1388  1.2387  1.4057
  373MOL    H4845432   3.831   5.938   3.256 -0.6107  1.5929 -0.9500
  373MOL    H4945433   3.981   6.006   3.076 -1.9062 -0.0748  1.1811
  373MOL    C5045434   4.011   5.797   3.118 -0.0674 -0.3099  0.2301
  373MOL    C5145435   4.087   5.766   2.992 -0.8135 -0.0215  0.8922
  373MOL    F5245436   4.129   5.638   2.988 -0.3396  0.0807 -0.0254
  373MOL    H5345437   4.049   5.728   3.192 -0.6526 -1.1445 -0.2428
  373MOL    H5445438   3.905   5.777   3.112 -0.0498  0.1711 -2.2791
  373MOL    H5545439   4.180   5.823   2.982 -2.2912  2.1333 -0.9863
  373MOL    C5645440   4.011   5.801   2.864  0.6011  0.6303 -0.0138
  373MOL    C5745441   4.100   5.802   2.735  0.4532  0.4272 -0.2053
  373MOL    F5845442   4.140   5.675   2.708 -0.2559 -0.0361  0.2713
  373MOL    H5945443   3.921   5.741   2.852  2.9461 -3.3515  1.4657
  373MOL    H6045444   3.975   5.903   2.877  1.5800  0.8650  0.8954
  373MOL    H6145445   4.196   5.853   2.739 -0.5318  2.4034 -0.9432
  373MOL    C6245446   4.019   5.845   2.610  0.1462 -0.2039 -0.4490
  373MOL    C6345447   3.886   5.774   2.589  0.1898  0.3369  0.3643
  373MOL    F6445448   3.786   5.824   2.659 -0.5657 -0.0122 -0.4697
  373MOL    H6545449   4.007   5.954   2.608 -0.9247 -0.2835  1.2328
  373MOL    H6645450   4.091   5.814   2.534  0.0644  2.7433 -1.7890
  373MOL    H6745451   3.899   5.674   2.631  1.3141  0.3406  0.0561
  373MOL    C6845452   3.843   5.778   2.436 -0.2286 -0.4309 -0.5329
  373MOL    C6945453   3.710   5.702   2.421 -0.1736 -0.0465 -0.5364
  373MOL    F7045454   3.617   5.780   2.472 -0.6379 -0.5219  0.2336
  373MOL    H7145455   3.835   5.878   2.394 -0.4504 -0.5492 -0.7763
  373MOL    H7245456   3.914   5.718   2.378  0.8297  0.7807 -0.5017
  373MOL    H7345457   3.711   5.609   2.478 -1.0657  0.1406 -0.2005
  373MOL    C7445458   3.686   5.683   2.267  0.3672  0.1053 -0.6878
  373MOL    C7545459   3.576   5.594   2.221  0.3640  0.0846 -0.0657
  373MOL    F7645460   3.459   5.648   2.271 -0.0760 -0.2578  0.2348
  373MOL    H7745461   3.671   5.780   2.219 -1.9793 -0.8347 -1.9209
  373MOL    H7845462   3.783   5.656   2.225  0.0307 -0.3168 -1.1998
  373MOL    H7945463   3.596   5.494   2.258 -1.8127 -0.0899  0.7705
  373MOL    C8045464   3.562   5.590   2.068 -0.7631  0.8950  0.2364
  373MOL    C8145465   3.665   5.491   1.997  0.2469 -0.6070  0.3464
  373MOL    F8245466   3.630   5.358   2.027  0.0831 -0.4106  0.0869
  373MOL    H8345467   3.457   5.569   2.047 -1.2652  1.4819  2.0568
  373MOL    H8445468   3.590   5.690   2.034 -0.1494  1.8486  3.3193
  373MOL    H8545469   3.754   5.520   2.054 -0.5281 -0.4339  1.4853
  373MOL    C8645470   3.677   5.509   1.844  0.2536 -0.4945 -0.2630
  373MOL    C8745471   3.778   5.420   1.766 -0.8906  0.3288  0.3664
  373MOL    F8845472   3.732   5.414   1.641  0.4626 -0.7500  0.2039
  373MOL    H8945473   3.577   5.500   1.800  0.5810 -1.7678 -0.7716
  373MOL    H9045474   3.728   5.604   1.836  2.0669 -1.5678 -1.8805
  373MOL    H9145475   3.774   5.317   1.801 -1.8459  0.4440  0.5897
  373MOL    C9245476   3.924   5.464   1.765 -0.0936  0.5305 -0.4966
  373MOL    C9345477   4.022   5.395   1.675 -0.2148  0.2266  0.6612
  373MOL    F9445478   4.131   5.472   1.671  0.4402 -0.5188  0.1607
  373MOL    H9545479   3.931   5.570   1.740  2.8503  0.7882  1.1516
  373MOL    H9645480   3.968   5.469   1.865 -0.3081  0.0260 -0.3766
  373MOL    H9745481   3.976   5.390   1.576  2.7450  2.3837 -0.8960
  373MOL    C9845482   4.068   5.257   1.715  0.7268 -0.3290 -1.3226
  373MOL    C9945483   4.132   5.247   1.853  0.1984  0.4978 -0.3551
  373MOL   F10045484   4.045   5.265   1.953  0.3120  0.2351  0.1958
  373MOL   H10145485   3.989   5.185   1.693 -1.7255  1.9821 -0.3886
  373MOL   H10245486   4.138   5.228   1.637 -0.7323 -0.8773 -2.4649
  373MOL   H10345487   4.206   5.327   1.863  0.9452 -0.2115 -0.1604
  373MOL   C10445488   4.205   5.111   1.865  0.5105  0.2696 -0.7502
  373MOL   C10545489   4.273   5.089   2.000  0.5136 -0.7118  0.6981
  373MOL   F10645490   4.314   4.958   1.987 -0.3831 -0.5104 -0.2920
  373MOL   H10745491   4.139   5.026   1.848  1.4055 -0.7059  0.5047
  373MOL   H10845492   4.277   5.093   1.784 -0.7148 -3.3301 -1.1525
  373MOL   H10945493   4.199   5.100   2.079 -0.3342  0.9215 -0.2901
  373MOL   C11045494   4.414   5.160   2.012  0.8563 -0.5881  0.5793
  373MOL   C11145495   4.469   5.162   2.157  0.2046 -0.3936  0.6291
  373MOL   F11245496   4.599   5.192   2.159 -0.4977  0.6315  0.5728
  373MOL   H11345497   4.485   5.121   1.940  0.2894  0.0322 -0.3266
  373MOL   H11445498   4.384   5.261   1.983 -1.5184 -2.0597 -2.3751
  373MOL   H11545499   4.453   5.059   2.187  1.4347 -0.9311 -0.5364
  373MOL   C11645500   4.386   5.246   2.252  0.5669 -0.2106 -0.3082
  373MOL   C11745501   4.397   5.397   2.214  0.8009 -0.0944 -0.3784
  373MOL   F11845502   4.349   5.480   2.307  0.1419  0.0068  0.2858
  373MOL   H11945503   4.282   5.225   2.274  0.7365 -1.1658 -0.3769
  373MOL   H12045504   4.428   5.235   2.352 -2.3028 -0.2881  0.9326
  373MOL   H12145505   4.328   5.419   2.133 -0.1123 -1.7802 -0.0952
  373MOL   H12245506   4.499   5.427   2.193  0.6541  1.3017  0.7903
  374MOL     C145507   0.946   3.593   1.910 -0.2114 -0.3560 -0.0607
  374MOL     C245508   1.024   3.471   1.949  0.0936 -0.2250 -0.5012
  374MOL     F345509   1.010   3.458   2.082  0.4464 -0.1970 -0.2507
  374MOL     H445510   0.842   3.565   1.893 -0.3631 -1.0646  1.8304
  374MOL     H545511   0.992   3.631   1.819 -0.9915 -1.9397 -1.1541
  374MOL     H645512   1.132   3.477   1.935  0.0148  0.3235 -0.8872
  374MOL     H745513   0.945   3.666   1.991  1.1214 -1.3665  0.8940
  374MOL     C845514   0.981   3.333   1.893 -0.0603  0.0051  0.0563
  374MOL     C945515   1.039   3.291   1.751  0.0073 -0.2779 -0.0518
  374MOL    F1045516   1.170   3.285   1.777  0.2844  0.0679 -0.7850
  374MOL    H1145517   1.003   3.258   1.968  0.4063  2.0250  1.9832
  374MOL    H1245518   0.872   3.339   1.890  0.0105  0.9254 -1.5673
  374MOL    H1345519   1.018   3.369   1.678  0.4244 -0.8394 -0.7812
  374MOL    C1445520   0.971   3.160   1.702  0.3649  0.0867 -0.2353
  374MOL    C1545521   1.026   3.087   1.576  0.0098  0.4461  0.4238
  374MOL    F1645522   0.975   2.973   1.541  0.0641  0.0579  0.4168
  374MOL    H1745523   0.963   3.091   1.786  1.8059  1.5229  1.1137
  374MOL    H1845524   0.865   3.184   1.693  0.5194  1.1011  0.6496
  374MOL    H1945525   1.132   3.071   1.594  0.0341 -0.3617 -0.3647
  374MOL    C2045526   1.034   3.179   1.455  0.5862 -0.4589  0.1064
  374MOL    C2145527   1.135   3.131   1.345 -0.2315 -0.6426 -0.1852
  374MOL    F2245528   1.105   3.003   1.311 -0.6970 -0.4869  0.3592
  374MOL    H2345529   0.932   3.186   1.417  0.6387 -0.0596  0.0325
  374MOL    H2445530   1.058   3.283   1.479 -0.5117  0.2637 -1.8502
  374MOL    H2545531   1.234   3.126   1.391 -0.8297 -0.0517  1.1921
  374MOL    C2645532   1.138   3.209   1.213 -0.4185  0.8723 -0.0039
  374MOL    C2745533   1.235   3.160   1.110 -0.0245  0.2554  0.0127
  374MOL    F2845534   1.205   3.036   1.078  0.3750  0.2448 -0.3558
  374MOL    H2945535   1.040   3.185   1.170 -1.1997 -0.1947  2.2740
  374MOL    H3045536   1.160   3.315   1.230  0.4342  0.8265 -0.7807
  374MOL    H3145537   1.338   3.163   1.147 -0.4091  1.6653  0.9900
  374MOL    C3245538   1.219   3.243   0.986 -0.4159 -0.0777  0.0615
  374MOL    C3345539   1.276   3.392   0.996  0.3720 -0.8584 -0.1118
  374MOL    F3445540   1.386   3.402   1.078 -0.1409 -0.1112  0.2545
  374MOL    H3545541   1.272   3.195   0.903  0.8572 -0.7253  1.2287
  374MOL    H3645542   1.117   3.246   0.947 -0.6553  2.3248  0.8017
  374MOL    H3745543   1.195   3.443   1.049  0.5338 -0.7265  0.0092
  374MOL    C3845544   1.301   3.455   0.859  0.5218  0.4206 -0.2837
  374MOL    C3945545   1.359   3.592   0.877  0.7346 -0.0074  0.7262
  374MOL    F4045546   1.395   3.625   0.754 -0.1048  0.0508  0.8616
  374MOL    H4145547   1.364   3.393   0.795 -0.5125 -1.2722  0.3168
  374MOL    H4245548   1.210   3.471   0.801  0.4931 -1.4121 -0.7548
  374MOL    H4345549   1.449   3.604   0.938  1.5938 -0.7174 -0.3844
  374MOL    C4445550   1.265   3.704   0.948 -0.0888 -0.0562  0.6730
  374MOL    C4545551   1.135   3.746   0.871 -0.0817 -0.1285 -0.2997
  374MOL    F4645552   1.052   3.643   0.862 -0.0823 -0.3660  0.5643
  374MOL    H4745553   1.231   3.679   1.049  0.8643  0.0547  1.0292
  374MOL    H4845554   1.328   3.793   0.956  2.2164 -1.3510 -2.2512
  374MOL    H4945555   1.160   3.762   0.767  0.5815  0.4172 -0.0599
  374MOL    C5045556   1.072   3.865   0.937 -0.0363 -0.3601 -0.1914
  374MOL    C5145557   0.971   3.925   0.836 -0.4280  0.0701  0.2275
  374MOL    F5245558   0.890   4.002   0.907 -0.1484 -0.3796  0.1845
  374MOL    H5345559   1.012   3.819   1.015  0.6263  0.6751  0.9527
  374MOL    H5445560   1.148   3.937   0.968 -0.9305  0.9773 -1.0274
  374MOL    H5545561   0.898   3.850   0.805 -1.7469  0.6257  1.8800
  374MOL    C5645562   1.036   3.996   0.719  0.3160 -0.0595 -0.4590
  374MOL    C5745563   0.933   4.074   0.633 -0.5395 -0.2774 -0.4012
  374MOL    F5845564   1.009   4.159   0.557  0.4227 -0.1706  0.5702
  374MOL    H5945565   1.122   4.059   0.742  1.5842 -1.5460 -1.0208
  374MOL    H6045566   1.089   3.929   0.651 -2.6710 -2.8320 -0.1627
  374MOL    H6145567   0.869   4.134   0.698 -0.8171  0.1949 -1.0979
  374MOL    C6245568   0.838   3.994   0.538 -0.7450  0.0596 -0.1784
  374MOL    C6345569   0.737   4.081   0.451  0.1366 -0.5322 -0.2288
  374MOL    F6445570   0.806   4.164   0.368 -0.6618 -0.2050 -0.4224
  374MOL    H6545571   0.903   3.932   0.477 -2.7413 -2.8983  0.6326
  374MOL    H6645572   0.777   3.920   0.588 -1.8744  0.9088 -0.2694
  374MOL    H6745573   0.676   4.140   0.520  0.7070 -0.6438  0.3794
  374MOL    C6845574   0.650   3.988   0.365  0.6145 -0.7463  0.0210
  374MOL    C6945575   0.549   4.057   0.272  0.3110  0.7952  0.4117
  374MOL    F7045576   0.497   3.956   0.194  0.5330 -0.6175 -0.3023
  374MOL    H7145577   0.722   3.938   0.300  1.0515 -2.0188  1.4511
  374MOL    H7245578   0.609   3.907   0.425  0.9553 -1.1955 -0.3463
  374MOL    H7345579   0.601   4.116   0.197 -1.2952 -0.1478 -1.5088
  374MOL    C7445580   0.438   4.151   0.336 -0.2272  0.1064 -0.1230
  374MOL    C7545581   0.345   4.079   0.433 -0.5692 -0.4781  0.3355
  374MOL    F7645582   0.415   4.044   0.542 -0.3791  0.0209  0.1981
  374MOL    H7745583   0.489   4.233   0.386 -2.3852  0.8563  0.9082
  374MOL    H7845584   0.379   4.205   0.262 -1.6646 -0.3583  0.6615
  374MOL    H7945585   0.304   3.986   0.393 -0.3830 -0.4742  0.1340
  374MOL    C8045586   0.228   4.155   0.475  0.0046 -0.3188  0.4748
  374MOL    C8145587   0.126   4.079   0.564  0.0445  0.2837 -0.3815
  374MOL    F8245588   0.047   4.172   0.621  0.4330 -0.1777  0.1401
  374MOL    H8345589   0.267   4.246   0.521  2.8242 -1.8441  1.2129
  374MOL    H8445590   0.164   4.180   0.391  0.6691 -2.1987 -0.6137
  374MOL    H8545591   0.172   4.038   0.654 -0.8789 -0.6417 -0.3268
  374MOL    C8645592   0.039   3.984   0.482 -0.2115 -0.2079  0.3464
  374MOL    C8745593   7.945   3.885   0.564 -0.0047 -0.6573  0.1051
  374MOL    F8845594   0.009   3.783   0.618  0.2920 -0.2198 -0.2348
  374MOL    H8945595   7.982   4.046   0.415 -0.6335 -2.2990 -1.2513
  374MOL    H9045596   0.105   3.923   0.420 -0.6361 -1.4105  1.0583
  374MOL    H9145597   7.869   3.844   0.498 -0.4716  1.5203 -0.7253
  374MOL    C9245598   7.868   3.954   0.675  0.0183  0.3642 -0.7478
  374MOL    C9345599   7.742   3.878   0.719  0.0852  0.0988 -0.2339
  374MOL    F9445600   7.789   3.779   0.796  0.1053 -0.0710  0.5099
  374MOL    H9545601   7.932   3.981   0.759 -1.2583 -0.3730  0.4928
  374MOL    H9645602   7.826   4.046   0.635 -1.1806  1.3931  2.6701
  374MOL    H9745603   7.705   3.840   0.624  1.5086 -1.2431 -0.2684
  374MOL    C9845604   7.651   3.958   0.820  0.4742  0.2653  0.7017
  374MOL    C9945605   7.548   3.871   0.886  0.5976 -0.0550  0.1545
  374MOL   F10045606   7.464   3.945   0.961  0.4242  0.0512 -0.4817
  374MOL   H10145607   7.703   4.011   0.899  0.3584  0.4043  0.6862
  374MOL   H10245608   7.608   4.029   0.749  0.2535 -1.3432 -0.8040
  374MOL   H10345609   7.587   3.789   0.947 -0.1952 -0.4251  0.1753
  374MOL   C10445610   7.456   3.785   0.793 -0.4660 -0.3148 -0.3080
  374MOL   C10545611   7.362   3.682   0.855  0.1855 -0.1177  0.0048
  374MOL   F10645612   7.281   3.753   0.925 -0.4061  0.3725  0.2728
  374MOL   H10745613   7.402   3.864   0.740  1.3267  0.9019 -0.3772
  374MOL   H10845614   7.517   3.729   0.722 -2.9001 -1.4669 -1.5322
  374MOL   H10945615   7.422   3.622   0.923  0.4719 -2.0501 -1.8736
  374MOL   C11045616   7.278   3.598   0.761  0.3792  0.0286 -0.8705
  374MOL   C11145617   7.181   3.503   0.840 -0.4076 -0.8164 -0.2922
  374MOL   F11245618   7.080   3.483   0.762 -0.2687  0.6890  0.2081
  374MOL   H11345619   7.213   3.664   0.705  1.5557  0.9210 -1.2008
  374MOL   H11445620   7.335   3.535   0.693 -0.6669 -0.7318 -1.0533
  374MOL   H11545621   7.153   3.558   0.930  1.3765  0.7851 -0.6944
  374MOL   C11645622   7.241   3.369   0.887 -0.7106  0.5998 -0.1714
  374MOL   C11745623   7.136   3.271   0.945  0.4114  0.8836 -0.4740
  374MOL   F11845624   7.200   3.163   0.985 -0.0092  0.4080  0.5534
  374MOL   H11945625   7.288   3.327   0.797  0.0940 -0.5722  0.7700
  374MOL   H12045626   7.317   3.387   0.963  0.3717 -1.1769 -0.7813
  374MOL   H12145627   7.061   3.235   0.875  0.6322 -0.6740  0.0663
  374MOL   H12245628   7.089   3.309   1.036  0.6921  0.3479 -0.0944
  375MOL     C145629   2.234   6.769   3.234 -0.3107  0.1945 -0.4162
  375MOL     C245630   2.197   6.711   3.093  0.1345  0.8444 -0.0201
  375MOL     F345631   2.061   6.700   3.077  0.6755 -0.2446 -0.5037
  375MOL     H445632   2.193   6.709   3.315  1.9346 -0.0807  0.5398
  375MOL     H545633   2.200   6.872   3.246  1.3443  0.5949  1.0967
  375MOL     H645634   2.236   6.609   3.085  0.1782  0.9779 -1.5860
  375MOL     H745635   2.340   6.780   3.254 -0.4186 -0.0859  0.3307
  375MOL     C845636   2.264   6.787   2.980  0.1311  0.6022 -0.1654
  375MOL     C945637   2.420   6.768   2.992 -0.2150 -0.3660  0.6884
  375MOL    F1045638   2.457   6.641   3.004  0.3541  0.0810 -0.0602
  375MOL    H1145639   2.232   6.732   2.891 -0.4937 -0.6472  0.8148
  375MOL    H1245640   2.234   6.892   2.974 -1.7938  0.1302  0.8718
  375MOL    H1345641   2.463   6.826   3.074 -1.0289  1.5437 -0.2158
  375MOL    C1445642   2.493   6.803   2.856 -0.4237  0.9925 -0.7020
  375MOL    C1545643   2.647   6.781   2.851 -0.3331 -0.1678 -0.5178
  375MOL    F1645644   2.683   6.803   2.722 -0.0090  0.6004  0.6348
  375MOL    H1745645   2.453   6.743   2.774 -2.7261  1.9505 -0.3048
  375MOL    H1845646   2.459   6.901   2.820 -1.3975  1.3456  1.1062
  375MOL    H1945647   2.681   6.678   2.862 -0.8072 -0.5322 -2.3294
  375MOL    C2045648   2.736   6.865   2.949  0.1651  0.9551  0.5105
  375MOL    C2145649   2.752   7.020   2.907 -0.4595  0.9057  0.0542
  375MOL    F2245650   2.636   7.075   2.937 -1.1524  0.0218  0.3155
  375MOL    H2345651   2.708   6.838   3.051 -1.4128 -2.0384 -0.6829
  375MOL    H2445652   2.838   6.828   2.940  0.1389  1.4020 -1.8836
  375MOL    H2545653   2.739   7.030   2.799 -1.0913 -2.8366 -0.3123
  375MOL    C2645654   2.866   7.102   2.963  0.4919 -0.7311  0.2181
  375MOL    C2745655   2.856   7.229   2.887 -0.9499  0.6355  0.8515
  375MOL    F2845656   2.944   7.306   2.953 -0.0771 -0.0580 -0.2048
  375MOL    H2945657   2.856   7.112   3.071 -2.3561  1.9124 -0.2221
  375MOL    H3045658   2.964   7.055   2.954  1.9260  1.9410  1.3014
  375MOL    H3145659   2.764   7.287   2.892 -1.6081 -0.3689  0.4360
  375MOL    C3245660   2.916   7.239   2.741 -0.3129  0.0448 -0.2768
  375MOL    C3345661   2.912   7.386   2.688  0.5692  0.7724 -0.3482
  375MOL    F3445662   2.991   7.470   2.763 -0.2908  0.3311  0.3251
  375MOL    H3545663   3.018   7.199   2.741 -0.9940 -1.7781  0.3995
  375MOL    H3645664   2.858   7.174   2.675 -0.3764  0.0253 -0.2023
  375MOL    H3745665   2.811   7.428   2.694  0.0359 -0.6466  0.7559
  375MOL    C3845666   2.955   7.394   2.537 -0.4576  0.6366 -0.4147
  375MOL    C3945667   2.934   7.534   2.485  0.1166 -0.0710  0.3998
  375MOL    F4045668   3.020   7.622   2.543  0.8695  0.0435 -0.0279
  375MOL    H4145669   3.056   7.360   2.517 -0.5944 -0.5966  0.9396
  375MOL    H4245670   2.893   7.325   2.479 -1.6387  0.3700  1.1247
  375MOL    H4345671   2.836   7.573   2.512 -0.0961 -0.1173 -0.3067
  375MOL    C4445672   2.950   7.539   2.326  0.1178  0.2231 -0.0493
  375MOL    C4545673   2.945   7.681   2.267 -0.2640  0.0056 -0.0537
  375MOL    F4645674   3.063   7.740   2.292  0.0055  0.4613 -0.0412
  375MOL    H4745675   3.045   7.489   2.304 -1.5302 -2.0077 -2.3513
  375MOL    H4845676   2.876   7.467   2.292  1.4482 -1.7962  1.2053
  375MOL    H4945677   2.866   7.738   2.318 -0.5955 -0.1749 -0.3622
  375MOL    C5045678   2.930   7.689   2.115  0.1934 -0.3542 -0.0812
  375MOL    C5145679   2.929   7.835   2.061 -0.0298 -0.1145  0.0800
  375MOL    F5245680   2.976   7.833   1.934  0.0920 -0.4872 -0.3487
  375MOL    H5345681   3.004   7.624   2.068 -0.6605 -0.5878 -1.1503
  375MOL    H5445682   2.832   7.650   2.084 -0.9980  2.7424 -0.3992
  375MOL    H5545683   3.000   7.897   2.116  1.7273 -2.0884  0.1202
  375MOL    C5645684   2.798   7.908   2.047  0.3793 -0.4556 -0.0335
  375MOL    C5745685   2.716   7.925   2.180 -0.1816  0.0818  0.0406
  375MOL    F5845686   2.798   7.973   2.265  0.1884  0.0866 -0.3002
  375MOL    H5945687   2.815   0.001   1.997 -0.6268  0.1908  0.8296
  375MOL    H6045688   2.751   7.861   1.961 -0.2992  2.2586 -1.2168
  375MOL    H6145689   2.689   7.825   2.212 -1.4572  0.4048  0.0263
  375MOL    C6245690   2.588   0.007   2.159  0.0188  0.5581  0.2763
  375MOL    C6345691   2.507   0.033   2.289 -0.3448 -0.1222  0.0153
  375MOL    F6445692   2.410   0.118   2.267  0.3587 -0.0792  0.0361
  375MOL    H6545693   2.627   0.100   2.120 -0.2700 -0.0861 -1.6192
  375MOL    H6645694   2.521   7.961   2.088  2.3081  0.9377 -2.2038
  375MOL    H6745695   2.576   0.084   2.357  0.1314  0.5726 -0.9804
  375MOL    C6845696   2.453   7.905   2.351  0.6908 -0.7239  0.0476
  375MOL    C6945697   2.381   7.924   2.481  0.0864 -1.0078  0.0676
  375MOL    F7045698   2.331   7.806   2.518 -0.3466  0.0066 -0.1304
  375MOL    H7145699   2.388   7.848   2.284 -2.0534  2.2122  0.1200
  375MOL    H7245700   2.531   7.832   2.374  0.5688 -1.0341 -0.5146
  375MOL    H7345701   2.292   7.985   2.470 -0.6157 -1.0898  4.2067
  375MOL    C7445702   2.470   7.960   2.604 -0.7846 -0.4288  0.1065
  375MOL    C7545703   2.376   7.981   2.724 -0.4770  0.4525 -0.0155
  375MOL    F7645704   2.302   7.874   2.754  0.0340  0.1766  0.2770
  375MOL    H7745705   2.533   7.877   2.635 -0.8112  0.3259  2.3210
  375MOL    H7845706   2.532   0.045   2.584 -1.3269 -0.0419  0.1137
  375MOL    H7945707   2.305   0.055   2.695  0.9375  1.6553 -0.3351
  375MOL    C8045708   2.460   0.010   2.853 -0.2681  0.3896  0.7264
  375MOL    C8145709   2.373   0.018   2.981  0.2762  0.0635 -0.6507
  375MOL    F8245710   2.441   0.005   3.098 -0.2210 -0.4135  0.1506
  375MOL    H8345711   2.542   7.949   2.885  1.5902  2.8616  1.0646
  375MOL    H8445712   2.506   0.109   2.847 -2.0903  1.1786 -0.8772
  375MOL    H8545713   2.298   7.942   2.987  0.0008  0.1839 -2.1963
  375MOL    C8645714   2.293   0.149   2.990  0.5511  1.1010  0.1467
  375MOL    C8745715   2.186   0.148   3.103 -0.3018  0.4366  0.6527
  375MOL    F8845716   2.152   0.268   3.127 -0.4606 -0.0807  0.1393
  375MOL    H8945717   2.354   0.238   3.005  0.1913  1.2134  0.9789
  375MOL    H9045718   2.245   0.158   2.893 -1.4924 -1.7653  0.8316
  375MOL    H9145719   2.236   0.114   3.193 -1.9181 -1.6283  0.8103
  375MOL    C9245720   2.055   0.061   3.074 -0.2401 -0.2334 -0.2124
  375MOL    C9345721   1.965   0.123   2.966  0.5452  0.3904 -0.4912
  375MOL    F9445722   2.029   0.115   2.849  0.0514 -0.5120 -0.4043
  375MOL    H9545723   2.082   7.959   3.063  0.6199 -0.1544  0.9840
  375MOL    H9645724   2.004   0.056   3.170  1.3444 -1.8005  0.5834
  375MOL    H9745725   1.957   0.229   2.992 -2.1864 -0.0419  0.5922
  375MOL    C9845726   1.832   0.051   2.953 -0.4796 -0.7053  0.2426
  375MOL    C9945727   1.739   0.075   3.076 -0.6596  0.4622 -0.0044
  375MOL   F10045728   1.711   0.201   3.098 -0.0122  0.1702  0.1921
  375MOL   H10145729   1.790   0.078   2.856  2.8365  0.5767 -0.8826
  375MOL   H10245730   1.842   7.945   2.950 -1.3075 -0.7795 -0.2614
  375MOL   H10345731   1.797   0.040   3.162  0.5225  1.3850 -0.4048
  375MOL   C10445732   1.605   0.000   3.070  0.1621 -0.1017 -0.1144
  375MOL   C10545733   1.621   7.858   3.092 -0.3281 -0.7999  0.5025
  375MOL   F10645734   1.675   7.831   3.210 -0.0352 -0.2430  0.2421
  375MOL   H10745735   1.541   0.042   3.148 -1.9347 -1.4816 -1.0542
  375MOL   H10845736   1.551   0.015   2.977 -1.0179  1.0336  0.7233
  375MOL   H10945737   1.690   7.810   3.023 -0.4151 -1.2676  0.7383
  375MOL   C11045738   1.484   7.779   3.087  0.6802  0.2121  0.4877
  375MOL   C11145739   1.419   7.760   2.944 -0.2395  0.1069  0.4523
  375MOL   F11245740   1.339   7.868   2.916  0.3737 -0.1148  0.0967
  375MOL   H11345741   1.516   7.677   3.110 -0.5279 -0.2502  0.1935
  375MOL   H11445742   1.424   7.807   3.173 -2.1857 -0.1164 -1.3015
  375MOL   H11545743   1.338   7.687   2.951 -0.4753  0.5058  2.1713
  375MOL   C11645744   1.520   7.721   2.836  0.9420  0.2590  0.1733
  375MOL   C11745745   1.438   7.654   2.725  0.0208  0.0456  0.0030
  375MOL   F11845746   1.384   7.536   2.759 -0.0904  0.2265 -0.1730
  375MOL   H11945747   1.581   7.805   2.802  0.8939  0.5528  0.7945
  375MOL   H12045748   1.584   7.641   2.874 -1.6459 -2.7345 -1.4797
  375MOL   H12145749   1.496   7.638   2.634  1.0174  1.0282  0.4424
  375MOL   H12245750   1.351   7.714   2.701 -0.3387 -0.8110 -0.8505
  376MOL     C145751   6.183   4.749   1.360  0.1018 -0.6180 -0.2860
  376MOL     C245752   6.036   4.729   1.408  0.2046  0.0846  0.3659
  376MOL     F345753   6.006   4.599   1.419  0.3047 -0.8308  0.5441
  376MOL     H445754   6.202   4.855   1.346 -1.9634 -0.5102 -2.4722
  376MOL     H545755   6.211   4.705   1.264 -0.9820 -0.3633 -0.7175
  376MOL     H645756   5.965   4.763   1.333 -0.7660  0.7772  1.5879
  376MOL     H745757   6.247   4.724   1.445 -1.2055 -0.8119  0.6518
  376MOL     C845758   6.010   4.789   1.545 -0.2116 -0.5132 -0.5257
  376MOL     C945759   6.020   4.944   1.542  0.1099  0.1320 -0.2721
  376MOL    F1045760   5.932   4.982   1.454 -0.0398 -0.5179  0.2470
  376MOL    H1145761   5.910   4.764   1.581  0.4373 -0.5492  1.3170
  376MOL    H1245762   6.074   4.747   1.622  0.9709  0.5578 -0.9071
  376MOL    H1345763   6.122   4.972   1.518  1.0973 -1.2504  2.0995
  376MOL    C1445764   5.992   5.008   1.679  0.4112  0.2390  0.4942
  376MOL    C1545765   6.003   5.162   1.675  0.5454  0.4075 -0.6769
  376MOL    F1645766   5.971   5.221   1.794  0.5458 -0.6993  0.1665
  376MOL    H1745767   5.889   4.979   1.697  0.8920 -0.7239  1.7770
  376MOL    H1845768   6.053   4.961   1.757 -0.3488 -0.1239  0.8749
  376MOL    H1945769   5.929   5.200   1.606  0.5945  0.0670 -0.9129
  376MOL    C2045770   6.141   5.217   1.633  0.4329  0.3658  0.2564
  376MOL    C2145771   6.160   5.369   1.628  0.2537 -0.2917  0.5340
  376MOL    F2245772   6.112   5.425   1.743 -0.3593 -0.1557 -0.5342
  376MOL    H2345773   6.213   5.178   1.704  1.2684 -3.0422 -2.3734
  376MOL    H2445774   6.179   5.173   1.541  3.3764 -2.7277  2.8568
  376MOL    H2545775   6.092   5.391   1.545  3.0638  0.8868 -1.5423
  376MOL    C2645776   6.301   5.416   1.593  0.0050  0.2234  0.4032
  376MOL    C2745777   6.378   5.356   1.474  1.0141  0.1287 -0.1537
  376MOL    F2845778   6.305   5.361   1.363 -0.3323  0.1907  0.2928
  376MOL    H2945779   6.300   5.520   1.561  0.4247 -0.8465 -3.2156
  376MOL    H3045780   6.362   5.409   1.684 -1.1234 -1.2408  1.0720
  376MOL    H3145781   6.388   5.251   1.502  0.5543  0.5892  1.7960
  376MOL    C3245782   6.512   5.426   1.441 -0.3561  0.0687  0.5288
  376MOL    C3345783   6.619   5.333   1.375 -0.1300  0.2023  0.5461
  376MOL    F3445784   6.559   5.286   1.267  0.1009 -0.0129 -0.1659
  376MOL    H3545785   6.506   5.524   1.395  1.7299  0.7190  1.5510
  376MOL    H3645786   6.551   5.443   1.541 -0.1348  1.5499  0.1993
  376MOL    H3745787   6.640   5.243   1.432 -3.2620 -0.0099  1.4243
  376MOL    C3845788   6.749   5.407   1.346 -0.0518  0.6928  0.0380
  376MOL    C3945789   6.854   5.326   1.261 -0.1392 -0.1715  0.8111
  376MOL    F4045790   6.876   5.214   1.328 -0.3876 -0.4782  0.6561
  376MOL    H4145791   6.717   5.491   1.284  0.4015  0.2853 -0.7606
  376MOL    H4245792   6.790   5.433   1.444 -0.8062 -2.9227  1.3808
  376MOL    H4345793   6.951   5.376   1.272  0.4137 -1.4588  2.0238
  376MOL    C4445794   6.819   5.280   1.117 -0.5723  0.1445  1.2962
  376MOL    C4545795   6.928   5.188   1.054  0.0507 -0.0485 -0.2205
  376MOL    F4645796   6.939   5.078   1.123  0.4235 -0.1311  0.4627
  376MOL    H4745797   6.724   5.226   1.119 -0.7646  0.5200  2.8280
  376MOL    H4845798   6.805   5.368   1.055 -0.3132  0.3598  1.5441
  376MOL    H4945799   7.024   5.241   1.050 -0.1165  0.2043 -1.0184
  376MOL    C5045800   6.892   5.151   0.916  0.5577 -0.0109 -0.1914
  376MOL    C5145801   6.897   5.275   0.816  0.0077  0.9364  0.1724
  376MOL    F5245802   7.016   5.320   0.840 -0.0110  0.6195  0.0396
  376MOL    H5345803   6.950   5.065   0.881  1.4307 -0.0224  1.2158
  376MOL    H5445804   6.793   5.108   0.934  1.8997 -2.4372  1.6633
  376MOL    H5545805   6.816   5.343   0.842  0.8136  1.5997  1.0064
  376MOL    C5645806   6.898   5.239   0.663  0.3426  0.3694 -0.5273
  376MOL    C5745807   6.924   5.358   0.573 -0.2392  0.6213  0.0911
  376MOL    F5845808   6.959   5.302   0.455 -0.6425 -0.5204  0.0397
  376MOL    H5945809   6.986   5.180   0.641 -1.3742 -1.1240 -3.8352
  376MOL    H6045810   6.816   5.182   0.617  2.2088 -0.5765 -2.7926
  376MOL    H6145811   7.008   5.421   0.600  1.3333  0.3502 -3.8146
  376MOL    C6245812   6.796   5.455   0.567  0.2313  0.0794 -0.2082
  376MOL    C6345813   6.666   5.410   0.487 -0.5254  0.6760  0.1192
  376MOL    F6445814   6.598   5.323   0.566 -0.4441  0.0642 -0.1501
  376MOL    H6545815   6.764   5.479   0.668  0.3705 -0.1165 -0.1190
  376MOL    H6645816   6.834   5.549   0.526 -0.2161 -0.7782 -2.6683
  376MOL    H6745817   6.683   5.369   0.388  0.3358 -1.2194  1.0304
  376MOL    C6845818   6.571   5.529   0.459  0.1551  0.8698 -0.0977
  376MOL    C6945819   6.513   5.594   0.580 -0.2589 -0.6319  0.4605
  376MOL    F7045820   6.606   5.667   0.648 -0.0137 -0.0094  0.0491
  376MOL    H7145821   6.623   5.605   0.402  0.2653  0.7941 -0.0975
  376MOL    H7245822   6.489   5.494   0.396 -0.0372  0.5515  0.3240
  376MOL    H7345823   6.481   5.527   0.660 -0.3495  1.7547  2.5069
  376MOL    C7445824   6.402   5.701   0.554 -0.2769  0.3676  0.3029
  376MOL    C7545825   6.276   5.649   0.498 -0.2165 -0.0860  0.5940
  376MOL    F7645826   6.249   5.532   0.553 -0.0147  0.3591  0.3650
  376MOL    H7745827   6.378   5.736   0.655 -1.5175 -1.5534  0.6994
  376MOL    H7845828   6.447   5.780   0.495 -0.3908  1.0014  1.0561
  376MOL    H7945829   6.290   5.623   0.392 -0.2935 -0.7043  0.7311
  376MOL    C8045830   6.156   5.738   0.509  0.5008  0.1691  0.7483
  376MOL    C8145831   6.021   5.674   0.484 -0.2221  0.2998 -0.4479
  376MOL    F8245832   5.923   5.752   0.519  0.3568  0.1983  0.3317
  376MOL    H8345833   6.138   5.762   0.614  0.2012  0.2204  0.6875
  376MOL    H8445834   6.171   5.838   0.468  0.2616 -0.2102 -0.2802
  376MOL    H8545835   6.014   5.591   0.555  1.4175 -0.0397 -0.6611
  376MOL    C8645836   5.988   5.609   0.349  0.1922 -0.7135  0.3406
  376MOL    C8745837   5.854   5.546   0.328 -0.4056 -0.3018  0.1033
  376MOL    F8845838   5.753   5.629   0.356  0.1015  0.5129  0.0199
  376MOL    H8945839   6.008   5.681   0.270  0.1984  0.1772  1.1418
  376MOL    H9045840   6.064   5.536   0.321  1.5660  0.6703  0.3365
  376MOL    H9145841   5.854   5.458   0.392 -0.4342 -0.5104 -0.1821
  376MOL    C9245842   5.834   5.489   0.186  0.5265  0.5975  0.6725
  376MOL    C9345843   5.899   5.357   0.146  0.8126  0.2968 -0.2373
  376MOL    F9445844   5.872   5.258   0.241 -0.1774 -0.2170  0.3775
  376MOL    H9545845   5.729   5.462   0.177  1.4427 -2.3771 -2.3364
  376MOL    H9645846   5.844   5.561   0.104  0.4209  0.2430  0.3467
  376MOL    H9745847   6.008   5.363   0.155  0.6075  0.0289  3.0104
  376MOL    C9845848   5.856   5.304   0.011  0.3870 -0.0532 -0.0769
  376MOL    C9945849   5.892   5.388   7.885 -0.5710  0.4399  0.2303
  376MOL   F10045850   6.022   5.423   7.897  0.7333  0.3153 -0.4853
  376MOL   H10145851   5.905   5.207   0.003 -2.2149 -1.4017 -0.1245
  376MOL   H10245852   5.749   5.283   0.009 -0.1376  2.3025  1.2588
  376MOL   H10345853   5.840   5.484   7.883  0.9904  1.3297  1.4801
  376MOL   C10445854   5.876   5.304   7.759 -0.0427  0.2577  1.3411
  376MOL   C10545855   5.892   5.385   7.625  0.1499 -0.1561 -0.3054
  376MOL   F10645856   5.905   5.303   7.526  0.9883 -0.5470 -0.4083
  376MOL   H10745857   5.936   5.213   7.757 -1.9833 -1.0199 -1.8212
  376MOL   H10845858   5.774   5.268   7.753  0.0178  0.2483  0.2837
  376MOL   H10945859   5.983   5.444   7.635 -1.1418  1.9691 -0.8698
  376MOL   C11045860   5.779   5.483   7.594  0.3349 -0.0803  0.0007
  376MOL   C11145861   5.790   5.557   7.464  0.1130 -0.0040 -0.4775
  376MOL   F11245862   5.687   5.636   7.447  0.2808 -0.1556  0.1782
  376MOL   H11345863   5.689   5.422   7.598 -0.8223  1.3848 -2.4056
  376MOL   H11445864   5.771   5.556   7.675 -1.9038 -0.6676  0.3557
  376MOL   H11545865   5.793   5.480   7.387 -1.6463 -1.4759  0.8757
  376MOL   C11645866   5.919   5.639   7.459 -0.0074  0.3507  0.1638
  376MOL   C11745867   5.952   5.746   7.566  0.3572  1.2936 -0.5760
  376MOL   F11845868   5.986   5.684   7.682 -0.7660  0.1977  0.7562
  376MOL   H11945869   6.006   5.580   7.432  0.6515  1.5390 -0.3354
  376MOL   H12045870   5.915   5.680   7.358 -1.4619 -3.1807 -1.2835
  376MOL   H12145871   5.873   5.817   7.590 -1.2437 -0.8348  0.6209
  376MOL   H12245872   6.027   5.817   7.532  0.4103  0.8274 -1.4561
  377MOL     C145873   7.640   5.224   0.368 -0.0105 -0.2469  0.4315
  377MOL     C245874   7.507   5.190   0.311  0.4459  0.2910 -0.1738
  377MOL     F345875   7.460   5.085   0.382 -0.4334 -0.3688  0.3895
  377MOL     H445876   7.669   5.322   0.329  0.2423  0.1364  1.5601
  377MOL     H545877   7.707   5.145   0.336 -0.3059 -0.4219  0.2478
  377MOL     H645878   7.518   5.151   0.210  1.0115 -0.1110  0.0439
  377MOL     H745879   7.621   5.215   0.475  1.0779 -0.0853  0.6477
  377MOL     C845880   7.404   5.302   0.327 -0.5059 -0.1840 -0.4949
  377MOL     C945881   7.401   5.412   0.222  0.3146 -0.3872 -1.0202
  377MOL    F1045882   7.370   5.354   0.108 -0.3249 -0.2287  0.1543
  377MOL    H1145883   7.306   5.255   0.336 -0.3757 -0.4734 -0.5771
  377MOL    H1245884   7.407   5.340   0.429 -2.8334 -3.5907  0.9181
  377MOL    H1345885   7.500   5.458   0.227 -1.3236  3.2467 -0.7400
  377MOL    C1445886   7.300   5.520   0.264  0.9536  0.4309 -0.2036
  377MOL    C1545887   7.275   5.635   0.160 -0.7198 -0.4138 -0.9888
  377MOL    F1645888   7.190   5.608   0.063  0.8547  0.0678 -0.5222
  377MOL    H1745889   7.197   5.487   0.283  1.0089  0.8133  0.8006
  377MOL    H1845890   7.340   5.563   0.356  1.5129  0.4871 -0.4722
  377MOL    H1945891   7.368   5.654   0.107 -0.3660  1.1361  0.1351
  377MOL    C2045892   7.221   5.773   0.212 -0.1969  0.3045  0.6154
  377MOL    C2145893   7.079   5.764   0.264  0.4717  0.1942  0.2498
  377MOL    F2245894   7.070   5.701   0.372 -0.6056 -0.0658  0.1520
  377MOL    H2345895   7.285   5.818   0.288  1.5639  0.1000 -0.7050
  377MOL    H2445896   7.216   5.836   0.123  1.5046 -0.5036 -0.0599
  377MOL    H2545897   7.020   5.698   0.200  1.3615  0.5259 -0.9214
  377MOL    C2645898   7.010   5.900   0.287 -0.9449  0.1249  0.5288
  377MOL    C2745899   6.855   5.882   0.291 -0.4399  0.4247 -0.0237
  377MOL    F2845900   6.822   5.820   0.404  0.4027  0.5195  0.1613
  377MOL    H2945901   7.048   5.938   0.381  0.8926 -0.4323  0.0418
  377MOL    H3045902   7.041   5.951   0.195 -0.8111 -1.0031 -0.0668
  377MOL    H3145903   6.811   5.808   0.223  0.7862 -0.6580  0.3354
  377MOL    C3245904   6.773   6.008   0.280  0.0087 -0.0188  0.3515
  377MOL    C3345905   6.627   5.991   0.250  0.0566 -0.2404 -0.1341
  377MOL    F3445906   6.592   5.895   0.335  0.0807 -0.5006 -0.0550
  377MOL    H3545907   6.772   6.058   0.378  1.7080 -0.7803  0.7823
  377MOL    H3645908   6.827   6.077   0.215 -1.6721  2.1374  1.1831
  377MOL    H3745909   6.624   5.946   0.151  0.5087 -0.9964  0.1847
  377MOL    C3845910   6.529   6.106   0.271 -0.2155 -0.4401  0.5208
  377MOL    C3945911   6.394   6.087   0.200  0.0606  0.1339 -0.4924
  377MOL    F4045912   6.329   5.989   0.268  0.0257 -0.2019 -0.3472
  377MOL    H4145913   6.501   6.119   0.376  1.6142 -0.5721  1.0269
  377MOL    H4245914   6.579   6.194   0.232  2.2317 -0.1442  4.0550
  377MOL    H4345915   6.404   6.061   0.095  1.6635 -1.1630 -0.0360
  377MOL    C4445916   6.301   6.215   0.202 -0.0401  0.0761  0.2198
  377MOL    C4545917   6.162   6.165   0.150 -0.2481 -0.4690 -0.2858
  377MOL    F4645918   6.076   6.273   0.155 -0.2842  0.8577 -0.3417
  377MOL    H4745919   6.296   6.263   0.300  1.4591 -0.7947  0.7356
  377MOL    H4845920   6.346   6.284   0.130  0.4030  0.8423  1.2202
  377MOL    H4945921   6.120   6.090   0.216 -0.5859  0.3047  0.3807
  377MOL    C5045922   6.150   6.116   0.007  0.2885  0.7718  0.4254
  377MOL    C5145923   6.003   6.073   7.981 -1.6851 -0.8515 -0.0906
  377MOL    F5245924   5.978   6.087   7.850  0.0849  0.0671 -0.1502
  377MOL    H5345925   6.177   6.195   7.941  0.0832 -0.1267 -0.6991
  377MOL    H5445926   6.211   6.028   7.989 -0.4141  0.0529  1.3382
  377MOL    H5545927   5.934   6.145   0.022 -1.2702 -1.5098  1.6999
  377MOL    C5645928   5.980   5.917   0.017  0.2174 -0.3503  0.2236
  377MOL    C5745929   5.826   5.910   0.023 -0.0686 -0.0975  0.2684
  377MOL    F5845930   5.799   5.780   0.038  0.3023 -0.1467  0.3500
  377MOL    H5945931   6.014   5.855   7.938  0.9178 -0.2294  0.4143
  377MOL    H6045932   6.037   5.889   0.106  0.5019 -1.9491 -0.4591
  377MOL    H6145933   5.781   5.938   7.931 -1.8464 -2.7299  0.3216
  377MOL    C6245934   5.757   5.982   0.143 -0.8035 -0.1263  0.2451
  377MOL    C6345935   5.800   5.936   0.278  0.3747  0.4450 -0.4167
  377MOL    F6445936   5.904   6.010   0.305  0.2365  0.0596  0.3713
  377MOL    H6545937   5.754   6.090   0.133 -2.1845  0.1132  2.7425
  377MOL    H6645938   5.651   5.957   0.141 -0.6881 -0.8415  1.9161
  377MOL    H6745939   5.841   5.835   0.278  0.3351  0.4247  0.6128
  377MOL    C6845940   5.696   5.942   0.394 -0.3808 -0.3969  0.5154
  377MOL    C6945941   5.645   6.083   0.426  0.8515  0.0002  0.0523
  377MOL    F7045942   5.539   6.062   0.506 -0.5173  0.7924 -0.0140
  377MOL    H7145943   5.614   5.882   0.355  1.8112 -0.9053 -3.5836
  377MOL    H7245944   5.738   5.897   0.484  1.7909  0.0363 -0.2409
  377MOL    H7345945   5.605   6.135   0.339  1.4602 -0.5221 -0.5454
  377MOL    C7445946   5.732   6.172   0.514  0.6640 -0.2705 -0.5983
  377MOL    C7545947   5.840   6.262   0.437 -0.2769 -0.2347 -0.4613
  377MOL    F7645948   5.795   6.320   0.327 -0.1265 -0.3944  0.6239
  377MOL    H7745949   5.664   6.237   0.570  1.9482  1.0400 -0.4936
  377MOL    H7845950   5.788   6.111   0.585 -1.5765 -3.5035 -1.5571
  377MOL    H7945951   5.918   6.201   0.393  0.2039 -0.1472  0.2591
  377MOL    C8045952   5.900   6.366   0.533  0.8357  0.4596 -0.1510
  377MOL    C8145953   6.015   6.448   0.473 -0.5785  0.0572  0.1640
  377MOL    F8245954   5.966   6.518   0.369 -0.2260 -0.3491 -0.3862
  377MOL    H8345955   5.817   6.429   0.564  1.5833  2.0577 -1.3167
  377MOL    H8445956   5.939   6.335   0.630  1.1403 -1.0900 -0.7545
  377MOL    H8545957   6.077   6.370   0.431 -0.9275  0.2386 -0.7056
  377MOL    C8645958   6.081   6.551   0.562 -0.4801  0.3653  0.2060
  377MOL    C8745959   6.196   6.633   0.494 -0.0673 -1.2326  1.0369
  377MOL    F8845960   6.236   6.719   0.584 -0.5296 -0.3130  0.0183
  377MOL    H8945961   6.001   6.612   0.603 -0.9056  0.5259 -0.8545
  377MOL    H9045962   6.136   6.506   0.645 -1.3638 -0.4234  0.3740
  377MOL    H9145963   6.163   6.692   0.409  0.5250  0.1614  1.7649
  377MOL    C9245964   6.325   6.559   0.459  0.2171 -0.3108  0.4680
  377MOL    C9345965   6.436   6.646   0.404 -0.6703  0.0669 -0.1014
  377MOL    F9445966   6.543   6.566   0.416 -0.1385  0.4697  0.0353
  377MOL    H9545967   6.351   6.506   0.551  1.4934  0.0899  0.3540
  377MOL    H9645968   6.297   6.481   0.388  0.2763  1.0736 -1.1263
  377MOL    H9745969   6.457   6.739   0.456 -0.6665 -0.5582  1.0425
  377MOL    C9845970   6.419   6.674   0.250 -0.1350 -0.2658 -0.0247
  377MOL    C9945971   6.516   6.778   0.196 -0.1037 -0.2480 -0.4030
  377MOL   F10045972   6.634   6.779   0.259 -0.2420  0.0011  0.5739
  377MOL   H10145973   6.441   6.576   0.209 -1.6763 -1.7248  2.5077
  377MOL   H10245974   6.319   6.694   0.213  0.9103  2.0173 -1.7857
  377MOL   H10345975   6.473   6.877   0.211 -2.3320 -1.0401 -1.2806
  377MOL   C10445976   6.542   6.769   0.048  0.3806 -0.1344 -0.3666
  377MOL   C10545977   6.435   6.828   7.954  0.7614  0.1120  0.3400
  377MOL   F10645978   6.375   6.947   7.997  0.1757  0.5383  0.1593
  377MOL   H10745979   6.635   6.825   0.041  0.5656  0.0337  2.5869
  377MOL   H10845980   6.573   6.670   0.015 -1.4114 -0.2669 -1.7216
  377MOL   H10945981   6.350   6.765   7.978 -0.3225  1.4136 -0.0285
  377MOL   C11045982   6.477   6.815   7.808  0.0132 -0.7640  1.1385
  377MOL   C11145983   6.477   6.668   7.754  0.1738 -0.0516 -0.0268
  377MOL   F11245984   6.352   6.633   7.752 -0.0486  0.4263 -0.3163
  377MOL   H11345985   6.408   6.871   7.746 -0.0436 -0.5993  1.3494
  377MOL   H11445986   6.579   6.851   7.793 -0.1218 -0.8733 -0.0685
  377MOL   H11545987   6.544   6.609   7.817  1.0821 -1.4627 -2.2480
  377MOL   C11645988   6.533   6.642   7.607  0.0523 -0.2443 -0.1851
  377MOL   C11745989   6.666   6.725   7.582 -0.2887  0.0784  0.0095
  377MOL   F11845990   6.700   6.712   7.456  0.0136  0.4442  0.2199
  377MOL   H11945991   6.552   6.539   7.577 -0.2159 -0.6883  1.1216
  377MOL   H12045992   6.462   6.683   7.536  0.0182 -0.8166 -0.4801
  377MOL   H12145993   6.748   6.673   7.632  0.0874  0.9834  0.3414
  377MOL   H12245994   6.665   6.830   7.612 -1.4640 -0.6350  2.6184
  378MOL     C145995   1.891   1.554   7.176 -0.0869  0.1019 -0.1974
  378MOL     C245996   1.790   1.572   7.294  0.2245 -0.4942 -0.5923
  378MOL     F345997   1.803   1.475   7.381 -0.2943 -0.3837  0.2232
  378MOL     H445998   1.893   1.645   7.116  0.5409 -0.1530 -0.5583
  378MOL     H545999   1.842   1.475   7.119  0.4339  0.2438 -0.8474
  378MOL     H646000   1.692   1.566   7.246  0.6013  0.2693 -1.4882
  378MOL     H746001   1.993   1.523   7.196 -0.2741  0.2153  0.9813
  378MOL     C846002   1.811   1.707   7.370  0.0112 -1.0011  0.7548
  378MOL     C946003   1.724   1.817   7.310  0.7290  0.1450 -0.1200
  378MOL    F1046004   1.618   1.829   7.391  0.0654 -0.3035  0.7449
  378MOL    H1146005   1.784   1.689   7.474 -1.5884  0.1210  0.5577
  378MOL    H1246006   1.917   1.725   7.380  0.1265  0.7324 -2.7822
  378MOL    H1346007   1.689   1.785   7.212  1.1988 -2.2986  0.4817
  378MOL    C1446008   1.803   1.940   7.289  0.7282  0.1223 -0.1259
  378MOL    C1546009   1.735   2.036   7.200  0.2026 -1.0874  0.3981
  378MOL    F1646010   1.787   2.158   7.205 -0.2372 -0.2469 -0.3666
  378MOL    H1746011   1.832   1.984   7.385 -0.6562  0.1491  0.2992
  378MOL    H1846012   1.898   1.913   7.243  1.2128  0.1271  0.8595
  378MOL    H1946013   1.629   2.046   7.226 -0.2298 -1.1000 -1.2815
  378MOL    C2046014   1.733   2.004   7.052  0.3380 -0.0984  0.2314
  378MOL    C2146015   1.867   1.980   6.982 -0.0925 -0.6093 -0.7615
  378MOL    F2246016   1.894   1.854   6.987  0.5117  0.7480 -0.4579
  378MOL    H2346017   1.658   1.929   7.028 -0.5801  1.5838 -2.4534
  378MOL    H2446018   1.688   2.082   6.989  0.7426  0.7535  0.9790
  378MOL    H2546019   1.948   2.031   7.034  0.7450  0.2075 -2.8507
  378MOL    C2646020   1.889   2.025   6.834 -0.3571 -0.6042 -0.1454
  378MOL    C2746021   1.916   2.173   6.812 -0.0537 -0.8399  0.1730
  378MOL    F2846022   2.018   2.203   6.891 -1.0135  0.1700 -0.1801
  378MOL    H2946023   1.981   1.978   6.800 -0.8556 -0.7850 -1.2552
  378MOL    H3046024   1.800   1.999   6.776  0.8630  1.4804 -3.0307
  378MOL    H3146025   1.832   2.234   6.845  0.4711 -0.4239  0.7537
  378MOL    C3246026   1.948   2.215   6.664  0.3826 -0.1714  0.0329
  378MOL    C3346027   1.911   2.363   6.630  1.0749 -0.8010  0.4045
  378MOL    F3446028   1.965   2.439   6.724 -0.2509 -0.4465 -0.2391
  378MOL    H3546029   2.053   2.189   6.650  0.2214 -0.7253 -0.1773
  378MOL    H3646030   1.890   2.164   6.587 -0.0266 -1.9794  1.5040
  378MOL    H3746031   1.802   2.371   6.639  0.8334 -2.5100 -0.7182
  378MOL    C3846032   1.975   2.402   6.497  0.1224 -0.5030 -0.0177
  378MOL    C3946033   1.915   2.532   6.434  0.0022  0.1659  0.7525
  378MOL    F4046034   1.954   2.642   6.505 -0.4315 -0.1758 -0.1830
  378MOL    H4146035   2.079   2.427   6.516 -0.2109  1.6197 -0.8867
  378MOL    H4246036   1.973   2.317   6.430 -0.3289  0.3444 -1.0926
  378MOL    H4346037   1.806   2.532   6.444  0.0571  0.3067  1.4373
  378MOL    C4446038   1.957   2.548   6.288 -0.8570  0.0923 -0.1863
  378MOL    C4546039   2.107   2.565   6.275 -0.3961  0.3775 -0.0925
  378MOL    F4646040   2.159   2.441   6.261  0.0578 -0.0794 -0.2281
  378MOL    H4746041   1.917   2.463   6.233  0.3042 -1.2409  0.9808
  378MOL    H4846042   1.900   2.628   6.241 -0.0499 -0.0236 -1.3851
  378MOL    H4946043   2.156   2.608   6.362 -1.8177  0.4791  0.6733
  378MOL    C5046044   2.161   2.651   6.153 -0.4066  0.5603 -0.3705
  378MOL    C5146045   2.317   2.647   6.134  0.2346 -0.5851 -0.5884
  378MOL    F5246046   2.330   2.716   6.022  0.4020 -0.1353 -0.6227
  378MOL    H5346047   2.117   2.613   6.061 -0.7858  0.3680 -0.1100
  378MOL    H5446048   2.130   2.754   6.173 -0.2596  0.4796  0.2962
  378MOL    H5546049   2.347   2.546   6.105 -3.2897 -1.5285 -1.1952
  378MOL    C5646050   2.419   2.698   6.237 -0.5191  0.1370 -1.2470
  378MOL    C5746051   2.410   2.847   6.282 -0.0755 -0.3229 -1.0970
  378MOL    F5846052   2.334   2.861   6.394 -0.1822  0.2671  0.4226
  378MOL    H5946053   2.407   2.633   6.324 -4.0840 -0.0430 -1.7967
  378MOL    H6046054   2.524   2.673   6.216  0.1268  0.4310  1.4880
  378MOL    H6146055   2.365   2.915   6.210  0.8863 -1.5661 -2.9058
  378MOL    C6246056   2.545   2.911   6.313 -1.4667  0.3961  0.2825
  378MOL    C6346057   2.542   3.066   6.361 -0.3135 -0.4864 -0.3325
  378MOL    F6446058   2.662   3.114   6.398 -0.3570 -0.2376  0.2958
  378MOL    H6546059   2.596   2.857   6.393 -1.5878  2.3542  1.7250
  378MOL    H6646060   2.610   2.904   6.226  0.9597  0.8945  2.0054
  378MOL    H6746061   2.469   3.075   6.441 -0.2302 -1.6224 -0.1204
  378MOL    C6846062   2.481   3.163   6.264 -0.2671  0.2992  0.2094
  378MOL    C6946063   2.544   3.173   6.128 -0.4722 -0.1832  0.2923
  378MOL    F7046064   2.506   3.084   6.043 -0.0061 -0.3641 -0.2146
  378MOL    H7146065   2.375   3.140   6.263  0.1932 -1.8503 -1.4427
  378MOL    H7246066   2.493   3.255   6.322  0.9952  0.1201  0.2481
  378MOL    H7346067   2.652   3.162   6.139 -0.3966 -2.4762 -2.3981
  378MOL    C7446068   2.510   3.311   6.068  0.1225  0.5346  0.4481
  378MOL    C7546069   2.585   3.339   5.929 -0.4199  0.9278 -0.3725
  378MOL    F7646070   2.554   3.249   5.839  0.2392  0.5674  0.6694
  378MOL    H7746071   2.401   3.318   6.072  0.2895  3.3291  1.1249
  378MOL    H7846072   2.554   3.390   6.129 -0.0101  1.9503 -1.2567
  378MOL    H7946073   2.692   3.332   5.946 -0.4335  2.4871  0.4588
  378MOL    C8046074   2.566   3.479   5.877 -0.2144 -0.9323  0.7584
  378MOL    C8146075   2.650   3.522   5.752  0.5903  0.0354 -0.3784
  378MOL    F8246076   2.765   3.574   5.791 -0.0584  0.1264  0.0391
  378MOL    H8346077   2.460   3.490   5.858 -0.1143 -1.7347 -0.3550
  378MOL    H8446078   2.586   3.552   5.956  2.7433 -2.0845  1.1709
  378MOL    H8546079   2.603   3.601   5.694  1.5868  0.3997 -0.7046
  378MOL    C8646080   2.679   3.410   5.654  0.4849 -0.0048  0.4296
  378MOL    C8746081   2.744   3.446   5.520  0.1103 -0.5010  0.0182
  378MOL    F8846082   2.781   3.326   5.471  0.2612 -0.6009  0.3048
  378MOL    H8946083   2.739   3.331   5.698  1.3045  0.9328  1.0376
  378MOL    H9046084   2.582   3.370   5.626  1.1099 -0.9429 -0.4340
  378MOL    H9146085   2.832   3.509   5.527  0.0414 -0.4593  0.5007
  378MOL    C9246086   2.647   3.515   5.417  0.3032  0.4931  0.5869
  378MOL    C9346087   2.542   3.424   5.345  0.4068 -0.0236 -0.3404
  378MOL    F9446088   2.451   3.402   5.439  0.4830  0.3441 -0.0087
  378MOL    H9546089   2.604   3.604   5.464 -0.1645  0.9698 -0.7454
  378MOL    H9646090   2.714   3.563   5.346 -1.9297  0.1566 -1.8282
  378MOL    H9746091   2.584   3.328   5.317 -0.4987 -0.4237 -0.3563
  378MOL    C9846092   2.494   3.497   5.215 -0.5251  0.2720  0.6053
  378MOL    C9946093   2.378   3.426   5.137 -0.5681 -0.6440 -0.0030
  378MOL   F10046094   2.334   3.514   5.051  0.1679  0.3096 -0.2656
  378MOL   H10146095   2.452   3.586   5.261 -1.4441 -1.1013  2.5318
  378MOL   H10246096   2.576   3.518   5.146 -0.9462 -0.4798 -0.1273
  378MOL   H10346097   2.298   3.400   5.206  0.8256 -0.4675  1.7358
  378MOL   C10446098   2.428   3.295   5.066  0.3982  0.3540  0.5978
  378MOL   C10546099   2.313   3.209   5.006  0.3419 -0.3384 -0.1349
  378MOL   F10646100   2.358   3.101   4.946  0.1828 -0.0645  0.2192
  378MOL   H10746101   2.480   3.334   4.978  0.2559 -0.3758  0.1846
  378MOL   H10846102   2.505   3.242   5.122  1.3825 -0.0923 -1.1432
  378MOL   H10946103   2.266   3.264   4.925 -3.6006 -2.5138  0.5570
  378MOL   C11046104   2.213   3.158   5.115  0.0152 -0.5291  0.2204
  378MOL   C11146105   2.106   3.057   5.067  0.3264 -0.1179  0.7321
  378MOL   F11246106   2.170   2.939   5.080  0.7904  0.3175 -0.4702
  378MOL   H11346107   2.273   3.129   5.201  0.3638 -3.0150 -0.7892
  378MOL   H11446108   2.161   3.246   5.150 -3.2656 -1.5726 -1.7798
  378MOL   H11546109   2.077   3.057   4.962  1.9874 -1.1360  0.2580
  378MOL   C11646110   1.979   3.051   5.154 -0.1045 -0.2826  0.0899
  378MOL   C11746111   1.999   3.030   5.302  0.0764 -0.4043 -0.4038
  378MOL   F11846112   2.065   3.128   5.362 -0.1847 -0.2767  0.2787
  378MOL   H11946113   1.928   3.146   5.143 -2.7121 -1.4037  1.8389
  378MOL   H12046114   1.907   2.977   5.119  1.4459 -1.5014 -0.6046
  378MOL   H12146115   2.058   2.941   5.325 -0.5317 -1.1290 -1.5749
  378MOL   H12246116   1.904   3.029   5.355  1.3145  0.2025  1.8938
  379MOL     C146117   0.317   3.102   4.550  0.3199  0.2210 -0.4723
  379MOL     C246118   0.270   3.236   4.606 -0.6037 -0.3196  0.7550
  379MOL     F346119   0.167   3.282   4.530 -0.1865  0.0090 -0.1963
  379MOL     H446120   0.230   3.036   4.561  0.6083  0.0786  1.0747
  379MOL     H546121   0.396   3.066   4.615 -1.4413 -0.5377  1.3232
  379MOL     H646122   0.352   3.307   4.592 -0.5450 -0.0928  2.2049
  379MOL     H746123   0.349   3.109   4.446  0.6296 -1.1197 -0.4729
  379MOL     C846124   0.218   3.220   4.749  0.2287  0.0420 -0.6235
  379MOL     C946125   0.174   3.357   4.805  0.0056  0.5186  0.0071
  379MOL    F1046126   0.075   3.349   4.895 -0.0042 -0.0390 -0.1550
  379MOL    H1146127   0.130   3.157   4.744 -0.6419  1.0501  1.6192
  379MOL    H1246128   0.278   3.162   4.819 -2.6212 -1.5568  0.5450
  379MOL    H1346129   0.121   3.399   4.720 -0.4586 -0.9086 -0.4247
  379MOL    C1446130   0.281   3.452   4.858 -0.6717 -0.3009  0.1160
  379MOL    C1546131   0.233   3.592   4.902 -0.1842 -0.1890  0.4320
  379MOL    F1646132   0.329   3.651   4.970  0.1710 -0.0557 -0.1117
  379MOL    H1746133   0.316   3.415   4.954  0.6670  1.1807  0.2236
  379MOL    H1846134   0.376   3.452   4.804 -0.2498 -0.1125  0.8542
  379MOL    H1946135   0.143   3.587   4.963  0.0757  0.0395  0.8455
  379MOL    C2046136   0.219   3.686   4.779 -0.0210  0.0764 -0.4121
  379MOL    C2146137   0.149   3.818   4.813  0.0379 -0.2433 -0.2575
  379MOL    F2246138   0.171   3.911   4.716 -0.2256  0.1346 -0.0335
  379MOL    H2346139   0.314   3.704   4.729 -0.8165 -1.1842 -2.4643
  379MOL    H2446140   0.165   3.625   4.706  0.8367 -3.0375  1.4746
  379MOL    H2546141   0.198   3.863   4.900 -0.9166  0.6100 -0.1492
  379MOL    C2646142   7.996   3.814   4.851 -0.1467 -0.3342 -0.3025
  379MOL    C2746143   7.928   3.942   4.885  0.4166 -0.3515 -0.4382
  379MOL    F2846144   7.937   4.007   4.770  0.4998 -0.1171  0.1038
  379MOL    H2946145   7.932   3.770   4.775  1.0356 -0.7692 -1.0563
  379MOL    H3046146   7.996   3.749   4.938 -0.1299 -0.6681 -0.5518
  379MOL    H3146147   7.988   3.997   4.956 -1.6922  1.7072 -0.1727
  379MOL    C3246148   7.777   3.928   4.929 -0.9301  0.9977 -0.2400
  379MOL    C3346149   7.719   4.047   4.996  0.3330 -0.0977  0.1183
  379MOL    F3446150   7.703   4.133   4.895 -0.5638 -0.5325  0.2980
  379MOL    H3546151   7.718   3.885   4.847 -1.5258  0.2642  0.5606
  379MOL    H3646152   7.775   3.855   5.011 -3.1012  0.3459 -0.8428
  379MOL    H3746153   7.792   4.090   5.066 -0.3755  0.0215  0.7905
  379MOL    C3846154   7.580   4.028   5.055  0.5199 -0.0465  0.3635
  379MOL    C3946155   7.567   4.008   5.207 -0.5930 -0.3008 -0.2774
  379MOL    F4046156   7.604   4.132   5.248  0.0739  0.2326  0.1672
  379MOL    H4146157   7.506   4.102   5.024  1.2318  0.5677  0.1325
  379MOL    H4246158   7.538   3.934   5.021  0.1180 -0.6694  2.4870
  379MOL    H4346159   7.645   3.939   5.240  0.1561  0.2896 -0.7875
  379MOL    C4446160   7.432   3.977   5.265  0.3298  0.0252  0.2210
  379MOL    C4546161   7.429   3.958   5.413 -0.2377  0.5206  0.3099
  379MOL    F4646162   7.462   4.076   5.464  0.7017  0.5240 -0.4407
  379MOL    H4746163   7.364   4.061   5.245 -0.1396  0.4788  3.4682
  379MOL    H4846164   7.384   3.889   5.223  0.7901 -0.9511  1.7280
  379MOL    H4946165   7.503   3.880   5.433 -0.3107  0.4440  0.2809
  379MOL    C5046166   7.284   3.924   5.463 -0.0646  0.0048 -0.9529
  379MOL    C5146167   7.273   3.871   5.609 -0.0513  0.2572 -0.3248
  379MOL    F5246168   7.358   3.929   5.694  0.0701  0.3362  0.1116
  379MOL    H5346169   7.225   4.016   5.462  1.0629  0.7830  1.2936
  379MOL    H5446170   7.248   3.847   5.395 -0.7098 -1.1352  0.6845
  379MOL    H5546171   7.301   3.766   5.610 -1.2070 -0.1231  3.8683
  379MOL    C5646172   7.132   3.894   5.676  0.4752  0.5039 -0.6060
  379MOL    C5746173   7.020   3.848   5.588  0.4727 -0.1606 -0.2640
  379MOL    F5846174   7.037   3.719   5.573  0.1850 -0.0514  0.0266
  379MOL    H5946175   7.124   3.852   5.777 -0.3508  0.9342 -0.4881
  379MOL    H6046176   7.119   4.001   5.692  0.2317  0.4688 -0.5715
  379MOL    H6146177   7.039   3.870   5.483  1.8913  0.2770  0.0743
  379MOL    C6246178   6.879   3.889   5.631  0.2306  0.2882  0.0611
  379MOL    C6346179   6.849   4.043   5.628  0.1080  0.5590 -0.2688
  379MOL    F6446180   6.876   4.098   5.515 -0.1962  0.7970 -0.1066
  379MOL    H6546181   6.807   3.842   5.564 -1.7853 -1.1409  3.1422
  379MOL    H6646182   6.861   3.836   5.725 -0.4508 -0.0901 -0.2765
  379MOL    H6746183   6.913   4.081   5.707  1.8077 -1.7413 -0.4961
  379MOL    C6846184   6.703   4.079   5.659  0.0171  0.9690 -0.5141
  379MOL    C6946185   6.672   4.230   5.656 -0.1913 -0.0358 -0.2393
  379MOL    F7046186   6.546   4.248   5.696 -0.3530 -0.0292  0.2373
  379MOL    H7146187   6.644   4.027   5.583 -0.9277 -0.5823  1.2254
  379MOL    H7246188   6.676   4.036   5.756 -0.4572 -1.1529 -1.5644
  379MOL    H7346189   6.684   4.259   5.552  0.6252 -1.5758 -0.5984
  379MOL    C7446190   6.765   4.306   5.750 -0.3412 -0.5010  0.0241
  379MOL    C7546191   6.728   4.455   5.751  1.2410  0.8598  0.0790
  379MOL    F7646192   6.836   4.496   5.824 -0.6875  0.5751  0.1546
  379MOL    H7746193   6.751   4.262   5.849  0.2910  0.3346  0.4901
  379MOL    H7846194   6.868   4.289   5.722 -0.4725 -0.1268 -0.6736
  379MOL    H7946195   6.641   4.489   5.807  0.8457  1.1034 -0.6794
  379MOL    C8046196   6.729   4.523   5.616  0.1105  0.0014  0.0710
  379MOL    C8146197   6.595   4.538   5.542  0.0014 -0.0921 -0.8593
  379MOL    F8246198   6.517   4.618   5.612  0.5851  0.3058  0.0090
  379MOL    H8346199   6.767   4.625   5.618  2.6136 -0.8335 -1.7255
  379MOL    H8446200   6.796   4.477   5.543  0.1005  0.7648 -0.4332
  379MOL    H8546201   6.540   4.443   5.548 -1.3174  0.7532  1.0877
  379MOL    C8646202   6.600   4.597   5.403  0.5002 -0.0537  1.1016
  379MOL    C8746203   6.477   4.579   5.320  0.4927  0.4730  0.1091
  379MOL    F8846204   6.372   4.628   5.391 -0.2320 -0.0438  0.1974
  379MOL    H8946205   6.630   4.702   5.402  0.0722  0.0910 -3.2239
  379MOL    H9046206   6.680   4.554   5.343 -0.6802  0.4000 -0.8130
  379MOL    H9146207   6.448   4.474   5.312  0.7521  0.5277 -1.6645
  379MOL    C9246208   6.481   4.645   5.183 -0.3416 -0.6048 -0.7077
  379MOL    C9346209   6.346   4.664   5.117  0.4001  0.0385 -0.6934
  379MOL    F9446210   6.278   4.761   5.177  0.2650  0.2353 -0.4112
  379MOL    H9546211   6.531   4.741   5.172  0.9331 -1.3185 -1.2641
  379MOL    H9646212   6.549   4.581   5.126 -1.8463 -3.3591  0.4753
  379MOL    H9746213   6.280   4.578   5.117  0.4504 -0.0070 -1.3758
  379MOL    C9846214   6.371   4.697   4.969  0.2124 -0.3422  0.2629
  379MOL    C9946215   6.238   4.705   4.882 -0.4480 -0.8396 -0.5700
  379MOL   F10046216   6.159   4.804   4.928  0.3212  0.0299 -0.7582
  379MOL   H10146217   6.430   4.787   4.952 -0.3431  0.3675  1.9703
  379MOL   H10246218   6.435   4.619   4.927 -1.8045  0.3681 -4.5099
  379MOL   H10346219   6.188   4.609   4.894  0.5681 -1.5322 -1.7099
  379MOL   C10446220   6.268   4.739   4.737 -0.5853 -0.1115 -0.6415
  379MOL   C10546221   6.155   4.786   4.654  0.0162  0.0476  1.0747
  379MOL   F10646222   6.205   4.838   4.539  0.0257  0.3134 -1.3375
  379MOL   H10746223   6.341   4.821   4.739 -1.5801  0.7419  0.9230
  379MOL   H10846224   6.319   4.651   4.698 -0.7919 -0.3771 -0.3078
  379MOL   H10946225   6.115   4.874   4.704 -0.7339  0.8184 -0.8295
  379MOL   C11046226   6.048   4.676   4.612  0.0705 -0.3287  0.0901
  379MOL   C11146227   6.092   4.588   4.493  0.9946 -0.4206 -0.4710
  379MOL   F11246228   6.178   4.507   4.541  0.2562 -0.0143  0.4635
  379MOL   H11346229   6.006   4.621   4.695  0.1585 -0.8793 -0.2261
  379MOL   H11446230   5.969   4.743   4.578  0.0781 -0.9519 -1.1875
  379MOL   H11546231   6.153   4.645   4.422 -1.4951  2.5249 -0.3325
  379MOL   C11646232   5.981   4.513   4.419 -0.6904 -0.9642 -0.1528
  379MOL   C11746233   6.036   4.422   4.305  0.2198 -0.7710  0.5621
  379MOL   F11846234   5.931   4.343   4.271  0.4153 -0.1360 -0.1911
  379MOL   H11946235   5.923   4.460   4.494 -1.5902  1.0467  0.5989
  379MOL   H12046236   5.915   4.593   4.384  0.5630  1.2826  2.4635
  379MOL   H12146237   6.122   4.367   4.344 -0.1576 -2.0665 -0.4252
  379MOL   H12246238   6.063   4.482   4.218 -1.9987 -1.6131 -0.7448
  380MOL     C146239   7.098   4.827   3.266  0.0276  0.0973  0.2290
  380MOL     C246240   7.095   4.827   3.114  0.4910  0.4626 -0.0190
  380MOL     F346241   7.057   4.703   3.080 -0.4347 -0.2137  0.0154
  380MOL     H446242   6.996   4.808   3.298  0.4714  0.7036  2.0632
  380MOL     H546243   7.134   4.924   3.300  1.4114 -0.6641  0.9992
  380MOL     H646244   7.191   4.833   3.064  1.4056 -1.4421  1.4347
  380MOL     H746245   7.171   4.750   3.293  0.3002 -0.4931 -2.1232
  380MOL     C846246   6.991   4.920   3.059  0.0432 -0.2815  0.2325
  380MOL     C946247   6.960   4.908   2.904 -0.1706  0.0262 -0.4003
  380MOL    F1046248   7.080   4.895   2.843  0.2963  0.3435 -0.0434
  380MOL    H1146249   6.901   4.896   3.115 -1.1904  1.2679 -1.0431
  380MOL    H1246250   7.020   5.019   3.095  0.8921  1.0801 -3.9268
  380MOL    H1346251   6.917   5.005   2.877  0.1927  0.5309  0.7881
  380MOL    C1446252   6.868   4.790   2.877 -0.1280  0.3829 -0.0589
  380MOL    C1546253   6.767   4.803   2.759 -1.0051 -0.4130 -0.1941
  380MOL    F1646254   6.838   4.861   2.662 -0.3638 -0.0613 -0.0055
  380MOL    H1746255   6.931   4.703   2.860 -1.5684 -0.7602  0.2839
  380MOL    H1846256   6.807   4.761   2.963  1.1760 -0.7631  0.4916
  380MOL    H1946257   6.693   4.877   2.789  0.1406  0.2144  1.1232
  380MOL    C2046258   6.699   4.668   2.726  0.0100  0.3210 -0.4018
  380MOL    C2146259   6.566   4.682   2.650  0.5498  0.0102 -0.5925
  380MOL    F2246260   6.485   4.736   2.743  0.6434 -0.2874  0.3877
  380MOL    H2346261   6.769   4.612   2.665  1.0544 -0.8646  1.7997
  380MOL    H2446262   6.676   4.617   2.820  0.0281  1.2291  0.1053
  380MOL    H2546263   6.519   4.587   2.629 -0.8643  1.4735 -4.6131
  380MOL    C2646264   6.564   4.763   2.523  0.1554 -1.0958  0.5021
  380MOL    C2746265   6.612   4.685   2.400  0.4463  0.0127 -0.1577
  380MOL    F2846266   6.531   4.580   2.386 -0.1438  0.2096 -0.3638
  380MOL    H2946267   6.468   4.812   2.507  1.3833  2.3500  3.0560
  380MOL    H3046268   6.636   4.845   2.529  1.2307 -1.6627 -3.1895
  380MOL    H3146269   6.711   4.645   2.423 -0.0889 -1.0410  0.3505
  380MOL    C3246270   6.617   4.774   2.275 -0.7141  0.3077  0.1094
  380MOL    C3346271   6.684   4.717   2.156  0.1299  0.4661  0.8612
  380MOL    F3446272   6.815   4.709   2.184  0.3819 -0.3005  0.0912
  380MOL    H3546273   6.512   4.799   2.257 -1.1707 -0.8189  1.1154
  380MOL    H3646274   6.654   4.873   2.302 -2.0698  0.8764 -0.0532
  380MOL    H3746275   6.678   4.793   2.078 -1.7805 -0.4599  0.0815
  380MOL    C3846276   6.635   4.584   2.101  0.2693 -0.4019 -0.6374
  380MOL    C3946277   6.697   4.563   1.963  0.2554  0.3542  0.0763
  380MOL    F4046278   6.822   4.538   1.993 -0.2356 -0.1030 -0.7279
  380MOL    H4146279   6.664   4.500   2.164 -0.0857 -0.6948 -0.8656
  380MOL    H4246280   6.526   4.588   2.101  0.2976  0.6950 -0.1306
  380MOL    H4346281   6.685   4.652   1.902  2.2921  1.1417  0.7638
  380MOL    C4446282   6.648   4.441   1.878  0.0156 -0.4839 -0.9632
  380MOL    C4546283   6.752   4.414   1.756  0.7456 -0.1488  0.1525
  380MOL    F4646284   6.746   4.287   1.721 -0.3012  0.4675 -0.5174
  380MOL    H4746285   6.653   4.355   1.944 -0.1054 -0.4843 -0.9530
  380MOL    H4846286   6.549   4.475   1.845 -0.3752  1.3047  1.9109
  380MOL    H4946287   6.853   4.433   1.792 -0.3590  1.3433  2.6019
  380MOL    C5046288   6.734   4.504   1.635  0.6550  0.5924 -0.3501
  380MOL    C5146289   6.824   4.478   1.515  0.0732  0.3008 -0.0332
  380MOL    F5246290   6.780   4.537   1.412 -0.3199  0.0631 -0.1379
  380MOL    H5346291   6.627   4.485   1.619  0.5812 -0.2747  1.0733
  380MOL    H5446292   6.750   4.605   1.671  1.0796  0.7941 -1.1140
  380MOL    H5546293   6.819   4.372   1.488 -0.4661  0.1428  0.6479
  380MOL    C5646294   6.968   4.523   1.535  1.0136 -0.3528  0.0903
  380MOL    C5746295   7.068   4.408   1.565 -0.0408 -0.0296 -1.1795
  380MOL    F5846296   7.107   4.341   1.456  0.5414  0.7403  0.3018
  380MOL    H5946297   6.989   4.591   1.453 -0.0503  1.1566  1.0629
  380MOL    H6046298   6.983   4.585   1.623 -2.4285  1.0725 -0.2784
  380MOL    H6146299   7.014   4.338   1.628 -0.0838 -1.4515 -2.7671
  380MOL    C6246300   7.189   4.449   1.647 -0.5290  0.0435  0.0625
  380MOL    C6346301   7.274   4.568   1.599 -0.2921  0.6674  0.0062
  380MOL    F6446302   7.364   4.585   1.691 -0.5006 -0.0400 -0.6291
  380MOL    H6546303   7.160   4.466   1.750  1.8401 -2.0815  1.1252
  380MOL    H6646304   7.252   4.361   1.660 -2.2126 -1.0447  0.9688
  380MOL    H6746305   7.212   4.658   1.595 -1.6390 -0.1142  2.4131
  380MOL    C6846306   7.331   4.546   1.453  0.0037  0.1002 -0.3088
  380MOL    C6946307   7.454   4.632   1.409 -0.4569 -0.3118 -0.7589
  380MOL    F7046308   7.520   4.561   1.314 -0.2983  0.0686  0.1605
  380MOL    H7146309   7.362   4.444   1.434  3.6999  1.0643  0.2119
  380MOL    H7246310   7.249   4.565   1.383  1.3752  0.5354 -1.8289
  380MOL    H7346311   7.522   4.642   1.494 -1.3532  0.0506 -0.0783
  380MOL    C7446312   7.412   4.767   1.344 -0.1307 -0.2704 -0.1017
  380MOL    C7546313   7.359   4.874   1.441 -0.4323  0.1839  0.7339
  380MOL    F7646314   7.432   4.870   1.557  0.0411  0.0988 -0.2211
  380MOL    H7746315   7.502   4.815   1.306  1.0301 -1.5337  0.9824
  380MOL    H7846316   7.346   4.749   1.259 -0.7721 -0.3259  0.3923
  380MOL    H7946317   7.251   4.859   1.451 -0.7163  0.6732 -1.3407
  380MOL    C8046318   7.370   5.015   1.379 -0.5949  0.4650  0.0135
  380MOL    C8146319   7.292   5.120   1.453  0.0505 -0.8250  0.0801
  380MOL    F8246320   7.336   5.124   1.582 -0.3782  0.3963  0.2003
  380MOL    H8346321   7.476   5.040   1.377 -0.4807  0.0085  0.2286
  380MOL    H8446322   7.344   4.993   1.275  2.0343  0.7220 -0.7472
  380MOL    H8546323   7.188   5.090   1.465  0.8486 -3.3690  0.9478
  380MOL    C8646324   7.285   5.266   1.386  0.1275  1.0081 -0.8179
  380MOL    C8746325   7.206   5.379   1.458  0.1275 -0.3849  0.2833
  380MOL    F8846326   7.245   5.397   1.585  0.0694 -0.1045  0.5156
  380MOL    H8946327   7.386   5.295   1.357  0.5707 -0.7498 -1.1174
  380MOL    H9046328   7.235   5.262   1.289 -2.2648  0.0250  0.4270
  380MOL    H9146329   7.103   5.345   1.467 -0.5894  1.5743 -0.2286
  380MOL    C9246330   7.222   5.509   1.372 -0.6376  0.3801 -0.2414
  380MOL    C9346331   7.138   5.628   1.425  0.1362 -0.0356  0.1698
  380MOL    F9446332   7.194   5.669   1.536 -0.0105 -0.0552  0.2347
  380MOL    H9546333   7.327   5.537   1.360 -0.0959 -1.4726  0.0463
  380MOL    H9646334   7.187   5.483   1.272 -2.7118  1.2476  0.2500
  380MOL    H9746335   7.039   5.597   1.456 -0.0126  0.5059  0.2524
  380MOL    C9846336   7.122   5.748   1.329  0.0080  0.7640  0.1587
  380MOL    C9946337   7.087   5.873   1.396 -0.6414  0.4613 -0.2435
  380MOL   F10046338   7.086   5.970   1.306 -0.4109 -0.6073  0.3075
  380MOL   H10146339   7.213   5.767   1.274  0.1905 -3.6418 -1.3083
  380MOL   H10246340   7.046   5.721   1.255 -0.6618  2.0467  0.3694
  380MOL   H10346341   7.159   5.905   1.471  1.2108 -0.4611 -1.5672
  380MOL   C10446342   6.946   5.864   1.456  0.1083  0.4175 -0.3642
  380MOL   C10546343   6.886   5.992   1.508  0.1049 -0.3135 -0.0175
  380MOL   F10646344   6.765   5.953   1.536 -0.1570  0.5358  0.5916
  380MOL   H10746345   6.880   5.830   1.376  2.0004  0.2233 -1.9003
  380MOL   H10846346   6.945   5.801   1.545 -1.8595 -0.4309 -0.9749
  380MOL   H10946347   6.869   6.059   1.424 -0.0281 -0.6628 -0.2748
  380MOL   C11046348   6.959   6.069   1.618  0.2056  0.0969  0.5059
  380MOL   C11146349   6.890   6.201   1.661  0.4064 -0.6856  0.2945
  380MOL   F11246350   6.951   6.252   1.764 -0.0356  0.2456 -0.0976
  380MOL   H11346351   6.964   6.007   1.708 -0.3166  1.5408  1.5417
  380MOL   H11446352   7.062   6.089   1.591 -0.2835  0.6587 -1.0179
  380MOL   H11546353   6.785   6.182   1.683  0.1085 -0.2631 -0.7374
  380MOL   C11646354   6.902   6.311   1.554  0.7686  0.2120  0.2667
  380MOL   C11746355   6.831   6.455   1.581  0.0259 -0.7563  0.4052
  380MOL   F11846356   6.801   6.508   1.462 -0.4108 -0.4857 -0.0547
  380MOL   H11946357   7.003   6.327   1.514  0.3364 -2.3182 -1.9920
  380MOL   H12046358   6.849   6.270   1.468 -0.0678 -0.2815  1.0137
  380MOL   H12146359   6.909   6.516   1.626  1.6794 -2.0370 -0.6351
  380MOL   H12246360   6.739   6.454   1.639 -0.3867 -1.1667 -0.2507
  381MOL     C146361   6.470   5.353   6.312  0.6540  0.7006  0.2655
  381MOL     C246362   6.342   5.266   6.294 -0.8011  0.6349 -0.0420
  381MOL     F346363   6.233   5.334   6.325  0.1236  0.5574 -0.5526
  381MOL     H446364   6.508   5.398   6.221 -0.8744 -0.0567 -0.7697
  381MOL     H546365   6.550   5.292   6.355  0.9891  0.6280 -0.4577
  381MOL     H646366   6.346   5.189   6.371  0.7791  1.5217  0.7932
  381MOL     H746367   6.442   5.425   6.389 -0.8346 -0.5270  0.9069
  381MOL     C846368   6.325   5.210   6.150 -0.5195 -0.1026 -0.8612
  381MOL     C946369   6.444   5.121   6.114  0.3180  0.0920 -0.5623
  381MOL    F1046370   6.451   5.018   6.190 -0.3176  0.4317  0.3909
  381MOL    H1146371   6.226   5.164   6.146 -0.5032 -0.2835  0.5248
  381MOL    H1246372   6.310   5.296   6.085  1.6780  0.5327 -0.5775
  381MOL    H1346373   6.534   5.178   6.136  0.1585  0.1177  0.0127
  381MOL    C1446374   6.448   5.070   5.969 -0.1752 -0.4275  0.1699
  381MOL    C1546375   6.350   4.971   5.927  0.3009  0.1229 -0.3606
  381MOL    F1646376   6.233   5.032   5.916 -0.2563 -0.5512 -1.1099
  381MOL    H1746377   6.450   5.151   5.896  1.2223 -1.4296 -0.9469
  381MOL    H1846378   6.550   5.032   5.956 -0.0243  0.3447 -1.0401
  381MOL    H1946379   6.331   4.899   6.007  1.6362 -0.1705 -0.3040
  381MOL    C2046380   6.388   4.914   5.788 -0.4267  0.3527 -0.0579
  381MOL    C2146381   6.391   5.010   5.665 -0.3394 -0.3020 -0.4216
  381MOL    F2246382   6.513   5.062   5.660  0.3581  0.1533  0.6267
  381MOL    H2346383   6.481   4.857   5.794 -0.5662  0.2798  1.6524
  381MOL    H2446384   6.311   4.837   5.779  0.5394 -0.7089  0.5619
  381MOL    H2546385   6.318   5.091   5.673  0.6121  0.7805 -2.1802
  381MOL    C2646386   6.376   4.945   5.528 -0.1234 -0.3827  0.0531
  381MOL    C2746387   6.339   5.038   5.414 -0.0820  0.0437  0.0973
  381MOL    F2846388   6.223   5.087   5.450  0.1378 -0.1306  0.3740
  381MOL    H2946389   6.470   4.896   5.502  0.0598  0.5570 -1.0758
  381MOL    H3046390   6.302   4.867   5.544 -1.3470  1.2107  2.4407
  381MOL    H3146391   6.315   4.981   5.324  0.4364  0.9065 -0.5922
  381MOL    C3246392   6.439   5.154   5.386 -0.4944 -0.9681 -0.0608
  381MOL    C3346393   6.391   5.247   5.271  0.4805  0.0145 -0.1047
  381MOL    F3446394   6.475   5.351   5.252  0.0455 -0.0752 -0.4536
  381MOL    H3546395   6.452   5.222   5.471 -1.3374  1.2651 -1.6541
  381MOL    H3646396   6.542   5.128   5.364  0.0382 -0.7948  2.0797
  381MOL    H3746397   6.303   5.301   5.306 -0.4796 -1.7547  0.3150
  381MOL    C3846398   6.372   5.194   5.128  0.3036 -0.2272 -0.4391
  381MOL    C3946399   6.494   5.152   5.049  0.0345 -0.4279  0.3151
  381MOL    F4046400   6.545   5.046   5.118 -0.3869 -0.3427 -0.8924
  381MOL    H4146401   6.306   5.107   5.127  1.2435 -0.9397 -1.1421
  381MOL    H4246402   6.318   5.268   5.069  2.8420  1.3568 -0.8466
  381MOL    H4346403   6.566   5.234   5.044  0.0310 -0.3650  1.3050
  381MOL    C4446404   6.466   5.104   4.900 -0.1408  0.1267 -0.7337
  381MOL    C4546405   6.449   5.217   4.800 -0.9597 -0.4717 -0.3784
  381MOL    F4646406   6.560   5.295   4.805 -0.4894 -0.0688  0.4553
  381MOL    H4746407   6.550   5.038   4.875 -0.4755 -0.8726  0.6929
  381MOL    H4846408   6.378   5.040   4.910  0.5082 -0.5739  0.7161
  381MOL    H4946409   6.381   5.290   4.843 -2.6248 -1.4121 -1.3358
  381MOL    C5046410   6.420   5.175   4.654 -0.1529 -0.8966 -0.4528
  381MOL    C5146411   6.545   5.121   4.573  0.3927 -0.9287 -0.3460
  381MOL    F5246412   6.590   5.003   4.623  0.1127 -0.5277 -0.2517
  381MOL    H5346413   6.340   5.101   4.644 -0.5816 -0.2965 -1.5673
  381MOL    H5446414   6.383   5.265   4.605 -0.8477 -0.2219  1.2360
  381MOL    H5546415   6.618   5.199   4.595 -0.8239 -0.0662  0.7638
  381MOL    C5646416   6.505   5.115   4.425 -0.0611 -0.1628  0.3307
  381MOL    C5746417   6.620   5.123   4.328  0.4210  0.2753  0.6205
  381MOL    F5846418   6.688   5.009   4.334 -0.0071 -0.2218  0.2641
  381MOL    H5946419   6.464   5.016   4.408  0.7787 -0.2914 -1.0762
  381MOL    H6046420   6.433   5.194   4.404 -0.2919 -0.2302  0.8730
  381MOL    H6146421   6.681   5.212   4.343 -0.8626  1.1460  0.7366
  381MOL    C6246422   6.570   5.121   4.183  0.8941 -0.6047  0.3014
  381MOL    C6346423   6.543   5.261   4.131  0.6763 -0.6148 -0.1239
  381MOL    F6446424   6.660   5.325   4.116 -0.3561 -0.0153  0.3235
  381MOL    H6546425   6.640   5.076   4.112  1.8126 -0.7708  1.2957
  381MOL    H6646426   6.475   5.068   4.180  0.8190 -0.4260 -2.3266
  381MOL    H6746427   6.475   5.319   4.195 -1.5826 -1.1422 -1.9759
  381MOL    C6846428   6.483   5.256   3.987  0.0635 -0.4274 -0.1053
  381MOL    C6946429   6.332   5.213   3.984  0.5787  0.4117  0.3073
  381MOL    F7046430   6.265   5.305   4.054 -0.1212 -0.1051 -0.2616
  381MOL    H7146431   6.497   5.352   3.937  0.8427  0.8835  2.4956
  381MOL    H7246432   6.543   5.187   3.929  0.6829  0.4126 -0.4640
  381MOL    H7346433   6.319   5.117   4.034  0.5329  0.4462  0.3602
  381MOL    C7446434   6.284   5.211   3.836  0.2141  0.2990  0.1649
  381MOL    C7546435   6.140   5.186   3.807  0.3564 -0.0287 -0.0637
  381MOL    F7646436   6.075   5.290   3.859  0.4679 -0.2624 -0.5234
  381MOL    H7746437   6.303   5.301   3.778 -1.4855  0.8400  0.4095
  381MOL    H7846438   6.353   5.145   3.784 -2.1815 -0.1717 -2.5371
  381MOL    H7946439   6.107   5.110   3.878 -2.0718  1.6132  0.5989
  381MOL    C8046440   6.106   5.161   3.661 -0.2696  0.0052 -0.4146
  381MOL    C8146441   5.970   5.082   3.649 -0.0404 -1.3234 -0.0184
  381MOL    F8246442   5.872   5.153   3.700 -0.0504 -0.0824 -0.4570
  381MOL    H8346443   6.107   5.259   3.612 -0.4333  1.0369  1.5908
  381MOL    H8446444   6.190   5.109   3.614  2.1283  0.7001  2.9323
  381MOL    H8546445   5.965   4.990   3.706  0.9910  0.5832  3.2459
  381MOL    C8646446   5.929   5.058   3.498 -0.4637 -0.5142  0.0560
  381MOL    C8746447   6.016   4.955   3.424 -0.6015 -0.2565  0.2061
  381MOL    F8846448   6.030   4.843   3.498 -0.0275 -0.1682 -0.1556
  381MOL    H8946449   5.825   5.027   3.499 -0.8760  0.8320  1.3944
  381MOL    H9046450   5.932   5.152   3.443  0.7255 -0.2429  0.5651
  381MOL    H9146451   6.119   4.992   3.425  0.0495 -2.0072  1.9637
  381MOL    C9246452   5.970   4.930   3.288 -0.1537  0.8788 -0.6432
  381MOL    C9346453   6.077   4.849   3.208  0.1033 -0.1896 -0.3458
  381MOL    F9446454   6.015   4.765   3.124 -0.2053 -0.1472  0.0233
  381MOL    H9546455   5.881   4.869   3.302 -1.3594  1.9428 -3.2631
  381MOL    H9646456   5.945   5.021   3.232 -2.8979  0.7022  0.2034
  381MOL    H9746457   6.135   4.788   3.277 -0.9297  0.8682  1.5027
  381MOL    C9846458   6.178   4.938   3.136 -0.0886  0.4467  0.1043
  381MOL    C9946459   6.284   4.872   3.047  0.4488 -0.1474 -0.1529
  381MOL   F10046460   6.357   4.979   2.996  0.0500  0.7045 -0.5212
  381MOL   H10146461   6.120   5.002   3.070 -2.5000  0.2562  1.9969
  381MOL   H10246462   6.215   5.008   3.211 -2.8146  0.2397  1.7101
  381MOL   H10346463   6.233   4.827   2.962 -1.2526  0.7341  0.3938
  381MOL   C10446464   6.376   4.784   3.136  0.4193  0.4489  0.2681
  381MOL   C10546465   6.497   4.728   3.063  0.6418 -0.1694 -0.4212
  381MOL   F10646466   6.584   4.823   3.029 -0.1031  0.0043 -0.6225
  381MOL   H10746467   6.408   4.823   3.232  0.3618  0.1978  0.3897
  381MOL   H10846468   6.317   4.696   3.162 -0.5857  0.1990 -2.6109
  381MOL   H10946469   6.450   4.687   2.973  0.1469  0.6789 -0.5580
  381MOL   C11046470   6.565   4.612   3.143 -0.6825  0.0570  0.1073
  381MOL   C11146471   6.642   4.658   3.266 -1.0996  0.1858 -0.3735
  381MOL   F11246472   6.543   4.677   3.349  0.1058  0.3041  0.2618
  381MOL   H11346473   6.495   4.536   3.179 -0.6904  1.1195  2.3605
  381MOL   H11446474   6.630   4.562   3.072 -0.1105  0.4508  0.3551
  381MOL   H11546475   6.690   4.751   3.237  0.0397 -0.1153  0.5195
  381MOL   C11646476   6.737   4.561   3.335 -0.5374  0.1564  0.2486
  381MOL   C11746477   6.791   4.636   3.456  0.0091  0.3261  0.0026
  381MOL   F11846478   6.885   4.567   3.521 -0.4173 -0.8168 -0.2653
  381MOL   H11946479   6.680   4.472   3.358  1.2643 -1.7349 -2.2530
  381MOL   H12046480   6.825   4.534   3.276  0.6581 -0.1941  2.1675
  381MOL   H12146481   6.707   4.639   3.526 -1.4421  0.2707 -1.6975
  381MOL   H12246482   6.827   4.738   3.446  2.0462 -0.3065  0.7275
  382MOL     C146483   4.805   2.001   0.535  0.1161 -0.1896 -0.2173
  382MOL     C246484   4.841   2.126   0.625  0.6830  0.5686 -0.4103
  382MOL     F346485   4.967   2.160   0.603  0.3716 -0.7497  0.0127
  382MOL     H446486   4.702   1.988   0.565  0.7647 -0.9840  1.7354
  382MOL     H546487   4.870   1.919   0.566 -0.3384  0.8263  3.6521
  382MOL     H646488   4.839   2.098   0.730  0.8240 -0.3553 -0.6448
  382MOL     H746489   4.816   2.025   0.429 -0.2157  0.1873 -0.1682
  382MOL     C846490   4.749   2.243   0.582 -0.6643  0.5381 -0.4231
  382MOL     C946491   4.766   2.368   0.672  0.3469  0.2441  0.7189
  382MOL    F1046492   4.746   2.320   0.793 -0.3712 -0.1191 -0.1982
  382MOL    H1146493   4.774   2.265   0.479 -0.3832  0.6656 -0.3282
  382MOL    H1246494   4.646   2.211   0.598 -1.0798  3.1675  2.6574
  382MOL    H1346495   4.677   2.430   0.663  0.9769  1.0682  0.1462
  382MOL    C1446496   4.893   2.453   0.665  0.0881  1.0298  0.1532
  382MOL    C1546497   4.923   2.506   0.525  0.1231 -0.1821  0.4850
  382MOL    F1646498   4.838   2.596   0.489 -0.4499 -0.0795  0.5917
  382MOL    H1746499   4.896   2.531   0.741 -1.4146  0.8430  0.4165
  382MOL    H1846500   4.980   2.393   0.692 -0.2026  0.5862  0.1049
  382MOL    H1946501   4.918   2.428   0.450 -0.1760 -0.3277  0.6546
  382MOL    C2046502   5.062   2.566   0.510  0.0107 -0.4878  0.0316
  382MOL    C2146503   5.182   2.479   0.550 -0.0662  0.9827 -1.0559
  382MOL    F2246504   5.182   2.360   0.478 -0.0347  0.0989 -0.1915
  382MOL    H2346505   5.069   2.604   0.407 -0.3768 -0.4966  0.0004
  382MOL    H2446506   5.061   2.659   0.568  0.2832 -0.9803  0.8280
  382MOL    H2546507   5.182   2.447   0.654  3.1349  0.7680 -1.0691
  382MOL    C2646508   5.324   2.540   0.505  0.1896  0.7851  0.1257
  382MOL    C2746509   5.447   2.445   0.515  0.4286 -0.2395  0.1325
  382MOL    F2846510   5.544   2.496   0.442  0.1382  0.4597  0.0147
  382MOL    H2946511   5.312   2.565   0.399 -1.7942 -0.0262  0.1365
  382MOL    H3046512   5.346   2.636   0.551  0.6151  1.2208 -0.9669
  382MOL    H3146513   5.424   2.359   0.453  1.3533 -0.0933 -0.4233
  382MOL    C3246514   5.492   2.421   0.660  0.3203 -0.9521  0.0121
  382MOL    C3346515   5.628   2.348   0.672  0.1349  0.8963 -0.6769
  382MOL    F3446516   5.717   2.442   0.676 -0.2531  0.7481  0.1037
  382MOL    H3546517   5.493   2.512   0.720  1.4009  0.3515 -1.9242
  382MOL    H3646518   5.420   2.346   0.692  0.7389 -1.3509  0.0164
  382MOL    H3746519   5.649   2.281   0.589  0.8608  0.0595  0.1724
  382MOL    C3846520   5.632   2.273   0.809 -0.4231  0.5921 -0.3105
  382MOL    C3946521   5.736   2.153   0.828  1.6081 -0.2937 -0.1082
  382MOL    F4046522   5.726   2.056   0.740  0.0191 -0.0028 -0.4847
  382MOL    H4146523   5.643   2.342   0.893  0.4668 -2.1105  1.8567
  382MOL    H4246524   5.534   2.229   0.829 -0.4301  1.2306  1.2093
  382MOL    H4346525   5.733   2.102   0.924  1.6585  1.0165  0.5981
  382MOL    C4446526   5.882   2.213   0.820  0.2980 -1.3830  0.5610
  382MOL    C4546527   5.926   2.310   0.930 -0.2694  0.1687  0.7361
  382MOL    F4646528   5.898   2.255   1.048 -0.2450 -0.0850 -0.0076
  382MOL    H4746529   5.960   2.137   0.823  1.7775  0.0773 -0.0025
  382MOL    H4846530   5.890   2.275   0.731  1.2274 -1.6161  0.4724
  382MOL    H4946531   5.854   2.391   0.918 -1.3410 -0.7828  0.6682
  382MOL    C5046532   6.068   2.360   0.939  0.6426  0.0696  0.1818
  382MOL    C5146533   6.099   2.453   1.057 -0.5074  0.3645  0.6330
  382MOL    F5246534   6.106   2.376   1.169  0.0946  0.0433 -0.0190
  382MOL    H5346535   6.136   2.275   0.949 -0.1062 -0.7345 -1.3227
  382MOL    H5446536   6.079   2.414   0.845 -5.2533  2.0410  0.4562
  382MOL    H5546537   6.020   2.527   1.055 -1.6622 -0.8744 -0.2705
  382MOL    C5646538   6.234   2.526   1.051  0.8468  0.8252 -0.4635
  382MOL    C5746539   6.236   2.639   0.951 -0.3234 -0.1581 -0.2874
  382MOL    F5846540   6.145   2.720   0.996 -0.0385  0.0497 -0.6126
  382MOL    H5946541   6.260   2.570   1.147 -0.6914  2.2757 -0.6882
  382MOL    H6046542   6.304   2.450   1.018  1.6034  0.7543  1.2624
  382MOL    H6146543   6.203   2.607   0.852 -1.0426  3.0971 -1.1747
  382MOL    C6246544   6.372   2.703   0.942  0.0308  0.3314 -0.0434
  382MOL    C6346545   6.388   2.789   0.817 -0.7029 -0.5482 -0.9459
  382MOL    F6446546   6.333   2.902   0.852 -0.3287  0.2857  0.1528
  382MOL    H6546547   6.387   2.769   1.027 -1.3064 -0.4795  0.8214
  382MOL    H6646548   6.448   2.625   0.950  0.7456  0.7791 -2.0231
  382MOL    H6746549   6.346   2.743   0.728  0.3420  0.3501 -1.9164
  382MOL    C6846550   6.531   2.833   0.781  0.4849 -0.5153 -0.2379
  382MOL    C6946551   6.553   2.894   0.642 -0.1978  0.3013 -0.7206
  382MOL    F7046552   6.655   2.970   0.644 -0.3183  0.1103  0.2598
  382MOL    H7146553   6.556   2.902   0.862 -0.4260 -1.5622  0.9534
  382MOL    H7246554   6.607   2.756   0.787  0.9723 -0.1989 -2.0326
  382MOL    H7346555   6.474   2.963   0.612  0.5616  1.6781  0.3559
  382MOL    C7446556   6.573   2.787   0.535  0.2145  0.2267 -0.6525
  382MOL    C7546557   6.572   2.845   0.387  0.4500 -0.0640 -0.4066
  382MOL    F7646558   6.639   2.754   0.322 -0.6309  0.2587  0.1938
  382MOL    H7746559   6.667   2.733   0.550 -0.2676 -0.2100  0.8443
  382MOL    H7846560   6.484   2.725   0.548  0.5784  0.1164  1.4553
  382MOL    H7946561   6.643   2.928   0.379  0.4891 -0.0111  0.4405
  382MOL    C8046562   6.432   2.868   0.327 -0.1656  0.6230 -0.4434
  382MOL    C8146563   6.435   2.953   0.198 -0.3224  0.0090  0.1272
  382MOL    F8246564   6.470   3.082   0.212  0.5264 -0.0240 -0.4851
  382MOL    H8346565   6.385   2.770   0.317  0.3961  0.0441  2.1609
  382MOL    H8446566   6.370   2.922   0.400 -0.5174  0.8546 -0.9126
  382MOL    H8546567   6.331   2.959   0.164 -0.5335 -2.3321  0.2739
  382MOL    C8646568   6.518   2.888   0.081 -0.6003 -0.3270 -0.0521
  382MOL    C8746569   6.489   2.938   7.936 -0.0088 -0.9671 -0.2638
  382MOL    F8846570   6.535   2.860   7.834 -1.0151 -0.1995 -0.7033
  382MOL    H8946571   6.625   2.885   0.102 -0.8840 -0.3045  1.4662
  382MOL    H9046572   6.491   2.783   0.073  2.3646 -1.1250 -0.3237
  382MOL    H9146573   6.524   3.041   7.929  1.7119 -1.6583 -2.0006
  382MOL    C9246574   6.336   2.935   7.908  0.0737  0.3421  0.6448
  382MOL    C9346575   6.287   2.937   7.762  0.1168 -0.2399 -0.4941
  382MOL    F9446576   6.155   2.940   7.772 -0.1797 -0.0165  0.3366
  382MOL    H9546577   6.296   2.837   7.935 -1.0014  0.6080  0.0264
  382MOL    H9646578   6.283   3.011   7.965  1.4901 -0.1450  2.7066
  382MOL    H9746579   6.318   2.850   7.704  0.5292  0.0918 -0.7773
  382MOL    C9846580   6.331   3.065   7.685  0.0186 -0.0643  0.5311
  382MOL    C9946581   6.274   3.065   7.549 -0.3673 -0.8262 -0.3002
  382MOL   F10046582   6.271   3.196   7.512  0.5866  0.0600 -0.3925
  382MOL   H10146583   6.291   3.153   7.735 -0.4857  0.9661 -1.6098
  382MOL   H10246584   6.439   3.071   7.689  0.4864 -1.2625 -5.0940
  382MOL   H10346585   6.167   3.042   7.551 -0.3005 -1.1908 -0.9126
  382MOL   C10446586   6.334   2.964   7.443  0.4416  0.1044 -0.1873
  382MOL   C10546587   6.238   2.941   7.323 -0.5770 -0.8441  0.7277
  382MOL   F10646588   6.217   3.056   7.271  0.2574  0.0354  0.2081
  382MOL   H10746589   6.428   3.012   7.418  1.4643 -2.5087 -1.5613
  382MOL   H10846590   6.343   2.864   7.486 -1.7385 -0.4423 -0.8820
  382MOL   H10946591   6.140   2.907   7.356 -0.8274 -1.4206 -0.5620
  382MOL   C11046592   6.296   2.848   7.218  0.1634  0.9886 -0.6407
  382MOL   C11146593   6.279   2.702   7.255 -0.0965 -0.8013  0.1474
  382MOL   F11246594   6.151   2.695   7.290  0.0270 -0.1818  0.0977
  382MOL   H11346595   6.241   2.878   7.129 -3.9229 -1.3194  0.9837
  382MOL   H11446596   6.399   2.875   7.192  0.4672 -1.2196 -1.8052
  382MOL   H11546597   6.342   2.682   7.342  1.3121 -0.2928 -0.7438
  382MOL   C11646598   6.316   2.621   7.135 -0.3317 -0.3213  0.8093
  382MOL   C11746599   6.345   2.473   7.173 -0.0995  1.0877  0.1390
  382MOL   F11846600   6.392   2.419   7.063  0.4358 -0.3114  0.4061
  382MOL   H11946601   6.245   2.630   7.053 -0.1785  0.7029  0.7766
  382MOL   H12046602   6.411   2.662   7.099 -0.6070  0.6687  1.1829
  382MOL   H12146603   6.258   2.423   7.215  0.6935  0.6580  1.2891
  382MOL   H12246604   6.418   2.470   7.253 -0.9669 -2.0923  0.8757
  383MOL     C146605   1.841   1.755   2.116  0.7346 -0.0992 -0.0685
  383MOL     C246606   1.712   1.678   2.111 -0.7378 -0.4356  0.5474
  383MOL     F346607   1.703   1.603   2.222  0.7087 -0.2595 -0.0441
  383MOL     H446608   1.935   1.705   2.139  2.6483  2.4043 -2.0684
  383MOL     H546609   1.837   1.834   2.191  1.5413 -1.6580  1.6376
  383MOL     H646610   1.710   1.606   2.029 -1.3355  0.0164  0.1698
  383MOL     H746611   1.849   1.800   2.017  4.0557 -2.6875 -1.0610
  383MOL     C846612   1.587   1.772   2.091  0.3701  0.1413 -0.3176
  383MOL     C946613   1.449   1.703   2.086  0.0214 -0.5473 -0.7278
  383MOL    F1046614   1.361   1.788   2.127  0.3516 -0.1762 -0.6923
  383MOL    H1146615   1.591   1.853   2.164 -0.7215 -0.0893  0.0106
  383MOL    H1246616   1.606   1.816   1.994  0.6166  0.1929 -0.2459
  383MOL    H1346617   1.435   1.611   2.144 -0.2894 -0.2042 -0.2455
  383MOL    C1446618   1.412   1.665   1.942 -0.4819  0.2846 -0.1626
  383MOL    C1546619   1.266   1.606   1.925 -0.6212 -0.2307 -0.2433
  383MOL    F1646620   1.264   1.496   2.003  0.7426  0.1298  0.1449
  383MOL    H1746621   1.422   1.736   1.859  0.3493 -0.8342 -1.0381
  383MOL    H1846622   1.487   1.591   1.913  0.4906  1.4197 -0.5870
  383MOL    H1946623   1.249   1.571   1.823 -0.7644  2.3173 -1.1096
  383MOL    C2046624   1.144   1.702   1.945 -0.3673  0.2529 -0.2129
  383MOL    C2146625   1.151   1.824   1.845 -1.1374  0.4073  0.4140
  383MOL    F2246626   1.110   1.785   1.728  0.5505 -0.3278 -0.0949
  383MOL    H2346627   1.054   1.642   1.944 -0.9179  1.0165  1.2832
  383MOL    H2446628   1.138   1.748   2.044 -3.1921 -1.6561  0.5555
  383MOL    H2546629   1.257   1.845   1.829 -0.2835 -2.7126  1.5573
  383MOL    C2646630   1.086   1.954   1.900 -0.1140 -0.3796 -0.1806
  383MOL    C2746631   1.157   2.082   1.847 -0.1899  0.4203  0.7166
  383MOL    F2846632   1.123   2.091   1.721  0.3780 -0.2794  0.1912
  383MOL    H2946633   0.979   1.963   1.883 -0.0430  0.7804 -0.0415
  383MOL    H3046634   1.102   1.955   2.008 -1.8380 -2.2621  0.1312
  383MOL    H3146635   1.264   2.072   1.828 -0.8417  0.0230 -3.1962
  383MOL    C3246636   1.118   2.214   1.917 -0.3526  0.0699 -0.0594
  383MOL    C3346637   1.190   2.340   1.865 -0.3452  0.1985  0.2304
  383MOL    F3446638   1.132   2.442   1.932 -0.5661 -0.0068  0.6164
  383MOL    H3546639   1.010   2.227   1.906 -0.2059 -0.2196 -1.9521
  383MOL    H3646640   1.132   2.212   2.025  0.5477 -0.9699 -0.1915
  383MOL    H3746641   1.158   2.364   1.764  2.0518  2.3313 -0.1065
  383MOL    C3846642   1.343   2.343   1.869 -0.6601 -0.7561  0.6853
  383MOL    C3946643   1.420   2.317   2.001 -0.8237  0.0855  0.8367
  383MOL    F4046644   1.414   2.187   2.021  0.2522  0.3297 -0.1027
  383MOL    H4146645   1.381   2.268   1.800 -0.8034 -0.2485  0.0556
  383MOL    H4246646   1.371   2.437   1.821 -1.3622 -2.2392 -2.7591
  383MOL    H4346647   1.363   2.372   2.076 -0.4163  1.1201  0.4007
  383MOL    C4446648   1.574   2.356   1.991  0.0207  0.1703  0.6835
  383MOL    C4546649   1.591   2.506   1.961 -0.0886  0.2936  0.1178
  383MOL    F4646650   1.511   2.560   2.052 -0.2293 -0.3709 -0.5397
  383MOL    H4746651   1.624   2.335   2.085  0.9160 -0.9024 -0.0324
  383MOL    H4846652   1.633   2.301   1.918 -0.2942  1.6213 -0.7012
  383MOL    H4946653   1.549   2.535   1.864  2.5577 -0.6403 -1.3612
  383MOL    C5046654   1.737   2.553   1.982  0.1439 -0.0664  0.0162
  383MOL    C5146655   1.763   2.699   2.008  0.2841 -0.2750 -0.0419
  383MOL    F5246656   1.728   2.754   2.122  0.0728  0.3368 -0.0979
  383MOL    H5346657   1.769   2.493   2.067  1.3121 -1.5554 -1.4490
  383MOL    H5446658   1.787   2.513   1.894  1.7168 -0.6230  1.1322
  383MOL    H5546659   1.718   2.756   1.927 -1.6539 -1.4524  0.1971
  383MOL    C5646660   1.910   2.732   1.978 -0.2734 -0.2626 -0.3769
  383MOL    C5746661   2.013   2.652   2.050  0.0527 -0.2744 -0.1822
  383MOL    F5846662   2.014   2.523   2.019 -0.1716 -0.3361  0.0443
  383MOL    H5946663   1.921   2.724   1.870  1.1297  3.3284 -0.5789
  383MOL    H6046664   1.924   2.840   1.985 -0.3490 -0.2648 -0.1978
  383MOL    H6146665   1.989   2.652   2.156  0.7307  1.6352 -0.0123
  383MOL    C6246666   2.157   2.701   2.049  0.2693 -1.1620  0.1406
  383MOL    C6346667   2.257   2.640   2.148 -0.5145 -0.6082 -0.0839
  383MOL    F6446668   2.245   2.510   2.126 -0.0691  0.2029  0.0257
  383MOL    H6546669   2.195   2.684   1.949 -0.6504 -0.2436 -0.3744
  383MOL    H6646670   2.171   2.809   2.054  1.3713 -1.2606 -0.8238
  383MOL    H6746671   2.231   2.647   2.253 -0.2411 -0.3413 -0.0312
  383MOL    C6846672   2.388   2.701   2.141  0.1224  0.3502 -0.0396
  383MOL    C6946673   2.502   2.635   2.222  0.0577  0.6174 -0.2857
  383MOL    F7046674   2.615   2.699   2.181  0.2510  0.9911 -0.1012
  383MOL    H7146675   2.410   2.708   2.035 -2.7570 -0.1454 -0.7085
  383MOL    H7246676   2.377   2.804   2.177 -0.4815 -0.1239  1.1535
  383MOL    H7346677   2.512   2.531   2.190 -1.3692 -0.2956  2.1079
  383MOL    C7446678   2.481   2.640   2.369  0.6356 -0.2383  0.3963
  383MOL    C7546679   2.591   2.575   2.452  0.8310  0.1850 -0.2140
  383MOL    F7646680   2.714   2.620   2.431  0.1692 -0.0721  0.3406
  383MOL    H7746681   2.481   2.744   2.404 -1.8879 -0.3487  0.8168
  383MOL    H7846682   2.383   2.604   2.399 -0.1006 -0.2039 -1.8569
  383MOL    H7946683   2.587   2.476   2.407 -0.5418  0.3639 -0.5247
  383MOL    C8046684   2.576   2.572   2.601  0.4371  0.2916 -0.0443
  383MOL    C8146685   2.474   2.464   2.655  0.3676  0.3032  0.3444
  383MOL    F8246686   2.508   2.344   2.618 -0.0028  0.2197 -0.0619
  383MOL    H8346687   2.678   2.565   2.639 -0.0304  0.4879  1.2542
  383MOL    H8446688   2.545   2.671   2.634 -0.5673 -0.4328  1.2109
  383MOL    H8546689   2.371   2.479   2.622  0.5398  1.3744  0.2745
  383MOL    C8646690   2.466   2.474   2.809  0.0899  0.8415  0.3338
  383MOL    C8746691   2.414   2.604   2.852 -0.8506 -0.1140  0.2355
  383MOL    F8846692   2.283   2.611   2.816 -0.7047 -0.3154 -0.8315
  383MOL    H8946693   2.392   2.404   2.848  0.8049 -0.1275 -0.0274
  383MOL    H9046694   2.565   2.447   2.845 -0.1275  1.1708  1.1917
  383MOL    H9146695   2.465   2.690   2.807  0.8736 -1.0196  0.3860
  383MOL    C9246696   2.436   2.612   3.011 -0.0127  0.1663 -0.3167
  383MOL    C9346697   2.582   2.646   3.045  0.2547 -0.0059  0.3418
  383MOL    F9446698   2.607   2.770   3.003 -0.0769 -0.0727 -0.1997
  383MOL    H9546699   2.370   2.684   3.060  0.2567 -0.4267  0.9489
  383MOL    H9646700   2.402   2.520   3.059 -0.6167 -0.1059 -1.2678
  383MOL    H9746701   2.642   2.581   2.982  0.0532  0.3020 -0.1795
  383MOL    C9846702   2.616   2.628   3.188  0.7142 -0.0325  0.2529
  383MOL    C9946703   2.579   2.486   3.250  1.0223  0.6505 -0.0843
  383MOL   F10046704   2.634   2.381   3.181  0.3178  0.2409  0.7369
  383MOL   H10146705   2.725   2.629   3.183  0.6546 -0.8571 -1.4212
  383MOL   H10246706   2.577   2.711   3.247 -1.2847  0.0377 -1.1196
  383MOL   H10346707   2.475   2.452   3.247  0.8744  1.1876 -2.6390
  383MOL   C10446708   2.639   2.474   3.391 -0.0749 -0.3938  0.2014
  383MOL   C10546709   2.619   2.338   3.462  0.3134  0.3488  0.4985
  383MOL   F10646710   2.699   2.245   3.417  0.3908 -0.2739 -0.3085
  383MOL   H10746711   2.747   2.485   3.386  0.0570 -1.2244  1.0027
  383MOL   H10846712   2.608   2.564   3.445  0.0554  0.6968 -1.5039
  383MOL   H10946713   2.518   2.302   3.439  0.7534 -1.7657  1.6603
  383MOL   C11046714   2.613   2.345   3.614 -0.0338  0.4450  0.4372
  383MOL   C11146715   2.737   2.377   3.688 -0.6174 -0.5058 -0.3411
  383MOL   F11246716   2.756   2.504   3.653  0.2951 -0.4107 -0.2786
  383MOL   H11346717   2.536   2.413   3.649  0.9472  1.7230  0.1450
  383MOL   H11446718   2.587   2.247   3.654  3.1642 -0.5994  0.0866
  383MOL   H11546719   2.822   2.323   3.647 -0.6258 -0.5923 -0.2439
  383MOL   C11646720   2.733   2.347   3.843  0.0569  0.1293 -0.4819
  383MOL   C11746721   2.735   2.198   3.873  0.0936  0.2337 -0.2822
  383MOL   F11846722   2.718   2.180   4.004 -0.4794 -0.4845  0.2080
  383MOL   H11946723   2.821   2.393   3.890  0.2472 -2.2503  1.5591
  383MOL   H12046724   2.647   2.394   3.890  0.9095  1.1868  0.0571
  383MOL   H12146725   2.832   2.152   3.854 -1.2670 -1.8886 -2.3646
  383MOL   H12246726   2.655   2.144   3.822 -1.1926 -0.0424  1.9602
  384MOL     C146727   4.305   7.792   1.813  0.2750 -0.2291  0.0339
  384MOL     C246728   4.307   7.660   1.744  0.0029 -0.4248  0.3127
  384MOL     F346729   4.181   7.602   1.734  0.7945 -0.7130  0.8811
  384MOL     H446730   4.279   7.794   1.919 -0.5097  0.6264 -0.1639
  384MOL     H546731   4.233   7.850   1.754  0.4739  0.3137  0.3252
  384MOL     H646732   4.372   7.592   1.800  0.0257 -0.5511  0.1328
  384MOL     H746733   4.397   7.849   1.800  0.0978  0.2722  0.9586
  384MOL     C846734   4.355   7.664   1.598 -0.1509  0.4666 -0.1401
  384MOL     C946735   4.395   7.528   1.539 -0.5959 -0.6107 -0.1941
  384MOL    F1046736   4.503   7.476   1.604  0.7481 -0.4895  0.2293
  384MOL    H1146737   4.271   7.703   1.541  1.4299 -1.0117 -3.6456
  384MOL    H1246738   4.438   7.734   1.589 -0.1359  0.4443 -0.1798
  384MOL    H1346739   4.418   7.550   1.434  0.8859  1.3964  0.5267
  384MOL    C1446740   4.280   7.418   1.550 -0.1613  0.1797  0.6761
  384MOL    C1546741   4.292   7.300   1.469  0.2794 -0.0508 -0.5259
  384MOL    F1646742   4.203   7.220   1.522  0.1286  0.4395  0.0994
  384MOL    H1746743   4.271   7.380   1.652  3.3039 -1.5461  0.4232
  384MOL    H1846744   4.180   7.455   1.526 -0.1904 -0.2240  0.1635
  384MOL    H1946745   4.391   7.256   1.483  1.7692  3.0795 -0.8760
  384MOL    C2046746   4.249   7.305   1.322  0.2947 -0.0214 -0.1691
  384MOL    C2146747   4.264   7.177   1.247  0.1829  0.3221  0.6578
  384MOL    F2246748   4.197   7.176   1.127 -0.1113 -0.3279  0.2291
  384MOL    H2346749   4.148   7.339   1.301  1.4198  2.7325 -1.4306
  384MOL    H2446750   4.309   7.378   1.267  3.0553 -0.8077  1.6699
  384MOL    H2546751   4.208   7.097   1.296 -0.8369  1.2283  0.9940
  384MOL    C2646752   4.402   7.123   1.219  0.3521  0.3701 -0.5835
  384MOL    C2746753   4.492   7.210   1.129 -0.1982  0.0563  0.7180
  384MOL    F2846754   4.561   7.304   1.202  0.0632  0.3846  0.1108
  384MOL    H2946755   4.444   7.097   1.316 -0.5070 -0.4582 -0.4236
  384MOL    H3046756   4.388   7.025   1.174 -0.0258 -0.1931  0.7321
  384MOL    H3146757   4.435   7.260   1.051 -2.4114 -0.7087  1.7888
  384MOL    C3246758   4.608   7.124   1.066  0.1017  0.5072  0.6003
  384MOL    C3346759   4.697   7.199   0.971 -0.3909 -0.7325  0.2904
  384MOL    F3446760   4.783   7.271   1.040 -0.1623  0.1707  0.1199
  384MOL    H3546761   4.663   7.086   1.153 -1.2275 -0.3136  1.0966
  384MOL    H3646762   4.571   7.033   1.019  2.7728 -0.9864  1.2666
  384MOL    H3746763   4.642   7.272   0.912 -1.9549 -1.5286  0.7378
  384MOL    C3846764   4.782   7.095   0.891 -0.1557 -0.1261 -0.0189
  384MOL    C3946765   4.905   7.152   0.812 -0.5485  0.8535 -0.3814
  384MOL    F4046766   4.956   7.048   0.747  0.3421 -0.0104 -0.1325
  384MOL    H4146767   4.828   7.012   0.944  1.3040  1.8273  1.8855
  384MOL    H4246768   4.711   7.059   0.817  0.6478  1.1506 -1.4430
  384MOL    H4346769   4.981   7.185   0.883 -1.4317 -1.8223  1.9121
  384MOL    C4446770   4.890   7.272   0.711  0.1278  1.1857  0.0019
  384MOL    C4546771   5.023   7.351   0.696  0.2098 -0.2090 -0.5619
  384MOL    F4646772   5.123   7.275   0.652 -0.8977  0.2334 -0.2107
  384MOL    H4746773   4.859   7.234   0.614  2.0753 -2.0658  0.5691
  384MOL    H4846774   4.810   7.343   0.732  0.0887  1.9510 -2.6159
  384MOL    H4946775   5.061   7.409   0.779  2.5716 -0.5032 -1.4008
  384MOL    C5046776   4.991   7.444   0.572  0.2364 -0.2618 -0.0979
  384MOL    C5146777   5.073   7.571   0.550 -0.3265  0.4361 -1.3170
  384MOL    F5246778   5.013   7.668   0.624  0.3782 -0.2169 -0.0983
  384MOL    H5346779   4.986   7.386   0.480 -3.1489  1.3567 -1.0150
  384MOL    H5446780   4.887   7.477   0.574  0.2389  0.0289 -3.3130
  384MOL    H5546781   5.060   7.613   0.450  1.0546 -2.2197 -2.6632
  384MOL    C5646782   5.224   7.565   0.587 -0.5049  0.2142 -0.0612
  384MOL    C5746783   5.299   7.693   0.540 -0.5033  0.3778  0.1406
  384MOL    F5846784   5.417   7.702   0.594 -0.3381  0.1459 -0.7355
  384MOL    H5946785   5.234   7.555   0.695  0.3390  1.4256 -0.0101
  384MOL    H6046786   5.276   7.484   0.535  1.4363  1.6229 -0.4099
  384MOL    H6146787   5.244   7.784   0.560 -0.1991  0.6711 -0.3555
  384MOL    C6246788   5.323   7.686   0.395  0.3054  0.8770  0.6234
  384MOL    C6346789   5.403   7.804   0.331  0.2276  0.4576  0.6191
  384MOL    F6446790   5.420   7.761   0.207  1.0329  0.3758  0.9057
  384MOL    H6546791   5.368   7.592   0.362  1.2725  1.8022 -0.7443
  384MOL    H6646792   5.227   7.677   0.346  0.6693 -0.1611  0.0729
  384MOL    H6746793   5.502   7.819   0.374  0.7367  2.3881 -1.1530
  384MOL    C6846794   5.332   7.936   0.346 -0.1793  0.4715  0.6687
  384MOL    C6946795   5.406   0.048   0.277  0.1656 -0.0348  0.8576
  384MOL    F7046796   5.390   0.016   0.149  0.4712 -0.4532 -0.4765
  384MOL    H7146797   5.243   7.919   0.286 -0.4520  0.3866  1.0941
  384MOL    H7246798   5.305   7.962   0.449  0.6512  1.3890  0.6644
  384MOL    H7346799   5.515   0.043   0.283  0.4263 -0.8087 -3.0239
  384MOL    C7446800   5.341   0.190   0.299 -0.7002 -0.1996 -0.7916
  384MOL    C7546801   5.412   0.316   0.249 -0.2738  0.2163 -0.5279
  384MOL    F7646802   5.419   0.314   0.115 -0.1699 -0.7635  0.0288
  384MOL    H7746803   5.244   0.205   0.253 -1.4492 -2.5833 -0.0609
  384MOL    H7846804   5.329   0.202   0.407 -0.4148 -1.2401 -0.6372
  384MOL    H7946805   5.515   0.309   0.285 -1.0794  3.0384  2.6222
  384MOL    C8046806   5.360   0.451   0.295 -0.1967  0.6304  0.5410
  384MOL    C8146807   5.376   0.479   0.444 -0.0779 -0.0734 -0.7494
  384MOL    F8246808   5.495   0.430   0.493  0.1102 -0.9319  0.2222
  384MOL    H8346809   5.408   0.531   0.238 -0.3152  0.2582 -0.0853
  384MOL    H8446810   5.253   0.461   0.274 -0.3978 -1.6916  0.3033
  384MOL    H8546811   5.297   0.432   0.503  0.6251  1.2763  1.3481
  384MOL    C8646812   5.374   0.628   0.468  0.4635 -0.0631 -0.1561
  384MOL    C8746813   5.330   0.683   0.606  0.3938 -0.4308 -0.2415
  384MOL    F8846814   5.415   0.635   0.701 -0.3318  0.5133 -0.3958
  384MOL    H8946815   5.473   0.661   0.437  0.4812 -0.8760 -1.0027
  384MOL    H9046816   5.305   0.672   0.396  0.1559 -1.6330 -0.8252
  384MOL    H9146817   5.234   0.641   0.636 -0.7302  2.0926 -0.1596
  384MOL    C9246818   5.338   0.829   0.623  0.5314 -0.3889 -0.3865
  384MOL    C9346819   5.229   0.913   0.554  0.3242  0.3076 -0.2647
  384MOL    F9446820   5.111   0.869   0.599 -0.0866 -0.4387  0.8767
  384MOL    H9546821   5.353   0.849   0.728  0.3751  2.0920 -0.8158
  384MOL    H9646822   5.430   0.854   0.572 -0.1479 -0.5373 -1.7184
  384MOL    H9746823   5.214   0.896   0.447 -1.9387  0.6145 -0.0217
  384MOL    C9846824   5.242   1.061   0.578  0.0993 -0.3522 -0.2858
  384MOL    C9946825   5.379   1.127   0.535  0.1888  0.3242  0.4831
  384MOL   F10046826   5.399   1.105   0.405 -0.0491 -0.4536 -0.0075
  384MOL   H10146827   5.165   1.115   0.522 -0.8248 -1.8123 -0.4399
  384MOL   H10246828   5.223   1.083   0.683 -2.1021 -1.6542 -0.3698
  384MOL   H10346829   5.459   1.078   0.589  1.0458  1.5867  0.3850
  384MOL   C10446830   5.392   1.278   0.560 -0.2589  0.6255 -0.0298
  384MOL   C10546831   5.344   1.323   0.703 -0.0150 -0.4736 -0.5724
  384MOL   F10646832   5.384   1.247   0.804 -0.2425 -0.2923  0.0953
  384MOL   H10746833   5.496   1.308   0.551  0.5072 -1.5597  1.2352
  384MOL   H10846834   5.335   1.321   0.477 -1.8639 -3.0026 -0.8981
  384MOL   H10946835   5.237   1.306   0.715  0.1892 -0.8091  0.8206
  384MOL   C11046836   5.360   1.471   0.735  0.3962  0.1810 -0.0817
  384MOL   C11146837   5.283   1.528   0.862  0.3751  0.2599  0.1154
  384MOL   F11246838   5.314   1.652   0.883 -0.2433 -0.8527  0.1560
  384MOL   H11346839   5.466   1.489   0.751  0.6797 -0.5107 -1.1688
  384MOL   H11446840   5.332   1.531   0.648  1.0202 -0.1835 -0.5319
  384MOL   H11546841   5.326   1.468   0.942 -1.9176 -1.2299  0.2677
  384MOL   C11646842   5.129   1.528   0.856  0.1874 -0.0918  0.6677
  384MOL   C11746843   5.073   1.625   0.752 -0.5283  0.6182  0.3342
  384MOL   F11846844   4.935   1.621   0.770 -0.0436  0.0740  0.2210
  384MOL   H11946845   5.089   1.431   0.827 -0.8562  0.1366  1.3188
  384MOL   H12046846   5.082   1.547   0.952  0.8293 -1.4954  1.2655
  384MOL   H12146847   5.111   1.594   0.655  1.4622 -0.2851  1.3675
  384MOL   H12246848   5.094   1.731   0.768  0.3441  0.6246 -0.8283
  385MOL     C146849   0.903   3.260   5.710  1.1549 -0.3888  0.5767
  385MOL     C246850   0.956   3.122   5.735  0.7525  0.5467  0.2863
  385MOL     F346851   1.001   3.081   5.618  0.4943  0.2400  0.0653
  385MOL     H446852   0.977   3.337   5.689 -0.1654  0.8394  0.3070
  385MOL     H546853   0.860   3.300   5.802  0.8347  0.5814  0.0188
  385MOL     H646854   0.876   3.058   5.772 -0.0692 -0.0455 -2.4237
  385MOL     H746855   0.814   3.253   5.647  0.4426  1.9663  1.2404
  385MOL     C846856   1.080   3.124   5.830  0.4411 -0.5709 -0.0977
  385MOL     C946857   1.133   2.985   5.861  0.1218 -0.3821 -0.0111
  385MOL    F1046858   1.248   2.996   5.935  0.0983  0.4167 -0.3939
  385MOL    H1146859   1.153   3.190   5.782  1.1969 -0.1959  1.5222
  385MOL    H1246860   1.059   3.174   5.925  1.2719 -0.3641 -0.0132
  385MOL    H1346861   1.178   2.937   5.774 -1.6224  0.4906 -1.4276
  385MOL    C1446862   1.023   2.903   5.936 -0.2830 -0.0497  0.1291
  385MOL    C1546863   1.050   2.755   5.960  0.1776 -0.5216 -0.7557
  385MOL    F1646864   1.072   2.704   5.841 -0.8461  0.2947  0.4526
  385MOL    H1746865   1.000   2.942   6.035 -0.8268 -0.9089  0.3451
  385MOL    H1846866   0.933   2.899   5.875 -0.2545  2.4742 -0.1547
  385MOL    H1946867   0.962   2.706   6.003  0.2426  0.8704  1.0327
  385MOL    C2046868   1.176   2.721   6.041 -0.3832  0.1116 -0.2247
  385MOL    C2146869   1.185   2.575   6.079 -0.3176 -0.8215 -0.4644
  385MOL    F2246870   1.301   2.565   6.136 -0.6021  0.0363 -0.4335
  385MOL    H2346871   1.266   2.746   5.984  1.5600 -0.7703  2.3151
  385MOL    H2446872   1.166   2.774   6.136  1.6505 -0.3557  0.2742
  385MOL    H2546873   1.158   2.513   5.993 -2.0648 -0.2314 -0.3710
  385MOL    C2646874   1.083   2.523   6.181 -0.4037  0.3988  0.0553
  385MOL    C2746875   1.098   2.379   6.242  1.3203  0.2368  0.0032
  385MOL    F2846876   0.995   2.359   6.327  0.0247 -0.2290  0.2428
  385MOL    H2946877   1.097   2.582   6.271  0.4024 -0.8051  0.7245
  385MOL    H3046878   0.977   2.523   6.155 -0.6660  0.2592  1.0904
  385MOL    H3146879   1.189   2.375   6.301  0.9995  0.7875  0.5359
  385MOL    C3246880   1.094   2.269   6.139  0.5093  0.0593  0.5236
  385MOL    C3346881   0.961   2.248   6.046 -0.0805 -1.1263 -0.2835
  385MOL    F3446882   0.987   2.325   5.945 -0.5110  0.2819 -0.0714
  385MOL    H3546883   1.189   2.265   6.085  0.6884  1.1365  0.7446
  385MOL    H3646884   1.106   2.176   6.195 -0.5540  0.5981  1.6580
  385MOL    H3746885   0.879   2.295   6.100  1.6520  0.5602  0.9760
  385MOL    C3846886   0.930   2.104   5.999  0.1485  0.5320  0.3528
  385MOL    C3946887   0.873   2.017   6.115  0.7351  0.5631 -0.4881
  385MOL    F4046888   0.764   2.079   6.174  0.4035 -0.3387 -0.0440
  385MOL    H4146889   0.852   2.123   5.925  2.2036 -0.9931 -2.3137
  385MOL    H4246890   1.012   2.055   5.947 -1.7405 -2.6243  0.2178
  385MOL    H4346891   0.941   2.016   6.200  1.6502  1.5775 -1.1863
  385MOL    C4446892   0.849   1.870   6.072 -0.0330 -0.1133  0.8638
  385MOL    C4546893   0.786   1.790   6.190  0.7497  0.5093  0.3028
  385MOL    F4646894   0.700   1.711   6.135 -0.1054  0.0226  0.2422
  385MOL    H4746895   0.794   1.864   5.978 -0.9552  0.9209  1.3356
  385MOL    H4846896   0.949   1.830   6.052  0.1184  0.1391  1.1138
  385MOL    H4946897   0.731   1.862   6.250 -1.4995  1.2713 -2.5488
  385MOL    C5046898   0.877   1.705   6.281 -0.1370  0.1534 -0.8624
  385MOL    C5146899   0.966   1.787   6.373  0.1561  0.9975  0.2691
  385MOL    F5246900   0.895   1.887   6.431  0.4115 -0.0908  0.0612
  385MOL    H5346901   0.818   1.638   6.344  1.1290 -0.6105 -0.4530
  385MOL    H5446902   0.946   1.644   6.223 -1.0241 -1.3839 -0.3523
  385MOL    H5546903   1.036   1.840   6.309  0.3408  0.8048  0.3143
  385MOL    C5646904   1.050   1.715   6.483 -0.1179 -0.7957  0.1470
  385MOL    C5746905   1.102   1.800   6.595  0.2418  0.6330 -0.2101
  385MOL    F5846906   1.141   1.734   6.697  0.1223  0.1283  0.4180
  385MOL    H5946907   0.985   1.638   6.525  0.4171 -1.2752  0.1054
  385MOL    H6046908   1.136   1.666   6.437  0.0431  0.4728 -0.9135
  385MOL    H6146909   1.021   1.861   6.634 -0.1819  1.2602 -2.0438
  385MOL    C6246910   1.219   1.895   6.555  0.1289  0.0390 -0.0237
  385MOL    C6346911   1.274   1.984   6.673 -0.8665  0.2008  0.5615
  385MOL    F6446912   1.368   2.065   6.629  0.2071  0.1556  0.8252
  385MOL    H6546913   1.294   1.831   6.509  1.0961  1.7539 -0.8700
  385MOL    H6646914   1.189   1.955   6.470  0.2634  0.2935  0.1070
  385MOL    H6746915   1.312   1.912   6.746 -0.7672 -1.1295 -0.7610
  385MOL    C6846916   1.175   2.070   6.741 -0.5167  0.2973 -0.8792
  385MOL    C6946917   1.103   2.178   6.664 -1.0711 -0.4207  0.2543
  385MOL    F7046918   1.032   2.122   6.563  0.2293  0.3188  0.2235
  385MOL    H7146919   1.109   2.018   6.811  1.4498  0.3685  1.0888
  385MOL    H7246920   1.244   2.122   6.809  0.7232 -2.4795  0.0443
  385MOL    H7346921   1.187   2.235   6.626 -0.9378  0.1636  1.3929
  385MOL    C7446922   1.025   2.275   6.753 -0.2858  0.3050  1.0981
  385MOL    C7546923   1.119   2.354   6.851  0.4573  0.0862  0.1282
  385MOL    F7646924   1.198   2.433   6.773 -0.3449  0.0155  0.6054
  385MOL    H7746925   0.976   2.342   6.683 -0.1511  0.8861  1.5626
  385MOL    H7846926   0.948   2.220   6.808 -0.1837 -0.9165  0.0677
  385MOL    H7946927   1.184   2.294   6.914 -1.6438 -0.2501  2.0500
  385MOL    C8046928   1.042   2.457   6.943 -0.4120  0.3491  0.4166
  385MOL    C8146929   0.930   2.403   7.040 -0.5165 -0.3471  0.1270
  385MOL    F8246930   0.821   2.381   6.967 -0.1891  0.0309  0.0379
  385MOL    H8346931   1.121   2.505   7.001 -1.6438  2.7149  0.1811
  385MOL    H8446932   1.002   2.536   6.880  0.0015  3.5415  3.9194
  385MOL    H8546933   0.906   2.483   7.110  1.3703  0.3229  0.0305
  385MOL    C8646934   0.971   2.284   7.130 -0.0504 -0.0286  0.8621
  385MOL    C8746935   1.058   2.324   7.253  0.0416 -0.3435 -0.4739
  385MOL    F8846936   1.008   2.423   7.318 -0.2814  0.0790  0.0465
  385MOL    H8946937   0.874   2.270   7.178  0.0692 -1.3354  0.7398
  385MOL    H9046938   1.016   2.197   7.083  3.2437  2.1317 -0.1673
  385MOL    H9146939   1.155   2.356   7.215  0.6376  1.6889  2.5757
  385MOL    C9246940   1.077   2.205   7.354 -0.2512  0.9351 -0.3451
  385MOL    C9346941   1.156   2.079   7.306  0.0829  0.2237 -0.0178
  385MOL    F9446942   1.277   2.118   7.262 -0.0128 -0.0686  0.3379
  385MOL    H9546943   1.130   2.248   7.440 -1.9772 -1.9930  2.2998
  385MOL    H9646944   0.986   2.173   7.404  0.1536  1.3254  0.6540
  385MOL    H9746945   1.107   2.032   7.221 -1.8416  0.1780  1.0785
  385MOL    C9846946   1.179   1.976   7.412  0.2958  0.0909  0.1619
  385MOL    C9946947   1.059   1.886   7.438  0.5021  0.4704  0.7935
  385MOL   F10046948   1.052   1.807   7.327 -0.6213 -0.2478  0.0156
  385MOL   H10146949   1.268   1.914   7.402  1.0031  0.8810  1.3058
  385MOL   H10246950   1.198   2.037   7.500 -0.0698 -0.0064  0.3095
  385MOL   H10346951   0.966   1.943   7.436 -0.0061 -0.3433  1.0916
  385MOL   C10446952   1.070   1.792   7.566 -0.1835  0.2926 -0.7062
  385MOL   C10546953   1.098   1.867   7.693  0.7878 -0.2071 -0.2666
  385MOL   F10646954   1.017   1.979   7.706  0.7801  0.1977 -0.3040
  385MOL   H10746955   0.978   1.734   7.577  0.3297 -0.7420 -1.7393
  385MOL   H10846956   1.142   1.711   7.559  0.4711  0.4859  2.7487
  385MOL   H10946957   1.202   1.896   7.682  0.0150  2.3628 -1.3202
  385MOL   C11046958   1.073   1.776   7.820 -0.6564 -0.5258  0.3319
  385MOL   C11146959   1.129   1.826   7.953  0.4674 -0.0467 -0.6914
  385MOL   F11246960   1.033   1.900   0.011 -0.4766  0.5080 -0.2147
  385MOL   H11346961   0.975   1.728   7.824 -0.1815 -1.4438  1.0519
  385MOL   H11446962   1.133   1.693   7.785  1.6925  1.8023 -1.3515
  385MOL   H11546963   1.215   1.893   7.956 -0.0350  0.5407  1.9270
  385MOL   C11646964   1.154   1.700   0.037  0.4128 -0.4411 -0.0903
  385MOL   C11746965   1.294   1.648   0.033  0.0193  0.5402 -0.2688
  385MOL   F11846966   1.394   1.740   0.046 -0.3299 -0.0952  0.0465
  385MOL   H11946967   1.132   1.731   0.139 -2.8469 -2.1958 -0.1834
  385MOL   H12046968   1.076   1.627   0.015  0.7298 -0.7145 -0.3103
  385MOL   H12146969   1.312   1.594   7.943 -2.0608  0.2182 -0.4976
  385MOL   H12246970   1.299   1.573   0.112 -0.1682 -0.4166 -1.1537
  386MOL     C146971   1.233   7.546   5.150  0.5880 -0.1378  1.1592
  386MOL     C246972   1.273   7.627   5.024 -0.1578 -0.6632  0.0483
  386MOL     F346973   1.404   7.626   5.004 -0.1787 -0.6460 -0.2798
  386MOL     H446974   1.252   7.596   5.245  0.7292  1.7523  0.1560
  386MOL     H546975   1.293   7.456   5.149 -1.6366 -1.6985 -2.1872
  386MOL     H646976   1.239   7.730   5.037  3.1523  0.3385  1.3199
  386MOL     H746977   1.127   7.525   5.132  0.6322  1.6812 -1.5739
  386MOL     C846978   1.210   7.567   4.896  0.0865 -0.6710 -0.5767
  386MOL     C946979   1.268   7.595   4.763  0.6659 -0.3786  0.1278
  386MOL    F1046980   1.222   7.501   4.678  0.0993  0.1788  0.1067
  386MOL    H1146981   1.233   7.460   4.907  1.8237 -0.5119 -2.3271
  386MOL    H1246982   1.102   7.562   4.903  0.0470 -0.1514 -0.8192
  386MOL    H1346983   1.376   7.577   4.767  0.8091  0.5659  0.7037
  386MOL    C1446984   1.240   7.740   4.719 -0.4473 -0.2248  0.0748
  386MOL    C1546985   1.304   7.787   4.589 -0.3199 -0.7200  0.1255
  386MOL    F1646986   1.244   7.721   4.485  0.6640  0.5424  0.1652
  386MOL    H1746987   1.131   7.747   4.716 -0.3539  1.3829  0.3093
  386MOL    H1846988   1.269   7.804   4.802  1.4765  1.8303 -2.1344
  386MOL    H1946989   1.406   7.746   4.590  0.3618  0.9229  1.6282
  386MOL    C2046990   1.293   7.932   4.549 -0.1832  0.0120  0.1319
  386MOL    C2146991   1.353   0.023   4.657 -0.0914  0.2070  0.1185
  386MOL    F2246992   1.479   7.990   4.681 -0.6705  0.5536 -0.2165
  386MOL    H2346993   1.361   7.940   4.464  0.9577 -0.8710  0.9279
  386MOL    H2446994   1.194   7.969   4.524  0.1939  0.3394 -0.8981
  386MOL    H2546995   1.291   0.009   4.746 -0.6698  2.3066  0.0711
  386MOL    C2646996   1.348   0.173   4.624 -0.1276 -0.0358 -0.1068
  386MOL    C2746997   1.436   0.249   4.711 -0.1459  0.5789 -0.8452
  386MOL    F2846998   1.427   0.364   4.652  0.0502 -0.3500  0.3291
  386MOL    H2946999   1.371   0.188   4.518 -3.6184  0.1342 -0.9009
  386MOL    H3047000   1.248   0.215   4.639 -0.5620 -1.3919  0.9052
  386MOL    H3147001   1.542   0.225   4.698  0.5226  0.1824  4.1604
  386MOL    C3247002   1.404   0.261   4.864 -0.0624  1.0378  0.2431
  386MOL    C3347003   1.534   0.297   4.942 -0.5321  0.2956 -0.2738
  386MOL    F3447004   1.594   0.401   4.886 -0.2438 -0.3032 -0.8081
  386MOL    H3547005   1.319   0.326   4.886 -0.7107 -0.2460  1.6222
  386MOL    H3647006   1.355   0.170   4.898  1.1902 -0.5970 -2.1772
  386MOL    H3747007   1.608   0.218   4.927 -1.0973  0.0055 -1.5680
  386MOL    C3847008   1.509   0.334   5.089 -0.0447  0.2155  0.4466
  386MOL    C3947009   1.446   0.221   5.165 -0.1322  0.2454  0.2646
  386MOL    F4047010   1.535   0.114   5.156  0.4749 -0.0814  0.1111
  386MOL    H4147011   1.598   0.381   5.131  0.8237 -0.1962 -0.8901
  386MOL    H4247012   1.431   0.409   5.081 -0.7079 -0.3966  1.1478
  386MOL    H4347013   1.353   0.201   5.113  0.3196  0.4393 -0.6151
  386MOL    C4447014   1.418   0.257   5.309 -0.1971 -0.4773 -0.2983
  386MOL    C4547015   1.323   0.165   5.390 -0.0310 -0.1292 -0.2564
  386MOL    F4647016   1.208   0.195   5.340 -0.0098  0.5325 -0.2735
  386MOL    H4747017   1.514   0.262   5.361 -0.3720 -1.9300  0.2126
  386MOL    H4847018   1.370   0.354   5.310 -0.0321 -0.3988 -0.0512
  386MOL    H4947019   1.316   0.213   5.488 -1.8164  0.1222 -0.4859
  386MOL    C5047020   1.352   0.013   5.381  0.5121  0.6537  0.0672
  386MOL    C5147021   1.483   7.976   5.458  0.0149 -0.9540 -0.3362
  386MOL    F5247022   1.466   0.003   5.594  0.5628 -0.2734  0.1232
  386MOL    H5347023   1.269   7.979   5.443  1.0412  1.3740  1.2237
  386MOL    H5447024   1.353   7.975   5.280  0.8438  1.0634 -0.0943
  386MOL    H5547025   1.560   0.042   5.424 -1.9771  2.0297  1.0095
  386MOL    C5647026   1.516   7.830   5.439  0.3147  0.3436  0.1015
  386MOL    C5747027   1.639   7.772   5.508  0.0875 -0.1502 -0.4936
  386MOL    F5847028   1.633   7.637   5.513  0.2224 -0.2696  0.0063
  386MOL    H5947029   1.426   7.777   5.471  0.9324  0.7405  2.5497
  386MOL    H6047030   1.524   7.804   5.333 -0.9747 -1.2281  0.3767
  386MOL    H6147031   1.656   7.795   5.613 -1.5518  0.1977 -0.2945
  386MOL    C6247032   1.773   7.807   5.435  0.1341  0.6922 -0.2695
  386MOL    C6347033   1.902   7.735   5.500  0.6831  0.4136 -0.4952
  386MOL    F6447034   1.986   7.746   5.395  0.1138 -0.0975  0.5002
  386MOL    H6547035   1.768   7.767   5.334  0.8359  1.4955 -0.6268
  386MOL    H6647036   1.798   7.913   5.425 -0.1124  0.5850 -2.0829
  386MOL    H6747037   1.879   7.628   5.499  3.2076 -0.1977  1.5316
  386MOL    C6847038   1.959   7.779   5.638 -0.0703  0.3360  0.2339
  386MOL    C6947039   1.956   7.932   5.672 -0.2369  0.0988  0.1394
  386MOL    F7047040   1.837   7.980   5.682  0.0625 -0.6478  0.3295
  386MOL    H7147041   1.892   7.731   5.709  1.3271 -0.6371  0.9173
  386MOL    H7247042   2.055   7.731   5.653 -1.3168 -2.2244  0.2343
  386MOL    H7347043   2.005   7.981   5.588 -1.6687 -0.4734 -1.0508
  386MOL    C7447044   2.023   7.967   5.802  0.8879 -0.4081 -0.4303
  386MOL    C7547045   2.172   7.939   5.802 -0.3877 -0.2366 -0.0958
  386MOL    F7647046   2.219   7.962   5.682 -0.1216 -0.4116 -0.2799
  386MOL    H7747047   2.018   0.072   5.811 -0.0154 -0.4124 -0.8713
  386MOL    H7847048   1.973   7.922   5.888 -0.0609 -1.5286 -1.5456
  386MOL    H7947049   2.192   7.833   5.818  3.1290  0.0489 -2.1822
  386MOL    C8047050   2.258   0.017   5.898  0.3413 -0.1289 -0.3294
  386MOL    C8147051   2.408   7.978   5.885 -0.2405  0.6591 -0.8584
  386MOL    F8247052   2.426   7.843   5.894  0.6796 -0.2123 -0.0519
  386MOL    H8347053   2.253   0.121   5.865 -0.2716  0.3822  1.3263
  386MOL    H8447054   2.225   0.025   6.001  1.5340  0.1118  0.0479
  386MOL    H8547055   2.452   0.012   5.977 -0.1290 -1.6923  0.0639
  386MOL    C8647056   2.479   0.029   5.759  0.6366 -0.4824 -0.3354
  386MOL    C8747057   2.634   0.041   5.779  0.0895 -1.0201 -0.2487
  386MOL    F8847058   2.677   7.916   5.791  0.1961  0.0438 -0.0238
  386MOL    H8947059   2.461   7.961   5.679 -0.0418 -2.5242  1.5569
  386MOL    H9047060   2.433   0.123   5.729  0.5935 -0.5373 -0.4418
  386MOL    H9147061   2.661   0.086   5.874  0.6441  1.5338 -1.5817
  386MOL    C9247062   2.698   0.133   5.671  0.2250  0.0137 -0.0436
  386MOL    C9347063   2.661   0.109   5.522 -0.1309 -0.8635  0.3294
  386MOL    F9447064   2.652   0.226   5.459  0.0063  0.1741  0.3781
  386MOL    H9547065   2.654   0.231   5.689  1.0950  0.5840 -0.9665
  386MOL    H9647066   2.806   0.141   5.683  0.3540 -2.2856  0.5430
  386MOL    H9747067   2.572   0.047   5.514 -1.1040  0.6389 -0.9188
  386MOL    C9847068   2.778   0.036   5.442 -0.1669 -0.6288 -0.4255
  386MOL    C9947069   2.750   7.966   5.309  0.0994 -0.2610 -0.4199
  386MOL   F10047070   2.648   7.882   5.325  0.0425  0.1353 -0.1355
  386MOL   H10147071   2.868   0.096   5.426 -0.8304  0.7147  0.7551
  386MOL   H10247072   2.822   7.969   5.513 -0.1716  0.3029  0.5217
  386MOL   H10347073   2.835   7.901   5.291  0.7889  0.7865 -1.0307
  386MOL   C10447074   2.725   0.060   5.190  0.4854  0.3578  0.3926
  386MOL   C10547075   2.722   8.001   5.045 -0.2400 -0.0134  0.1098
  386MOL   F10647076   2.608   7.932   5.040  0.0361 -0.4220 -0.1070
  386MOL   H10747077   2.640   0.125   5.212 -0.1914 -0.9364  1.6541
  386MOL   H10847078   2.812   0.125   5.191  0.6304  0.1548  3.0146
  386MOL   H10947079   2.800   7.926   5.032 -0.6867 -0.2680 -1.1745
  386MOL   C11047080   2.723   0.105   4.934 -0.0432  0.4334  0.7255
  386MOL   C11147081   2.859   0.160   4.889 -0.3089 -0.1032  0.6628
  386MOL   F11247082   2.941   0.054   4.882 -0.3435 -0.4504 -0.0151
  386MOL   H11347083   2.669   0.052   4.856 -0.0474  1.6200 -0.0930
  386MOL   H11447084   2.658   0.191   4.950 -0.6331  0.3637 -1.1689
  386MOL   H11547085   2.896   0.234   4.960 -1.0621  0.4652  0.4728
  386MOL   C11647086   2.858   0.216   4.750 -0.0632 -0.5605 -0.3143
  386MOL   C11747087   2.824   0.364   4.743  0.6089  0.1221  0.5881
  386MOL   F11847088   2.903   0.434   4.833 -0.1736  0.0514  0.1259
  386MOL   H11947089   2.959   0.224   4.708 -0.2197  0.2141 -0.5474
  386MOL   H12047090   2.798   0.160   4.679 -0.6381 -0.1681 -0.1389
  386MOL   H12147091   2.720   0.393   4.760 -0.0731 -0.0460 -2.9210
  386MOL   H12247092   2.839   0.405   4.644  0.8898 -0.0957  0.5409
  387MOL     C147093   4.884   3.495   3.232 -0.0787  0.2563 -0.8385
  387MOL     C247094   4.996   3.468   3.338 -0.2335 -0.3932  0.5809
  387MOL     F347095   4.944   3.480   3.463  0.0102  0.2527 -0.4597
  387MOL     H447096   4.837   3.593   3.240 -2.9059 -0.9508 -2.2075
  387MOL     H547097   4.805   3.422   3.250  1.6264 -1.2859  0.6328
  387MOL     H647098   5.076   3.541   3.338 -0.2172 -0.4111  1.4284
  387MOL     H747099   4.924   3.477   3.132 -3.0926 -2.3513 -1.6590
  387MOL     C847100   5.071   3.334   3.327  0.3428 -0.5633 -0.1796
  387MOL     C947101   4.989   3.212   3.378  0.7398 -0.1828  0.6570
  387MOL    F1047102   4.880   3.194   3.309 -0.0725  0.1950 -0.7756
  387MOL    H1147103   5.096   3.316   3.223  0.3976  0.3593 -0.3278
  387MOL    H1247104   5.171   3.345   3.368 -0.2327  3.1336  0.3663
  387MOL    H1347105   4.952   3.241   3.477 -0.1570  2.4763 -0.3987
  387MOL    C1447106   5.072   3.079   3.375 -0.6081 -0.4707  0.1009
  387MOL    C1547107   5.010   2.952   3.436 -0.4080  0.2365 -0.3608
  387MOL    F1647108   5.083   2.845   3.391  0.5284  0.3942  0.5684
  387MOL    H1747109   5.105   3.066   3.272 -0.3253 -1.9561  0.3682
  387MOL    H1847110   5.160   3.109   3.432 -1.5859  1.4423  0.6479
  387MOL    H1947111   4.912   2.921   3.399 -0.1607  0.2668 -1.0359
  387MOL    C2047112   5.018   2.962   3.590  0.5152  0.3518 -0.0237
  387MOL    C2147113   4.993   2.823   3.673  0.2610 -0.0461  0.8714
  387MOL    F2247114   4.867   2.792   3.643 -0.5072  0.0831  0.4371
  387MOL    H2347115   5.120   2.983   3.623  0.9587  0.1034 -1.2291
  387MOL    H2447116   4.978   3.057   3.625 -0.2802  0.6288 -1.6672
  387MOL    H2547117   4.979   2.844   3.779  1.1587  3.0231  0.4476
  387MOL    C2647118   5.090   2.706   3.658 -0.2614  0.7332  0.4727
  387MOL    C2747119   5.234   2.756   3.685 -0.4454 -0.3901 -0.1390
  387MOL    F2847120   5.219   2.837   3.791 -0.3231  0.0543 -0.1381
  387MOL    H2947121   5.053   2.634   3.731 -1.9182  0.6833 -0.3954
  387MOL    H3047122   5.083   2.661   3.559  3.0285  1.1507  0.0003
  387MOL    H3147123   5.274   2.811   3.600  1.4899 -0.5588  0.6191
  387MOL    C3247124   5.340   2.644   3.724  0.1383  0.6093 -0.6120
  387MOL    C3347125   5.488   2.686   3.744  0.1021  0.5501 -0.4870
  387MOL    F3447126   5.509   2.739   3.868  0.5307  0.1075 -0.1428
  387MOL    H3547127   5.316   2.587   3.813  2.0689 -0.3380 -0.6660
  387MOL    H3647128   5.330   2.571   3.643 -1.2587 -0.7950  0.8125
  387MOL    H3747129   5.494   2.767   3.672 -2.1977 -2.0375 -3.7212
  387MOL    C3847130   5.585   2.573   3.725 -0.1445 -0.3356 -0.0476
  387MOL    C3947131   5.599   2.474   3.850 -0.1593 -0.2028  0.7174
  387MOL    F4047132   5.504   2.382   3.831  0.3400 -0.1431 -0.4566
  387MOL    H4147133   5.577   2.515   3.634 -1.2983  0.0517 -0.2119
  387MOL    H4247134   5.685   2.616   3.729 -0.8736  1.5789 -1.4647
  387MOL    H4347135   5.577   2.525   3.944  3.0288  3.3842 -0.3246
  387MOL    C4447136   5.740   2.410   3.855 -0.0551  1.1164 -0.4522
  387MOL    C4547137   5.840   2.496   3.942  0.1986  0.4682  0.3925
  387MOL    F4647138   5.781   2.506   4.067 -0.1293 -0.3202  0.5643
  387MOL    H4747139   5.724   2.314   3.903 -1.4951  0.6177 -1.8884
  387MOL    H4847140   5.783   2.400   3.755  1.8912  0.6007  0.4022
  387MOL    H4947141   5.833   2.600   3.908 -1.7080  0.1645 -0.1944
  387MOL    C5047142   5.983   2.429   3.951 -0.0284  1.5058 -0.0832
  387MOL    C5147143   6.069   2.519   4.035 -1.0684  0.6433 -0.4513
  387MOL    F5247144   6.180   2.443   4.060  0.1831 -0.5809  0.2072
  387MOL    H5347145   5.987   2.336   4.008 -1.0323  1.2252 -0.4491
  387MOL    H5447146   6.033   2.401   3.858 -2.4349  1.4552 -1.4219
  387MOL    H5547147   6.019   2.546   4.128 -2.0495 -2.2522 -0.0661
  387MOL    C5647148   6.114   2.646   3.971 -0.5134 -0.3899 -0.6017
  387MOL    C5747149   6.211   2.734   4.051  1.1560 -0.6645 -0.2089
  387MOL    F5847150   6.230   2.843   3.980 -0.2549 -0.4296 -0.1929
  387MOL    H5947151   6.173   2.615   3.884  0.6867 -1.3275  0.5347
  387MOL    H6047152   6.035   2.719   3.951  1.6648  2.0137 -0.6890
  387MOL    H6147153   6.302   2.673   4.050  2.8201  1.7110  0.1970
  387MOL    C6247154   6.173   2.767   4.198 -0.4360 -0.2516  0.5067
  387MOL    C6347155   6.047   2.855   4.216  0.6382  0.3169  0.4993
  387MOL    F6447156   5.939   2.785   4.178  0.2962 -0.1899 -0.1664
  387MOL    H6547157   6.169   2.670   4.248 -2.7826 -0.3271  0.2269
  387MOL    H6647158   6.254   2.826   4.239  0.7371 -0.9845 -0.7039
  387MOL    H6747159   6.053   2.950   4.163  2.2309 -0.3883 -0.6268
  387MOL    C6847160   6.029   2.911   4.356 -0.0711 -0.2513  0.3882
  387MOL    C6947161   6.129   3.022   4.394  0.3205 -0.6373 -0.2606
  387MOL    F7047162   6.097   3.129   4.321  0.1203  0.1783 -0.0042
  387MOL    H7147163   5.929   2.953   4.361  0.3667  0.5559  4.0615
  387MOL    H7247164   6.038   2.836   4.435 -0.4727  0.1095  0.7780
  387MOL    H7347165   6.233   2.998   4.374 -0.0561 -0.7814 -2.0815
  387MOL    C7447166   6.115   3.053   4.542  0.2434 -0.1261  1.3255
  387MOL    C7547167   6.227   3.148   4.585  0.2502 -0.1247 -0.4359
  387MOL    F7647168   6.195   3.273   4.564 -0.2508 -0.0412 -0.3252
  387MOL    H7747169   6.023   3.107   4.563  0.0135  0.7398 -1.6175
  387MOL    H7847170   6.112   2.964   4.604  1.8893 -0.3346  1.1374
  387MOL    H7947171   6.317   3.131   4.527  0.2861  0.1146 -0.4524
  387MOL    C8047172   6.244   3.143   4.733  0.6450  1.0274 -0.7352
  387MOL    C8147173   6.300   3.009   4.783 -0.5516 -0.2765 -0.6195
  387MOL    F8247174   6.424   2.999   4.727  0.1053 -0.2608 -0.2023
  387MOL    H8347175   6.307   3.224   4.768  1.5024 -0.3834  1.0269
  387MOL    H8447176   6.139   3.152   4.762  0.6088  0.6797 -0.7660
  387MOL    H8547177   6.254   2.919   4.743 -0.8791 -0.1598 -0.4988
  387MOL    C8647178   6.321   2.996   4.935 -0.8062 -0.2981  0.8386
  387MOL    C8747179   6.388   2.856   4.981 -0.1283  0.2035  0.0375
  387MOL    F8847180   6.449   2.893   5.089 -0.2307 -0.7710 -0.4016
  387MOL    H8947181   6.375   3.085   4.968 -1.7384  0.7536 -0.4029
  387MOL    H9047182   6.229   3.000   4.993 -0.5529  0.0147  1.2278
  387MOL    H9147183   6.465   2.821   4.912  0.4567  0.7168  0.4248
  387MOL    C9247184   6.289   2.744   5.024 -0.3632 -0.2601  0.4563
  387MOL    C9347185   6.349   2.604   5.030 -0.2569 -0.3894  0.1985
  387MOL    F9447186   6.274   2.528   5.114 -0.3473  0.1854 -0.5715
  387MOL    H9547187   6.246   2.774   5.120  0.0965 -0.8679  0.8605
  387MOL    H9647188   6.198   2.742   4.965 -0.5155  0.0576  0.6799
  387MOL    H9747189   6.449   2.615   5.071  0.4263  0.0546 -1.5458
  387MOL    C9847190   6.345   2.536   4.890 -0.7840  0.7569 -0.4796
  387MOL    C9947191   6.415   2.401   4.884  0.0196 -0.8796 -0.2712
  387MOL   F10047192   6.408   2.355   4.761 -0.2558 -0.5153 -0.2752
  387MOL   H10147193   6.243   2.522   4.855 -0.2092 -0.7346 -1.5934
  387MOL   H10247194   6.397   2.603   4.823  1.0451  1.0602  1.1957
  387MOL   H10347195   6.367   2.335   4.956  0.0218 -2.2303 -1.4788
  387MOL   C10447196   6.569   2.404   4.915  0.2658 -0.3969 -0.3366
  387MOL   C10547197   6.663   2.493   4.844  0.4177  0.2531 -0.2841
  387MOL   F10647198   6.628   2.620   4.861 -0.4177 -0.2795 -0.0173
  387MOL   H10747199   6.591   2.433   5.018 -0.4400 -2.0518  0.3067
  387MOL   H10847200   6.600   2.303   4.888 -1.1654 -0.9498  0.0683
  387MOL   H10947201   6.656   2.481   4.736 -2.4474  1.6141 -0.2976
  387MOL   C11047202   6.810   2.470   4.894  0.5310  0.1099 -0.2685
  387MOL   C11147203   6.916   2.532   4.801 -0.2205 -0.0947  0.7232
  387MOL   F11247204   6.914   2.663   4.808 -0.1627 -0.8533 -0.6670
  387MOL   H11347205   6.823   2.507   4.996 -1.2245 -2.5706  0.9957
  387MOL   H11447206   6.845   2.367   4.893  1.3995  0.3118 -4.8762
  387MOL   H11547207   6.889   2.485   4.707  1.3007  0.4292  0.0053
  387MOL   C11647208   7.059   2.488   4.844 -0.0718  0.5683 -0.2401
  387MOL   C11747209   7.171   2.534   4.750  0.5125 -0.0203  0.3360
  387MOL   F11847210   7.151   2.504   4.622  0.1833 -0.1974 -0.0135
  387MOL   H11947211   7.088   2.503   4.948  0.4543  3.1749 -0.7261
  387MOL   H12047212   7.060   2.379   4.839 -1.4973  0.5099  0.3196
  387MOL   H12147213   7.267   2.491   4.777 -0.0099  0.2684  2.7501
  387MOL   H12247214   7.176   2.642   4.758  0.2401 -0.1702  2.9019
  388MOL     C147215   2.923   3.119   7.468 -0.0731  0.1371  0.2704
  388MOL     C247216   3.003   3.245   7.490  0.1364  0.4061 -0.1327
  388MOL     F347217   3.119   3.240   7.429  0.1576 -0.3200 -0.2652
  388MOL     H447218   2.977   3.029   7.496 -3.5034 -2.0123  0.3475
  388MOL     H547219   2.896   3.113   7.363  0.9382  1.2885 -0.0664
  388MOL     H647220   3.042   3.242   7.591  1.3574  1.8323 -0.5478
  388MOL     H747221   2.824   3.127   7.514 -1.8432  0.2054 -3.3581
  388MOL     C847222   2.936   3.377   7.455  0.3038  0.7210  0.0295
  388MOL     C947223   3.029   3.490   7.496  0.6546 -0.3829 -0.5730
  388MOL    F1047224   2.991   3.592   7.421  0.8484 -0.0376  0.1035
  388MOL    H1147225   2.912   3.375   7.349 -0.7640 -0.9688  0.2791
  388MOL    H1247226   2.842   3.379   7.511 -1.9530 -1.6482 -3.5048
  388MOL    H1347227   3.132   3.467   7.471  0.3321 -1.6246 -0.7666
  388MOL    C1447228   3.026   3.548   7.639  0.0929  0.0849  0.4750
  388MOL    C1547229   3.108   3.677   7.662 -0.4055  0.4656  0.3216
  388MOL    F1647230   3.077   3.725   7.781  0.6663  0.0677 -0.1737
  388MOL    H1747231   2.921   3.570   7.656 -0.8666 -1.3421 -3.1586
  388MOL    H1847232   3.045   3.464   7.707  0.0102 -0.1168  0.2494
  388MOL    H1947233   3.075   3.756   7.594  0.4104  1.1537  0.7243
  388MOL    C2047234   3.262   3.653   7.655 -0.0597 -0.7224  0.3143
  388MOL    C2147235   3.351   3.773   7.702  0.9648  0.0474  0.0365
  388MOL    F2247236   3.476   3.721   7.706 -0.1759 -0.0992  0.3510
  388MOL    H2347237   3.289   3.563   7.710 -2.0256 -1.7404 -0.3348
  388MOL    H2447238   3.291   3.642   7.550  0.2409 -0.8177  0.4081
  388MOL    H2547239   3.323   3.792   7.806  1.2090  1.4862 -0.1493
  388MOL    C2647240   3.339   3.909   7.620  0.0064 -0.0704  0.0683
  388MOL    C2747241   3.411   4.031   7.678 -0.4230 -0.2401  0.0496
  388MOL    F2847242   3.541   3.997   7.686 -0.2171 -0.2520 -0.5212
  388MOL    H2947243   3.370   3.904   7.516 -1.9322 -0.2538 -0.5220
  388MOL    H3047244   3.232   3.932   7.622 -0.4682 -2.1717 -0.3313
  388MOL    H3147245   3.379   4.046   7.781  0.4489  2.1304 -0.0065
  388MOL    C3247246   3.395   4.167   7.600 -0.0114  0.0921  0.0349
  388MOL    C3347247   3.258   4.239   7.627 -0.1599 -0.0356 -0.1254
  388MOL    F3447248   3.233   4.264   7.756  0.0605 -0.3372 -0.4384
  388MOL    H3547249   3.473   4.237   7.630  1.1747 -1.7265  1.3927
  388MOL    H3647250   3.421   4.160   7.494  0.6380  0.0290  0.1952
  388MOL    H3747251   3.187   4.162   7.598  1.4197 -1.8483  0.7136
  388MOL    C3847252   3.230   4.364   7.549 -0.1386  0.3403  0.1298
  388MOL    C3947253   3.074   4.399   7.542 -0.2637  0.3472  0.8689
  388MOL    F4047254   3.051   4.530   7.515  0.2114  0.1145  0.0820
  388MOL    H4147255   3.296   4.437   7.594  1.2542 -1.4703  1.0896
  388MOL    H4247256   3.245   4.354   7.441 -0.3704 -1.1404  0.2239
  388MOL    H4347257   3.045   4.367   7.642 -0.7390 -0.4019  0.4935
  388MOL    C4447258   2.995   4.303   7.442  0.3671  0.0066  0.2682
  388MOL    C4547259   2.852   4.260   7.499  0.1712 -0.7522 -0.4014
  388MOL    F4647260   2.753   4.328   7.442  0.5039 -0.0832 -0.4940
  388MOL    H4747261   2.990   4.347   7.343  0.1089  2.6770  1.4428
  388MOL    H4847262   3.049   4.208   7.435 -1.5084 -1.1238  0.5383
  388MOL    H4947263   2.838   4.274   7.606 -3.1153 -2.5166 -0.5393
  388MOL    C5047264   2.807   4.119   7.462 -0.0525  0.4765 -0.3501
  388MOL    C5147265   2.858   4.006   7.552  0.3759 -0.3648 -0.7276
  388MOL    F5247266   2.983   3.971   7.516 -0.0144  0.6330  0.1645
  388MOL    H5347267   2.698   4.119   7.474 -0.2143 -0.8657 -1.6357
  388MOL    H5447268   2.833   4.103   7.357 -1.0635 -1.4863 -0.3317
  388MOL    H5547269   2.803   3.926   7.502 -2.8059  1.2636  0.0410
  388MOL    C5647270   2.824   4.007   7.702 -0.2115 -0.6332  0.6152
  388MOL    C5747271   2.673   4.013   7.728 -0.5193  0.0895 -0.2272
  388MOL    F5847272   2.620   3.895   7.686  0.2289 -0.1185 -0.4064
  388MOL    H5947273   2.865   3.918   7.749 -0.9313  0.1505  2.7720
  388MOL    H6047274   2.876   4.090   7.748 -2.3365  0.8353  0.4511
  388MOL    H6147275   2.631   4.095   7.671  0.4262 -0.3938 -1.6454
  388MOL    C6247276   2.624   4.033   7.869 -0.3624  0.2339 -0.2774
  388MOL    C6347277   2.664   4.174   7.927  0.3746  0.0992  1.0468
  388MOL    F6447278   2.595   4.272   7.871  0.5784 -0.1718  0.2037
  388MOL    H6547279   2.519   4.012   7.888 -0.1296  0.7315  1.7820
  388MOL    H6647280   2.687   3.959   7.919 -0.0994 -1.0249 -2.4547
  388MOL    H6747281   2.769   4.201   7.912  0.7332 -2.2031 -0.9116
  388MOL    C6847282   2.631   4.173   0.071 -0.1780 -0.0679  0.4017
  388MOL    C6947283   2.653   4.308   0.140 -0.9189  0.7745  0.0842
  388MOL    F7047284   2.578   4.405   0.087  0.0864  0.0915  0.2160
  388MOL    H7147285   2.526   4.148   0.090 -0.4957  0.1587 -1.0508
  388MOL    H7247286   2.678   4.086   0.117  0.7801  0.5452  0.5819
  388MOL    H7347287   2.757   4.338   0.140 -1.0109  1.1016  0.7993
  388MOL    C7447288   2.613   4.290   0.284  0.6084 -0.1712 -0.9174
  388MOL    C7547289   2.654   4.170   0.373  0.0679 -0.3943  0.4761
  388MOL    F7647290   2.789   4.152   0.373 -0.1867  0.4012 -0.3452
  388MOL    H7747291   2.626   4.384   0.337  1.0568 -0.9135  0.3038
  388MOL    H7847292   2.505   4.276   0.270  0.7218 -0.4549 -1.5537
  388MOL    H7947293   2.611   4.077   0.336  0.1403  0.5937 -2.2495
  388MOL    C8047294   2.609   4.179   0.521  0.6569  0.0337  0.4931
  388MOL    C8147295   2.661   4.050   0.597  0.5248 -0.2405 -0.3925
  388MOL    F8247296   2.795   4.044   0.588 -0.0709 -0.6290 -0.3498
  388MOL    H8347297   2.649   4.267   0.571  1.2983  1.6105 -2.6796
  388MOL    H8447298   2.500   4.184   0.526  0.4654 -0.7697 -2.3717
  388MOL    H8547299   2.628   3.960   0.545  0.9703 -0.3540 -0.4857
  388MOL    C8647300   2.602   4.046   0.739 -0.2022 -0.6369  0.2916
  388MOL    C8747301   2.456   3.981   0.741  0.2228 -0.0039  0.1427
  388MOL    F8847302   2.462   3.850   0.718  0.4095 -0.2103  0.1763
  388MOL    H8947303   2.653   3.978   0.808  1.2821 -1.5251 -1.6385
  388MOL    H9047304   2.614   4.145   0.783 -0.4150 -0.0572 -0.9311
  388MOL    H9147305   2.394   4.023   0.662 -0.6810 -0.8262  0.4128
  388MOL    C9247306   2.378   4.026   0.860  0.8117  0.3322 -0.3264
  388MOL    C9347307   2.232   4.008   0.851  0.3300 -0.3819 -0.5083
  388MOL    F9447308   2.171   4.084   0.766 -0.0351 -0.4060 -0.3273
  388MOL    H9547309   2.426   3.978   0.945  0.4506 -1.4008 -1.0685
  388MOL    H9647310   2.403   4.130   0.881 -0.5307  0.7305 -0.6537
  388MOL    H9747311   2.185   4.039   0.945  1.4467 -1.4163  0.4049
  388MOL    C9847312   2.178   3.868   0.832  0.2649  0.5555  0.5696
  388MOL    C9947313   2.209   3.755   0.939  0.4069 -0.7796 -0.3533
  388MOL   F10047314   2.157   3.776   1.054  0.6571  0.4399 -0.1537
  388MOL   H10147315   2.070   3.883   0.836 -0.1007 -1.6733 -0.0780
  388MOL   H10247316   2.195   3.825   0.733 -2.8437 -0.5712  0.4847
  388MOL   H10347317   2.317   3.757   0.952  0.2509  0.3933  0.8687
  388MOL   C10447318   2.157   3.613   0.898 -0.0546  1.0221 -0.0768
  388MOL   C10547319   2.199   3.489   0.984 -0.2233 -0.0810  0.0800
  388MOL   F10647320   2.149   3.374   0.931 -0.4499 -0.2308  0.2636
  388MOL   H10747321   2.048   3.609   0.902 -0.1183  1.7632 -0.9369
  388MOL   H10847322   2.173   3.600   0.791 -0.8144 -0.3252 -0.0466
  388MOL   H10947323   2.157   3.493   1.085  1.1688 -0.9470  0.7047
  388MOL   C11047324   2.350   3.470   0.995 -0.3182 -0.0104  1.1535
  388MOL   C11147325   2.403   3.347   1.067  0.1266 -0.2965  0.1778
  388MOL   F11247326   2.537   3.341   1.050  0.0474  0.2498 -0.0199
  388MOL   H11347327   2.399   3.469   0.898 -0.2108 -1.3656  1.2075
  388MOL   H11447328   2.384   3.561   1.044 -0.0562  0.1174  0.7374
  388MOL   H11547329   2.361   3.259   1.019 -1.2149  1.7285 -2.5335
  388MOL   C11647330   2.368   3.351   1.218  0.0210  0.5867  0.3467
  388MOL   C11747331   2.431   3.240   1.296 -0.1155  0.3634 -0.7054
  388MOL   F11847332   2.342   3.210   1.393 -0.2819  0.3542  0.2244
  388MOL   H11947333   2.391   3.445   1.270 -0.6090  0.9017  0.0627
  388MOL   H12047334   2.259   3.348   1.223  0.1025  0.0096  1.9795
  388MOL   H12147335   2.524   3.261   1.348  0.5327  0.2361 -1.8003
  388MOL   H12247336   2.430   3.144   1.243 -1.6958 -0.0887  0.0996
  389MOL     C147337   7.546   0.237   5.488 -0.0765  0.1494 -0.4998
  389MOL     C247338   7.622   0.354   5.431  0.1557 -0.2111  0.7380
  389MOL     F347339   7.728   0.301   5.369  0.0193 -0.3860  0.2881
  389MOL     H447340   7.517   0.170   5.407 -2.6198  1.3001 -0.5945
  389MOL     H547341   7.454   0.260   5.542  0.5117  0.4888  0.3619
  389MOL     H647342   7.679   0.407   5.508 -0.5777  0.7017  0.6553
  389MOL     H747343   7.612   0.186   5.558 -0.7355 -1.0830 -0.7565
  389MOL     C847344   7.541   0.444   5.335 -0.4538  0.3930 -0.1415
  389MOL     C947345   7.434   0.538   5.404  0.4741 -0.5305  0.0410
  389MOL    F1047346   7.501   0.595   5.507  0.4098 -0.5848  0.0735
  389MOL    H1147347   7.621   0.510   5.301 -0.5105  0.6569  0.2281
  389MOL    H1247348   7.495   0.385   5.256 -0.8055  0.8924 -0.3102
  389MOL    H1347349   7.361   0.485   5.465 -2.2587  0.6864 -2.0856
  389MOL    C1447350   7.374   0.649   5.309  0.1602 -0.6027 -0.3370
  389MOL    C1547351   7.271   0.598   5.213 -0.0001  0.2070 -0.7156
  389MOL    F1647352   7.177   0.566   5.298  0.0409  0.5919  0.0532
  389MOL    H1747353   7.339   0.725   5.380 -1.9652 -0.7524 -1.1804
  389MOL    H1847354   7.456   0.692   5.252  1.3148 -1.9414  0.2778
  389MOL    H1947355   7.305   0.503   5.173 -0.8665 -0.0169 -0.9414
  389MOL    C2047356   7.228   0.700   5.106 -0.8109 -0.1412 -0.2762
  389MOL    C2147357   7.140   0.632   4.993 -0.6240  0.3171  0.6057
  389MOL    F2247358   7.093   0.730   4.915  0.0374 -0.0933 -0.1838
  389MOL    H2347359   7.175   0.783   5.154 -0.0722 -0.1684  0.5975
  389MOL    H2447360   7.318   0.738   5.058 -0.9964 -0.8800 -1.2212
  389MOL    H2547361   7.050   0.590   5.039 -2.5567  2.7801 -0.7638
  389MOL    C2647362   7.224   0.551   4.898 -0.0643  0.4303  0.1255
  389MOL    C2747363   7.165   0.537   4.757  0.2267  0.4418 -0.3442
  389MOL    F2847364   7.201   0.642   4.680  0.1912 -0.0386  0.3440
  389MOL    H2947365   7.327   0.586   4.893  0.0446 -0.0337 -0.9362
  389MOL    H3047366   7.236   0.450   4.936  2.4672  0.2604 -1.0646
  389MOL    H3147367   7.057   0.542   4.749  0.1097  2.0583  1.7078
  389MOL    C3247368   7.213   0.407   4.682  0.0075  0.1017  0.4889
  389MOL    C3347369   7.137   0.279   4.726  0.1799 -0.2687  0.9917
  389MOL    F3447370   7.006   0.290   4.695 -0.9800 -0.0546 -0.2083
  389MOL    H3547371   7.196   0.415   4.575 -1.2583 -0.2953  0.6539
  389MOL    H3647372   7.316   0.384   4.709  0.1439 -3.3702 -2.6408
  389MOL    H3747373   7.130   0.283   4.834 -1.2238  4.2665  0.8621
  389MOL    C3847374   7.194   0.150   4.668 -0.5540 -0.3503 -0.1222
  389MOL    C3947375   7.103   0.029   4.689  0.0358 -0.5001  0.2055
  389MOL    F4047376   7.047   7.988   4.571 -0.5047 -0.2955  0.2355
  389MOL    H4147377   7.204   0.163   4.560  1.3090 -0.3565  0.0184
  389MOL    H4247378   7.292   0.126   4.710 -1.9512  0.8806  4.0832
  389MOL    H4347379   7.019   0.063   4.749  0.2038  0.2606  0.0197
  389MOL    C4447380   7.166   7.920   4.772 -0.3625  0.5829  0.0645
  389MOL    C4547381   7.090   7.785   4.770 -0.1131 -0.3849 -0.1431
  389MOL    F4647382   7.148   7.707   4.860 -0.3886  0.2775  0.3727
  389MOL    H4747383   7.265   7.901   4.730 -0.1189  1.6381  0.1526
  389MOL    H4847384   7.172   7.948   4.877 -1.0950 -1.0892  0.5809
  389MOL    H4947385   7.109   7.726   4.680 -0.1765 -1.0195  0.2490
  389MOL    C5047386   6.943   7.786   4.778  0.2890 -0.3520 -0.0957
  389MOL    C5147387   6.871   7.648   4.762 -0.5507 -0.1835  0.1614
  389MOL    F5247388   6.741   7.671   4.786 -0.2258  0.2985 -0.0720
  389MOL    H5347389   6.903   7.829   4.871  0.0817  0.2820 -0.4747
  389MOL    H5447390   6.902   7.860   4.710  0.6986 -0.3121 -0.2996
  389MOL    H5547391   6.907   7.570   4.829 -0.7157 -0.5459 -0.1684
  389MOL    C5647392   6.880   7.597   4.609 -0.6032  0.0093 -0.3639
  389MOL    C5747393   6.776   7.483   4.590  0.1072 -0.1039 -0.7101
  389MOL    F5847394   6.738   7.487   4.459 -0.1848  0.0541 -0.1435
  389MOL    H5947395   6.852   7.672   4.536 -0.2175  0.8405  0.3325
  389MOL    H6047396   6.981   7.564   4.587 -0.6392  0.4122 -1.1146
  389MOL    H6147397   6.686   7.499   4.649  2.0041  2.2171  1.6619
  389MOL    C6247398   6.829   7.341   4.612 -0.0301  0.2862 -0.8925
  389MOL    C6347399   6.734   7.227   4.622  0.0231  0.2101  0.3326
  389MOL    F6447400   6.800   7.115   4.600 -0.5603  0.1224  0.2517
  389MOL    H6547401   6.891   7.321   4.525  0.2612 -0.0243 -0.6136
  389MOL    H6647402   6.893   7.332   4.700  0.3451  1.9992 -0.9758
  389MOL    H6747403   6.668   7.232   4.536 -1.2724  0.6743  1.3439
  389MOL    C6847404   6.651   7.229   4.751 -0.1095  0.8931  1.0029
  389MOL    C6947405   6.724   7.183   4.880  0.1185 -0.0371  0.2261
  389MOL    F7047406   6.816   7.277   4.919 -0.4164  0.1197 -0.1420
  389MOL    H7147407   6.603   7.327   4.752  0.7460  1.3178  0.7010
  389MOL    H7247408   6.562   7.171   4.727 -0.8167  1.7383  1.5455
  389MOL    H7347409   6.775   7.089   4.858  2.3907  1.4112 -0.9496
  389MOL    C7447410   6.626   7.158   4.998  0.5617  0.1512  0.7926
  389MOL    C7547411   6.701   7.108   5.126  0.0536 -1.0688  0.5294
  389MOL    F7647412   6.609   7.108   5.224 -0.6874 -0.2175 -0.0562
  389MOL    H7747413   6.583   7.257   5.010 -0.0129 -0.0757  0.6288
  389MOL    H7847414   6.549   7.085   4.974  0.1028  0.7535  0.4203
  389MOL    H7947415   6.783   7.176   5.149 -0.0275 -0.4140 -1.0667
  389MOL    C8047416   6.743   6.964   5.117 -0.1527 -0.1750 -0.6755
  389MOL    C8147417   6.797   6.898   5.246  0.3003  0.0513 -0.1321
  389MOL    F8247418   6.826   6.775   5.220  0.4071 -0.0555 -0.2764
  389MOL    H8347419   6.665   6.906   5.069  0.4167  1.0117 -3.0929
  389MOL    H8447420   6.827   6.966   5.048 -0.2723 -0.4184 -0.8262
  389MOL    H8547421   6.709   6.893   5.309  0.2630 -0.6676 -0.2339
  389MOL    C8647422   6.919   6.973   5.299  0.5877 -0.1148  0.4243
  389MOL    C8747423   6.984   6.901   5.414  0.2797 -0.2536 -0.3441
  389MOL    F8847424   7.094   6.967   5.445 -0.2024  0.2993 -0.0915
  389MOL    H8947425   7.000   6.978   5.227  0.1109  1.6746 -0.0092
  389MOL    H9047426   6.889   7.076   5.321 -0.5809 -0.5643  0.9803
  389MOL    H9147427   6.997   6.798   5.382 -0.5317  0.1294 -1.9154
  389MOL    C9247428   6.898   6.889   5.544 -0.4560  0.5754  0.0392
  389MOL    C9347429   6.959   6.811   5.670  0.2287  0.1423  0.0506
  389MOL    F9447430   6.875   6.807   5.774  0.1967 -0.1455 -0.3360
  389MOL    H9547431   6.877   6.992   5.576 -0.2130  0.3247  1.0407
  389MOL    H9647432   6.796   6.852   5.541  0.1902 -1.5805  2.5182
  389MOL    H9747433   7.046   6.874   5.690  1.5296 -0.8967 -2.0896
  389MOL    C9847434   7.000   6.660   5.645 -0.1978 -0.3487  0.0740
  389MOL    C9947435   6.891   6.569   5.597  0.2696 -0.3182 -0.1607
  389MOL   F10047436   6.852   6.614   5.480 -0.1316 -0.3426 -0.1143
  389MOL   H10147437   7.087   6.655   5.580  0.7631 -0.5943  1.3600
  389MOL   H10247438   7.038   6.616   5.737 -2.0618 -1.1867  0.4827
  389MOL   H10347439   6.794   6.576   5.645  1.3111  0.3712  1.9187
  389MOL   C10447440   6.927   6.420   5.588 -0.4497  0.3219  0.2188
  389MOL   C10547441   6.905   6.327   5.716 -0.0763  0.1011 -0.5646
  389MOL   F10647442   6.999   6.377   5.800 -0.0867 -0.0834 -0.1983
  389MOL   H10747443   6.867   6.378   5.508  1.0201  0.5892 -1.0475
  389MOL   H10847444   7.033   6.406   5.570 -0.3380  0.2667  0.8967
  389MOL   H10947445   6.936   6.230   5.678  1.4300 -0.2660  1.5017
  389MOL   C11047446   6.767   6.334   5.768 -0.6954  0.0773 -0.3122
  389MOL   C11147447   6.751   6.271   5.904 -0.6231 -0.0649 -0.1140
  389MOL   F11247448   6.651   6.318   5.979  0.3244  0.0375 -0.3341
  389MOL   H11347449   6.740   6.439   5.783  1.8466  0.8474 -0.9400
  389MOL   H11447450   6.697   6.300   5.691  1.2913 -0.7229 -1.7882
  389MOL   H11547451   6.836   6.278   5.972  1.6323  1.0965 -2.9248
  389MOL   C11647452   6.723   6.120   5.878  0.3704  0.3900 -0.1612
  389MOL   C11747453   6.726   6.037   6.008 -0.2144 -0.6166  0.0523
  389MOL   F11847454   6.701   5.911   5.986  0.1442  0.1259  0.4141
  389MOL   H11947455   6.625   6.105   5.832  1.1000 -2.5593 -0.8261
  389MOL   H12047456   6.792   6.083   5.803  0.9157  1.8086 -0.3715
  389MOL   H12147457   6.649   6.073   6.077  2.0341 -0.5700  2.6351
  389MOL   H12247458   6.816   6.052   6.067  0.1148 -2.2351 -0.0421
  390MOL     C147459   0.903   2.808   1.025  0.1721  0.1476 -0.3050
  390MOL     C247460   0.876   2.799   0.874 -0.2808 -0.2176 -0.5848
  390MOL     F347461   0.751   2.823   0.837 -0.2388 -0.2469  0.1405
  390MOL     H447462   0.911   2.912   1.058 -0.1848  0.0907 -0.0308
  390MOL     H547463   1.003   2.765   1.030 -0.9966 -2.7606 -0.5479
  390MOL     H647464   0.880   2.700   0.830 -0.5313 -0.3038 -0.4165
  390MOL     H747465   0.835   2.750   1.088  2.2726 -2.7831 -0.6462
  390MOL     C847466   0.970   2.875   0.785 -0.5421 -0.2868 -0.6776
  390MOL     C947467   1.117   2.836   0.797  0.0828  0.1670  0.0552
  390MOL    F1047468   1.129   2.704   0.808 -0.3245 -0.2718  0.5551
  390MOL    H1147469   0.929   2.864   0.685 -0.7635 -2.1596 -0.4015
  390MOL    H1247470   0.961   2.979   0.814 -1.8619 -0.6017  0.0955
  390MOL    H1347471   1.155   2.866   0.895  0.9489  0.5615 -0.3982
  390MOL    C1447472   1.218   2.897   0.698 -0.2527 -0.3151 -0.4134
  390MOL    C1547473   1.359   2.845   0.722 -0.0938  0.3019 -0.6361
  390MOL    F1647474   1.372   2.723   0.673 -0.2192  0.6328 -0.6558
  390MOL    H1747475   1.190   2.881   0.594 -1.9493  3.0687 -0.5580
  390MOL    H1847476   1.196   3.002   0.716 -1.9555 -1.1335  2.7384
  390MOL    H1947477   1.375   2.832   0.829  0.2994 -2.6115 -1.0283
  390MOL    C2047478   1.470   2.946   0.661 -0.3789 -0.0238 -0.0305
  390MOL    C2147479   1.493   3.075   0.731  0.0406  0.1770 -0.1495
  390MOL    F2247480   1.489   3.054   0.864 -0.3464 -0.4256 -0.7093
  390MOL    H2347481   1.569   2.900   0.655  0.5882  2.0726 -0.5299
  390MOL    H2447482   1.428   2.969   0.563 -1.4250 -0.5941  0.2758
  390MOL    H2547483   1.405   3.133   0.704 -1.4626 -2.3331 -0.8318
  390MOL    C2647484   1.615   3.143   0.677 -0.1096  0.3946  0.4503
  390MOL    C2747485   1.598   3.296   0.677 -0.6166  0.3741  0.3773
  390MOL    F2847486   1.604   3.339   0.806  0.2232 -0.0012 -0.2427
  390MOL    H2947487   1.706   3.112   0.729  0.7874  2.1409 -0.0384
  390MOL    H3047488   1.624   3.124   0.570  0.6332  0.8860  0.4250
  390MOL    H3147489   1.503   3.316   0.628 -0.4979 -0.2651 -0.1087
  390MOL    C3247490   1.715   3.361   0.592 -0.7412  0.7526  0.1084
  390MOL    C3347491   1.739   3.511   0.605  0.5643  0.8498 -0.4866
  390MOL    F3447492   1.758   3.544   0.735  0.2655 -1.0957 -0.1151
  390MOL    H3547493   1.810   3.309   0.605 -0.1631  1.9037  0.4967
  390MOL    H3647494   1.694   3.342   0.487  0.2915 -0.8146  0.1704
  390MOL    H3747495   1.649   3.563   0.572  0.4395  0.4133 -0.8393
  390MOL    C3847496   1.852   3.574   0.521 -0.0967  0.4903  0.4233
  390MOL    C3947497   1.843   3.726   0.527 -0.5623 -0.4074  0.0962
  390MOL    F4047498   1.958   3.780   0.484  0.4361 -0.2072 -0.3329
  390MOL    H4147499   1.946   3.544   0.568  0.9816 -0.2956 -2.1646
  390MOL    H4247500   1.853   3.532   0.420 -0.6010 -0.3349  0.7577
  390MOL    H4347501   1.836   3.762   0.630  1.5367 -2.4774  0.9877
  390MOL    C4447502   1.733   3.787   0.436  0.2753  0.2960 -0.3011
  390MOL    C4547503   1.649   3.899   0.500  0.2216 -1.1817  0.0816
  390MOL    F4647504   1.589   3.951   0.397  0.3890 -0.1287  0.1376
  390MOL    H4747505   1.787   3.831   0.352  0.9984 -1.1543 -0.6023
  390MOL    H4847506   1.671   3.712   0.386  0.3687  0.1841 -0.2481
  390MOL    H4947507   1.714   3.979   0.535  1.0376 -1.4633 -0.7640
  390MOL    C5047508   1.541   3.860   0.606  0.0518 -0.9160 -0.1109
  390MOL    C5147509   1.460   3.973   0.667 -0.1438  0.3186 -0.0177
  390MOL    F5247510   1.363   3.919   0.742  0.1859  0.3301  0.0844
  390MOL    H5347511   1.468   3.801   0.550 -0.1124 -0.2319 -0.6154
  390MOL    H5447512   1.583   3.794   0.683 -0.7200 -0.7714  0.4391
  390MOL    H5547513   1.411   4.029   0.588  0.0475  0.6388  0.0912
  390MOL    C5647514   1.524   4.060   0.770  0.7019  0.1002 -0.2382
  390MOL    C5747515   1.620   4.170   0.730  0.5894 -0.1107 -0.4868
  390MOL    F5847516   1.557   4.263   0.654 -0.5789 -0.4828  0.2193
  390MOL    H5947517   1.448   4.119   0.821  2.3225  0.3862  1.9448
  390MOL    H6047518   1.582   3.991   0.832  0.7065  0.2695 -0.0557
  390MOL    H6147519   1.698   4.132   0.665  1.3116  0.2281  0.1744
  390MOL    C6247520   1.678   4.249   0.851  0.6341  0.3966  0.5121
  390MOL    C6347521   1.774   4.358   0.801  0.2154  0.1271 -0.7699
  390MOL    F6447522   1.798   4.431   0.912  0.2620  0.5898 -0.3921
  390MOL    H6547523   1.599   4.279   0.920  1.7513  0.9816  1.5595
  390MOL    H6647524   1.735   4.184   0.916  2.4784  2.3865  0.9397
  390MOL    H6747525   1.724   4.424   0.730 -2.1481 -0.1267  0.6145
  390MOL    C6847526   1.908   4.321   0.740 -0.3283 -0.3685  0.0109
  390MOL    C6947527   2.002   4.433   0.693  0.7204 -0.1277  1.0251
  390MOL    F7047528   2.129   4.388   0.664 -0.1308 -0.8558  0.5039
  390MOL    H7147529   1.964   4.278   0.823  1.0367 -0.6965 -1.0552
  390MOL    H7247530   1.895   4.242   0.666  1.5801 -0.2687 -0.4627
  390MOL    H7347531   2.021   4.501   0.776  2.4144 -0.0971  0.6182
  390MOL    C7447532   1.939   4.503   0.571  0.5451  0.0162 -0.2136
  390MOL    C7547533   2.034   4.596   0.495  0.2842 -0.0223  0.0416
  390MOL    F7647534   1.963   4.656   0.405 -0.0372  0.2880 -0.0412
  390MOL    H7747535   1.907   4.432   0.495  1.2990 -1.1580  0.5463
  390MOL    H7847536   1.854   4.561   0.606 -1.4086 -2.5233 -0.6313
  390MOL    H7947537   2.109   4.545   0.435  0.0820  0.4208 -0.5882
  390MOL    C8047538   2.099   4.715   0.566  0.2884  0.4113  0.5961
  390MOL    C8147539   2.171   4.815   0.479  0.2373 -0.3965  0.0259
  390MOL    F8247540   2.185   4.919   0.563  0.0319 -0.0047  0.2371
  390MOL    H8347541   2.026   4.768   0.626  0.2186 -0.6778  1.4793
  390MOL    H8447542   2.172   4.671   0.633  2.4117  1.7984 -0.7263
  390MOL    H8547543   2.111   4.859   0.400 -0.9999  0.6367  1.5005
  390MOL    C8647544   2.297   4.746   0.425 -0.4929  0.4996  0.3460
  390MOL    C8747545   2.371   4.831   0.315  0.6505  0.2468 -0.3555
  390MOL    F8847546   2.423   4.940   0.375  0.4881 -0.2561  0.2646
  390MOL    H8947547   2.363   4.730   0.511 -1.9708 -3.8784  0.7928
  390MOL    H9047548   2.264   4.658   0.369 -1.1470  0.0873  1.3723
  390MOL    H9147549   2.307   4.873   0.237 -0.0326  0.7579  0.4731
  390MOL    C9247550   2.494   4.760   0.247  0.1288 -0.1484 -0.7444
  390MOL    C9347551   2.622   4.743   0.339 -0.4002  0.0034  0.5930
  390MOL    F9447552   2.619   4.644   0.427  0.3858 -0.1786 -0.0862
  390MOL    H9547553   2.471   4.660   0.209  1.9712 -1.0193  0.3853
  390MOL    H9647554   2.520   4.821   0.160  1.0139  0.0971 -0.3139
  390MOL    H9747555   2.629   4.835   0.398 -2.2127  1.1408 -0.9138
  390MOL    C9847556   2.746   4.740   0.250  0.1888  0.0956 -0.3344
  390MOL    C9947557   2.871   4.783   0.327  0.0989  1.2469 -0.2389
  390MOL   F10047558   2.971   4.756   0.249 -0.3289  0.0241  0.3987
  390MOL   H10147559   2.767   4.640   0.211  1.0515 -1.4346  3.7617
  390MOL   H10247560   2.736   4.810   0.168 -0.5453  0.8672  0.4084
  390MOL   H10347561   2.880   4.718   0.415 -0.2250 -0.2017 -1.2606
  390MOL   C10447562   2.878   4.933   0.363  0.3090  0.4684 -0.5433
  390MOL   C10547563   3.020   4.976   0.412  0.2025  0.6868  0.2029
  390MOL   F10647564   3.016   5.103   0.445 -0.3340 -0.5779  0.3320
  390MOL   H10747565   2.868   4.985   0.267 -0.2157  0.4938 -0.4765
  390MOL   H10847566   2.792   4.958   0.425  0.3514 -0.4796 -0.0950
  390MOL   H10947567   3.089   4.962   0.329  0.2769  1.1668  0.1809
  390MOL   C11047568   3.056   4.907   0.545 -0.2039 -0.0931  0.3686
  390MOL   C11147569   2.959   4.919   0.660  0.6966 -0.0485 -0.3464
  390MOL   F11247570   2.847   4.848   0.632  0.4549  0.0678 -0.2137
  390MOL   H11347571   3.090   4.804   0.537  1.5883  0.4336  0.9287
  390MOL   H11447572   3.150   4.951   0.580  0.8747 -1.3256 -0.9306
  390MOL   H11547573   2.932   5.019   0.691 -1.8497 -1.1977  1.3024
  390MOL   C11647574   3.017   4.852   0.786 -0.1373 -0.2338 -0.4324
  390MOL   C11747575   2.924   4.880   0.906  0.2084  0.0868 -0.0243
  390MOL   F11847576   2.989   4.832   1.012  0.3533  0.1801  0.8776
  390MOL   H11947577   3.035   4.747   0.761  1.5632  0.0980 -0.6323
  390MOL   H12047578   3.116   4.894   0.802 -0.0592 -0.7789  0.5442
  390MOL   H12147579   2.831   4.824   0.899  0.3257 -0.3688  1.8750
  390MOL   H12247580   2.898   4.985   0.926  0.1278 -0.3456  2.3256
  391MOL     C147581   6.398   1.231   4.933 -0.1303 -0.0197 -0.2792
  391MOL     C247582   6.397   1.091   5.000 -0.5007  0.1899  0.7672
  391MOL     F347583   6.272   1.056   5.004  0.1465  0.5788  0.1998
  391MOL     H447584   6.365   1.304   5.007 -3.1964 -1.2968 -0.3256
  391MOL     H547585   6.335   1.236   4.844  0.4616  2.4153 -0.6043
  391MOL     H647586   6.441   1.098   5.100  1.0657 -1.2404  0.1952
  391MOL     H747587   6.499   1.261   4.905 -0.4603 -0.9371 -2.5289
  391MOL     C847588   6.485   0.986   4.923  0.7418 -0.1181 -0.3158
  391MOL     C947589   6.644   0.990   4.955  1.1184  0.2421  0.0099
  391MOL    F1047590   6.647   0.972   5.086 -0.2847 -0.4244  0.2630
  391MOL    H1147591   6.456   0.883   4.943 -0.4257  0.1246 -0.7617
  391MOL    H1247592   6.471   1.002   4.816 -1.9435  0.2428  0.0523
  391MOL    H1347593   6.677   1.091   4.931 -2.7243  1.4831 -0.4642
  391MOL    C1447594   6.722   0.881   4.887  0.2129 -0.2335  0.0367
  391MOL    C1547595   6.737   0.912   4.734  0.1197  0.8986 -0.3169
  391MOL    F1647596   6.815   1.016   4.721  0.1518  0.7727 -0.4689
  391MOL    H1747597   6.821   0.864   4.930  0.3030  3.4249  1.4718
  391MOL    H1847598   6.672   0.784   4.888  0.1287 -0.1997 -0.6000
  391MOL    H1947599   6.637   0.945   4.707 -0.8989 -2.1965 -0.5323
  391MOL    C2047600   6.804   0.792   4.653  0.1835 -0.9565 -0.4301
  391MOL    C2147601   6.832   0.835   4.506  0.8410 -0.0458  0.4553
  391MOL    F2247602   6.923   0.741   4.454 -0.3132 -0.0620 -0.2505
  391MOL    H2347603   6.897   0.768   4.705  0.7686  1.8272 -0.0569
  391MOL    H2447604   6.746   0.700   4.650 -1.0786 -0.2361  0.7171
  391MOL    H2547605   6.887   0.928   4.509  2.4784 -0.8071 -2.7550
  391MOL    C2647606   6.705   0.840   4.415 -0.3910 -0.2563  0.2604
  391MOL    C2747607   6.718   0.936   4.302  0.2842 -1.0051  0.3983
  391MOL    F2847608   6.624   0.889   4.215 -0.0290  0.5839 -0.4103
  391MOL    H2947609   6.704   0.735   4.384  1.7740 -0.5616  1.1270
  391MOL    H3047610   6.613   0.856   4.471 -0.1681 -2.1905  1.2621
  391MOL    H3147611   6.814   0.940   4.250 -0.7451  0.0456 -1.4681
  391MOL    C3247612   6.688   1.074   4.337 -0.2742 -1.6129 -0.4635
  391MOL    C3347613   6.739   1.182   4.235  0.2386 -0.3721  0.6489
  391MOL    F3447614   6.865   1.169   4.208 -0.6349 -0.2924 -0.5521
  391MOL    H3547615   6.588   1.086   4.379  0.1192 -0.2792  0.0998
  391MOL    H3647616   6.741   1.107   4.426 -1.0295 -0.9161 -0.2659
  391MOL    H3747617   6.727   1.283   4.274  2.0068  0.2328 -0.3042
  391MOL    C3847618   6.667   1.186   4.099 -0.4884  0.0920  0.0660
  391MOL    C3947619   6.694   1.299   4.008 -0.0992 -1.1080  0.2380
  391MOL    F4047620   6.647   1.256   3.889 -0.7419  0.0663  0.3388
  391MOL    H4147621   6.694   1.091   4.053  0.3768  1.2240 -1.8224
  391MOL    H4247622   6.561   1.178   4.122 -0.1451  0.7068  1.9848
  391MOL    H4347623   6.803   1.307   4.002  0.1482 -3.8866  0.0730
  391MOL    C4447624   6.615   1.424   4.038  0.3992 -0.3192  0.5085
  391MOL    C4547625   6.637   1.531   3.931  0.0518  0.1745  0.3224
  391MOL    F4647626   6.559   1.637   3.954 -0.0188  0.2899 -0.2463
  391MOL    H4747627   6.510   1.393   4.036 -1.1072  4.2757  1.7319
  391MOL    H4847628   6.635   1.449   4.142  3.7116  1.0155 -0.3809
  391MOL    H4947629   6.587   1.499   3.840 -0.2053 -1.8850  1.1681
  391MOL    C5047630   6.783   1.580   3.910  0.8807  0.1882  0.0560
  391MOL    C5147631   6.813   1.687   3.809  0.0024  0.1433  0.8677
  391MOL    F5247632   6.942   1.718   3.834  0.1417  0.5415 -0.6758
  391MOL    H5347633   6.817   1.599   4.012 -0.6719 -0.6767  0.7579
  391MOL    H5447634   6.844   1.497   3.876  1.3329 -0.8013  3.1432
  391MOL    H5547635   6.774   1.786   3.837 -0.5584  0.9031 -2.3669
  391MOL    C5647636   6.793   1.647   3.662  0.1048  0.5299 -0.0613
  391MOL    C5747637   6.649   1.680   3.614  0.5993 -0.3078 -0.5577
  391MOL    F5847638   6.643   1.813   3.606 -0.1678 -0.0638 -0.2918
  391MOL    H5947639   6.865   1.704   3.603 -0.2935  2.3105  1.1332
  391MOL    H6047640   6.808   1.540   3.650  0.0459  0.3542  1.4362
  391MOL    H6147641   6.581   1.646   3.692  2.0194 -1.3860  0.2430
  391MOL    C6247642   6.625   1.609   3.478  0.6082  0.0377  0.8411
  391MOL    C6347643   6.500   1.660   3.401 -0.5585  0.4823 -0.0498
  391MOL    F6447644   6.500   1.792   3.391  0.2719  0.0651  0.1451
  391MOL    H6547645   6.707   1.616   3.407  1.2116 -0.0614  1.5184
  391MOL    H6647646   6.616   1.501   3.495  1.1120 -0.4970 -2.1286
  391MOL    H6747647   6.414   1.646   3.466  1.1221  1.5538  2.4813
  391MOL    C6847648   6.485   1.601   3.257 -0.2108  0.3446  0.3514
  391MOL    C6947649   6.454   1.448   3.270  0.2780  0.1367 -0.0086
  391MOL    F7047650   6.326   1.427   3.316 -0.1403 -0.2245 -0.6911
  391MOL    H7147651   6.406   1.654   3.204 -0.3249  1.2942  1.4390
  391MOL    H7247652   6.577   1.618   3.201 -0.0886 -2.2036 -0.2355
  391MOL    H7347653   6.518   1.400   3.344  0.0862 -1.0478 -0.5997
  391MOL    C7447654   6.486   1.366   3.132 -0.3838  0.0675 -0.3867
  391MOL    C7547655   6.463   1.214   3.137  0.2056  0.3307 -0.1620
  391MOL    F7647656   6.485   1.165   3.009 -0.2407  0.4726 -0.5412
  391MOL    H7747657   6.412   1.402   3.060  0.5306 -1.9737 -2.4055
  391MOL    H7847658   6.583   1.399   3.096 -0.1594  0.2579  0.3737
  391MOL    H7947659   6.361   1.195   3.171  0.1601  1.5450  0.3970
  391MOL    C8047660   6.554   1.141   3.244 -0.6424  0.2533  0.5292
  391MOL    C8147661   6.698   1.166   3.210 -0.8627  0.5282 -0.1143
  391MOL    F8247662   6.737   1.295   3.234  0.3279 -0.1796  0.2539
  391MOL    H8347663   6.523   1.168   3.345 -2.6474  0.0304  0.0037
  391MOL    H8447664   6.541   1.033   3.231 -2.3457  0.3800  1.0738
  391MOL    H8547665   6.722   1.145   3.106  0.8114 -1.4646  0.6469
  391MOL    C8647666   6.796   1.088   3.295  0.2587 -0.3019 -0.0445
  391MOL    C8747667   6.804   0.932   3.274  0.1332  0.7547  0.1431
  391MOL    F8847668   6.845   0.905   3.147 -0.0192 -0.6005 -0.0130
  391MOL    H8947669   6.895   1.132   3.283 -0.2023  0.4383 -1.2044
  391MOL    H9047670   6.779   1.114   3.399  0.8358  0.9684 -0.2595
  391MOL    H9147671   6.711   0.880   3.295  0.7100  0.6408  2.4709
  391MOL    C9247672   6.904   0.867   3.368  0.0018 -0.5580 -0.6009
  391MOL    C9347673   6.886   0.717   3.369  0.4400  0.2590 -0.4602
  391MOL    F9447674   6.907   0.655   3.254 -0.2752 -0.5069  0.2661
  391MOL    H9547675   7.002   0.915   3.367  0.4264 -1.3781  1.0785
  391MOL    H9647676   6.872   0.904   3.465  2.4582  3.2118 -1.1362
  391MOL    H9747677   6.785   0.695   3.403 -0.8210  1.1958 -3.4823
  391MOL    C9847678   6.990   0.659   3.464 -0.4576  0.0769  0.1263
  391MOL    C9947679   6.971   0.504   3.479 -0.3112  0.3142  0.3069
  391MOL   F10047680   7.083   0.456   3.519 -0.3649  0.0963 -0.1269
  391MOL   H10147681   7.088   0.672   3.418 -0.8296 -0.3170 -0.7868
  391MOL   H10247682   6.986   0.704   3.563  0.5686 -1.1756  0.7409
  391MOL   H10347683   6.942   0.448   3.390 -1.7712  1.0528  0.3012
  391MOL   C10447684   6.866   0.464   3.583 -0.2510  0.4094  0.2773
  391MOL   C10547685   6.845   0.316   3.613  0.5685  0.9961 -0.0181
  391MOL   F10647686   6.771   0.330   3.730  0.4107  0.4772 -0.6156
  391MOL   H10747687   6.899   0.499   3.681  1.7115  1.2828 -0.6697
  391MOL   H10847688   6.769   0.507   3.556  0.2862  1.4904  0.0546
  391MOL   H10947689   6.940   0.267   3.635  0.8225  1.7318  0.5337
  391MOL   C11047690   6.770   0.230   3.515  0.7581  0.3971  0.0771
  391MOL   C11147691   6.635   0.280   3.463 -0.1509 -0.0558 -0.8358
  391MOL   F11247692   6.648   0.379   3.372 -0.0535 -0.3879  0.5888
  391MOL   H11347693   6.829   0.208   3.426 -1.3244 -0.4014 -1.1400
  391MOL   H11447694   6.771   0.133   3.564 -1.2747 -0.0015 -0.6615
  391MOL   H11547695   6.583   0.334   3.543  2.6461  0.8823  0.4208
  391MOL   C11647696   6.537   0.175   3.417 -0.0141  0.6198  0.0267
  391MOL   C11747697   6.487   0.086   3.532 -0.2651 -0.1469  0.0769
  391MOL   F11847698   6.408   7.983   3.503 -0.5596 -0.2604 -0.2799
  391MOL   H11947699   6.447   0.213   3.368 -0.7396 -1.1338 -0.0108
  391MOL   H12047700   6.590   0.116   3.341  1.4038  1.0921  0.6302
  391MOL   H12147701   6.437   0.161   3.594 -0.1876 -0.1568  0.1516
  391MOL   H12247702   6.578   0.047   3.577 -0.9409 -0.3520  1.3054
  392MOL     C147703   1.905   2.976   1.496  0.3689 -0.4686  0.3728
  392MOL     C247704   1.980   2.976   1.629 -0.5396 -0.5948 -0.5160
  392MOL     F347705   1.900   2.907   1.710  0.1487  0.3865  0.3932
  392MOL     H447706   1.848   3.068   1.501  2.3952  0.7594  1.5152
  392MOL     H547707   1.843   2.887   1.487  0.4159 -0.9059  3.7387
  392MOL     H647708   1.991   3.077   1.667 -0.2512 -0.4873 -0.8838
  392MOL     H747709   1.982   2.988   1.419  1.5433  0.6950  1.6883
  392MOL     C847710   2.116   2.905   1.638 -0.1486  0.0280  0.0144
  392MOL     C947711   2.222   2.991   1.562  0.1267  0.0612  0.2396
  392MOL    F1047712   2.230   3.115   1.606  0.4782  0.2942  0.1475
  392MOL    H1147713   2.148   2.883   1.740 -1.1661 -0.0337  0.3308
  392MOL    H1247714   2.111   2.807   1.591 -0.5622 -0.0539  0.2278
  392MOL    H1347715   2.198   3.007   1.457 -0.6058  1.3754  0.5899
  392MOL    C1447716   2.372   2.934   1.567  0.2173 -1.0220 -0.5328
  392MOL    C1547717   2.442   2.946   1.702 -0.5260  0.7717 -0.3523
  392MOL    F1647718   2.378   2.865   1.786  0.2628  0.1145 -0.2824
  392MOL    H1747719   2.371   2.826   1.552  0.9585 -0.9332 -1.2162
  392MOL    H1847720   2.437   2.978   1.492 -1.3205 -0.8665 -1.7960
  392MOL    H1947721   2.447   3.048   1.741  0.5181  0.1685  1.1497
  392MOL    C2047722   2.590   2.919   1.706 -0.0062  0.2626 -0.0158
  392MOL    C2147723   2.639   2.903   1.857  0.1689  0.2196 -0.6026
  392MOL    F2247724   2.750   2.829   1.861  0.0138 -0.1192  0.1800
  392MOL    H2347725   2.615   2.826   1.653 -2.8849  0.1147 -1.1910
  392MOL    H2447726   2.657   2.991   1.658 -0.9707  0.1461 -1.5678
  392MOL    H2547727   2.562   2.852   1.915  0.1088 -2.1493 -2.6803
  392MOL    C2647728   2.668   3.037   1.930 -0.3447 -0.5473 -0.0887
  392MOL    C2747729   2.681   3.018   2.087  0.2100  0.1208  0.0298
  392MOL    F2847730   2.780   2.930   2.117 -0.3009  0.7082  0.1339
  392MOL    H2947731   2.751   3.096   1.892  0.1486 -0.0035  1.7613
  392MOL    H3047732   2.578   3.097   1.915  1.0560  1.3596 -1.0710
  392MOL    H3147733   2.592   2.974   2.132  0.0473 -0.7787 -1.1449
  392MOL    C3247734   2.711   3.146   2.157 -0.5444 -0.9898  0.5189
  392MOL    C3347735   2.607   3.253   2.152 -0.0535 -0.4879  0.5016
  392MOL    F3447736   2.500   3.198   2.210 -0.4974  0.2534  0.3032
  392MOL    H3547737   2.749   3.127   2.258 -1.2180  0.0386  0.9738
  392MOL    H3647738   2.792   3.178   2.092 -0.0271 -0.9356  1.1758
  392MOL    H3747739   2.583   3.272   2.047 -0.8218 -0.0141  0.7583
  392MOL    C3847740   2.648   3.382   2.218  0.1545  0.6081  0.0005
  392MOL    C3947741   2.785   3.443   2.175  0.7179 -0.6988  0.1568
  392MOL    F4047742   2.760   3.571   2.126  0.0125 -0.5434  0.2121
  392MOL    H4147743   2.569   3.454   2.197 -0.1934  0.7292  1.6105
  392MOL    H4247744   2.642   3.367   2.326 -0.8581 -0.9971 -0.2697
  392MOL    H4347745   2.834   3.383   2.099  1.4627 -0.4131  0.4093
  392MOL    C4447746   2.888   3.451   2.291 -0.1200  0.3720 -0.0991
  392MOL    C4547747   3.036   3.492   2.240 -0.7544 -0.5891  0.2638
  392MOL    F4647748   3.099   3.562   2.333 -0.2231  0.3216 -0.6368
  392MOL    H4747749   2.850   3.528   2.357 -0.4829 -0.0883  0.2336
  392MOL    H4847750   2.892   3.354   2.342  1.6166  0.1220 -0.6532
  392MOL    H4947751   3.025   3.568   2.162 -1.0350 -0.8692  0.0301
  392MOL    C5047752   3.127   3.385   2.182  0.0516 -0.8309  0.8607
  392MOL    C5147753   3.269   3.417   2.128  0.0133  0.4626  0.0421
  392MOL    F5247754   3.335   3.301   2.114  0.3182  0.6372  0.1523
  392MOL    H5347755   3.130   3.306   2.257 -0.6505 -0.0024  1.7821
  392MOL    H5447756   3.065   3.343   2.103 -0.0797  2.6110 -0.9751
  392MOL    H5547757   3.320   3.481   2.200  0.2768 -0.9016  1.0941
  392MOL    C5647758   3.248   3.489   1.992 -0.4449 -0.0497  0.7039
  392MOL    C5747759   3.379   3.494   1.912  0.4463  0.1902 -0.5674
  392MOL    F5847760   3.384   3.378   1.851  0.0244  0.8274 -0.0521
  392MOL    H5947761   3.172   3.449   1.926 -1.3284 -0.1501  1.7642
  392MOL    H6047762   3.214   3.592   2.009 -1.3834  0.3217 -3.0032
  392MOL    H6147763   3.463   3.502   1.981  0.1156 -1.4766  0.0417
  392MOL    C6247764   3.397   3.606   1.806 -0.4821 -0.0864 -0.6548
  392MOL    C6347765   3.427   3.744   1.866  0.1032  0.0465 -0.1369
  392MOL    F6447766   3.533   3.731   1.950 -0.5309 -0.1950 -0.4667
  392MOL    H6547767   3.480   3.582   1.739  0.3939  0.9505  0.0381
  392MOL    H6647768   3.317   3.610   1.733 -0.5211  1.2030 -0.5480
  392MOL    H6747769   3.338   3.769   1.924  0.5565 -1.8592  1.4242
  392MOL    C6847770   3.450   3.855   1.756 -0.5801  0.8330  0.6803
  392MOL    C6947771   3.325   3.903   1.682  0.0978  0.7640 -1.0788
  392MOL    F7047772   3.212   3.928   1.757  0.1399  0.3179 -0.2612
  392MOL    H7147773   3.486   3.944   1.807  0.1081  0.0348  1.5979
  392MOL    H7247774   3.531   3.828   1.688 -2.6972 -0.5588 -1.3780
  392MOL    H7347775   3.298   3.807   1.637  0.1869 -0.3948  1.2489
  392MOL    C7447776   3.338   4.004   1.570  0.1236 -0.2467  0.0018
  392MOL    C7547777   3.370   4.147   1.617 -0.4807  0.4395 -0.2785
  392MOL    F7647778   3.492   4.184   1.582  0.8357  0.0914 -0.1031
  392MOL    H7747779   3.419   3.975   1.503  1.0412 -0.5922  1.2518
  392MOL    H7847780   3.251   4.003   1.505  0.5280 -1.6129 -0.5326
  392MOL    H7947781   3.360   4.150   1.726 -0.4199 -0.6861 -0.2342
  392MOL    C8047782   3.277   4.261   1.560 -0.0835 -0.0093  0.0697
  392MOL    C8147783   3.132   4.268   1.599  0.0782 -0.7706 -0.4200
  392MOL    F8247784   3.082   4.146   1.564 -0.2253  0.5236 -0.0590
  392MOL    H8347785   3.322   4.358   1.584  1.1741 -0.1393 -1.6463
  392MOL    H8447786   3.282   4.262   1.452 -0.9881 -1.2560  0.0095
  392MOL    H8547787   3.087   4.350   1.543 -2.0729 -1.5491  0.1449
  392MOL    C8647788   3.116   4.299   1.744 -0.3536 -0.0946  0.1086
  392MOL    C8747789   2.973   4.325   1.779 -0.3927  0.1301  0.4430
  392MOL    F8847790   2.920   4.424   1.715 -0.0986 -0.2634 -0.0191
  392MOL    H8947791   3.149   4.213   1.802 -2.9760  1.0356  3.4699
  392MOL    H9047792   3.192   4.369   1.781  0.1770 -0.9816  0.7116
  392MOL    H9147793   2.969   4.362   1.882 -1.2083 -0.2026  0.5333
  392MOL    C9247794   2.875   4.209   1.757 -0.1218 -0.1586 -0.1333
  392MOL    C9347795   2.901   4.074   1.824  0.3041  0.3093 -0.5185
  392MOL    F9447796   2.908   4.093   1.962 -0.6040 -0.3494 -0.1255
  392MOL    H9547797   2.778   4.240   1.797 -0.3549  0.3151 -1.0555
  392MOL    H9647798   2.850   4.202   1.651 -1.5959  3.5149 -0.1059
  392MOL    H9747799   2.994   4.028   1.792 -0.3891 -1.7081  0.2588
  392MOL    C9847800   2.781   3.987   1.790 -0.2441  0.4633  0.0403
  392MOL    C9947801   2.803   3.842   1.821 -0.5588  0.1001  0.1288
  392MOL   F10047802   2.678   3.790   1.808 -0.1316  0.0202  0.5662
  392MOL   H10147803   2.692   4.021   1.843 -1.2645 -1.3187 -0.5011
  392MOL   H10247804   2.737   3.986   1.690  0.2814 -0.3090 -0.1873
  392MOL   H10347805   2.831   3.832   1.926  0.5618  0.5109 -0.1244
  392MOL   C10447806   2.903   3.770   1.721  0.3650  0.4162 -0.7353
  392MOL   C10547807   2.937   3.623   1.766 -0.3089  0.3361  0.2467
  392MOL   F10647808   2.981   3.636   1.890  0.4919 -0.1735  0.1809
  392MOL   H10747809   2.864   3.750   1.621  1.3281 -1.2621 -0.7946
  392MOL   H10847810   2.999   3.821   1.721  0.1955  0.7659 -3.2448
  392MOL   H10947811   3.016   3.589   1.700  2.1025  1.6308  2.3608
  392MOL   C11047812   2.812   3.523   1.760 -0.2049  0.0092  0.2890
  392MOL   C11147813   2.737   3.524   1.620 -0.4509  0.1656  0.2425
  392MOL   F11247814   2.820   3.532   1.515 -0.2566 -0.3227 -0.6550
  392MOL   H11347815   2.837   3.420   1.786  1.4791  0.2567 -0.2797
  392MOL   H11447816   2.739   3.557   1.834 -0.7042 -0.9178  0.2272
  392MOL   H11547817   2.679   3.616   1.625  0.1799  0.6067 -0.4531
  392MOL   C11647818   2.648   3.406   1.589 -0.6830 -0.2583  0.2473
  392MOL   C11747819   2.535   3.386   1.689 -0.0735  0.3773 -0.4068
  392MOL   F11847820   2.562   3.343   1.812  0.0903 -0.2309  0.3543
  392MOL   H11947821   2.597   3.420   1.493 -1.2535 -0.5041  0.5126
  392MOL   H12047822   2.713   3.319   1.589 -2.2979 -1.5390 -2.3289
  392MOL   H12147823   2.453   3.324   1.652 -0.3255  0.9879 -0.8876
  392MOL   H12247824   2.489   3.484   1.707 -0.4782 -0.4477  3.5419
  393MOL     C147825   5.231   0.881   7.474 -0.3911  0.0365 -0.7170
  393MOL     C247826   5.264   0.747   7.538  0.5556  0.1645  0.2948
  393MOL     F347827   5.160   0.709   7.615  0.1332  0.1633  0.6740
  393MOL     H447828   5.140   0.876   7.415 -0.0107 -2.9177 -1.1231
  393MOL     H547829   5.313   0.908   7.407 -1.5184 -0.5340 -2.3540
  393MOL     H647830   5.341   0.745   7.615  1.4107 -1.7565 -0.5849
  393MOL     H747831   5.203   0.955   7.549 -1.4649 -0.3562 -0.7310
  393MOL     C847832   5.303   0.649   7.432  0.2316 -0.0240 -1.0315
  393MOL     C947833   5.331   0.505   7.485 -0.5111  0.5723  0.0352
  393MOL    F1047834   5.219   0.449   7.533 -0.3136  0.1073 -0.3225
  393MOL    H1147835   5.237   0.634   7.347  0.7091 -0.2455 -1.3628
  393MOL    H1247836   5.404   0.681   7.407  0.6630 -0.5437  0.0172
  393MOL    H1347837   5.402   0.524   7.566 -1.6458  1.1138  0.9163
  393MOL    C1447838   5.379   0.406   7.374  0.2199 -0.5427  0.2294
  393MOL    C1547839   5.523   0.435   7.324  0.8061 -0.3037 -0.3494
  393MOL    F1647840   5.606   0.439   7.430  0.1071 -0.4405  0.2350
  393MOL    H1747841   5.384   0.310   7.426  0.6485 -1.5553 -1.6163
  393MOL    H1847842   5.308   0.402   7.292 -0.1768  0.2438  0.5285
  393MOL    H1947843   5.535   0.532   7.275  0.6371  0.3151  0.8270
  393MOL    C2047844   5.566   0.337   7.214 -0.8151 -0.1618 -0.9577
  393MOL    C2147845   5.721   0.324   7.196 -0.6152  0.7338 -0.2120
  393MOL    F2247846   5.773   0.245   7.290 -0.4940 -0.3266 -0.4880
  393MOL    H2347847   5.528   0.236   7.233 -0.4242  0.1504  1.7067
  393MOL    H2447848   5.521   0.380   7.125  2.5679 -0.1052 -2.6882
  393MOL    H2547849   5.753   0.427   7.213 -0.1671  0.7398 -1.0315
  393MOL    C2647850   5.759   0.284   7.055  0.0793 -0.2820  0.1315
  393MOL    C2747851   5.761   0.132   7.034 -0.9027  0.3382  0.3159
  393MOL    F2847852   5.647   0.084   7.055  0.2050 -0.1495  0.0337
  393MOL    H2947853   5.691   0.318   6.977  1.2009  1.8044  0.0189
  393MOL    H3047854   5.856   0.330   7.036  0.2407 -0.2872  0.8900
  393MOL    H3147855   5.829   0.086   7.106 -0.8425 -1.0403 -0.5999
  393MOL    C3247856   5.816   0.093   6.898 -0.6024  0.3337  0.2981
  393MOL    C3347857   5.722   0.099   6.780  0.4328 -0.2997  0.3494
  393MOL    F3447858   5.680   0.222   6.773  0.3723 -0.0283  0.4556
  393MOL    H3547859   5.909   0.140   6.867 -0.9244  0.7980  0.0444
  393MOL    H3647860   5.867   8.000   6.905  1.1332  1.0186 -2.4095
  393MOL    H3747861   5.630   0.043   6.797  0.8116 -1.6692 -1.9304
  393MOL    C3847862   5.792   0.057   6.642  0.2078 -0.7405  0.2744
  393MOL    C3947863   5.829   7.911   6.634 -1.1509  0.7413 -0.1410
  393MOL    F4047864   5.936   7.875   6.715  0.0420  0.2512 -0.3587
  393MOL    H4147865   5.726   0.087   6.561 -0.8582  1.1663  1.7856
  393MOL    H4247866   5.877   0.124   6.631 -0.4983  0.0150 -0.6375
  393MOL    H4347867   5.867   7.904   6.533 -0.0374  0.6806  0.2689
  393MOL    C4447868   5.701   7.820   6.648  0.2656 -0.1560 -0.3329
  393MOL    C4547869   5.711   7.674   6.588  0.4217 -0.6132  0.3910
  393MOL    F4647870   5.786   7.602   6.668 -0.0568  0.2475 -0.2956
  393MOL    H4747871   5.666   7.825   6.751 -0.3922  3.0652 -0.6441
  393MOL    H4847872   5.610   7.871   6.615  1.4417  2.4529  0.2996
  393MOL    H4947873   5.763   7.683   6.493  1.6685  1.1382  1.1992
  393MOL    C5047874   5.570   7.615   6.567  0.0676  0.2970  0.1277
  393MOL    C5147875   5.512   7.642   6.435 -0.3615  0.0284  0.6067
  393MOL    F5247876   5.597   7.583   6.349 -0.0242  0.4240 -0.1786
  393MOL    H5347877   5.575   7.506   6.573  1.3243  0.3823  0.7511
  393MOL    H5447878   5.495   7.652   6.638 -0.7457  1.0848 -1.1299
  393MOL    H5547879   5.503   7.748   6.413  2.1252  0.3020  0.6896
  393MOL    C5647880   5.375   7.576   6.398  0.3251  0.7837  0.0981
  393MOL    C5747881   5.250   7.642   6.459  0.3128  0.3653 -0.1772
  393MOL    F5847882   5.232   7.764   6.400  0.6760 -0.4206  0.2628
  393MOL    H5947883   5.358   7.577   6.290  1.7986 -0.2284 -0.1621
  393MOL    H6047884   5.369   7.468   6.415  0.3156  0.7500 -0.1175
  393MOL    H6147885   5.270   7.664   6.564  2.6181 -2.6083  0.0670
  393MOL    C6247886   5.125   7.555   6.434  0.0968 -0.0014 -0.5390
  393MOL    C6347887   4.978   7.609   6.466 -0.3524 -0.3138  0.3634
  393MOL    F6447888   4.935   7.697   6.383 -0.0974 -0.1294  0.3552
  393MOL    H6547889   5.130   7.528   6.328 -0.2670  1.8733 -1.0499
  393MOL    H6647890   5.142   7.458   6.481  0.3750  0.5143  0.4374
  393MOL    H6747891   4.982   7.649   6.568 -1.1849 -0.8033  0.6022
  393MOL    C6847892   4.871   7.498   6.464  0.2704  0.1925 -0.2179
  393MOL    C6947893   4.896   7.389   6.576 -0.2684  0.5534  0.3519
  393MOL    F7047894   4.904   7.449   6.694 -0.3248  0.1711  0.0043
  393MOL    H7147895   4.776   7.549   6.484  1.0214  1.3259  0.5748
  393MOL    H7247896   4.844   7.458   6.367 -0.0751 -2.2732  0.8555
  393MOL    H7347897   4.992   7.340   6.560  0.0348  1.0351  0.6988
  393MOL    C7447898   4.797   7.274   6.575 -0.2182  0.4777 -0.4064
  393MOL    C7547899   4.802   7.184   6.454 -0.6957 -0.1529  0.4011
  393MOL    F7647900   4.922   7.192   6.405 -0.1840 -0.0556  0.1053
  393MOL    H7747901   4.839   7.217   6.657 -0.1908  0.1050 -0.6762
  393MOL    H7847902   4.696   7.307   6.596 -1.0494 -0.9721 -1.9192
  393MOL    H7947903   4.740   7.219   6.371  1.3229 -0.0489 -1.1154
  393MOL    C8047904   4.751   7.044   6.487 -0.4816 -0.2343  0.0324
  393MOL    C8147905   4.743   6.938   6.378 -0.1893  0.0578 -0.0979
  393MOL    F8247906   4.856   6.936   6.309 -0.1972 -0.3179 -0.3052
  393MOL    H8347907   4.809   7.005   6.571 -2.1023  1.1312  1.8193
  393MOL    H8447908   4.646   7.052   6.515 -0.7037  0.6218 -1.0735
  393MOL    H8547909   4.666   6.963   6.305 -0.9085 -0.5336  0.4595
  393MOL    C8647910   4.727   6.798   6.437  0.5844 -0.0696  0.6504
  393MOL    C8747911   4.681   6.685   6.343 -0.7535  0.6082 -0.0524
  393MOL    F8847912   4.571   6.716   6.277  0.1475  0.1557 -0.4403
  393MOL    H8947913   4.818   6.770   6.490  0.6721 -1.0204  0.0159
  393MOL    H9047914   4.651   6.808   6.515  0.4091  0.7650  0.3808
  393MOL    H9147915   4.648   6.599   6.402  0.3394 -0.4290 -0.9100
  393MOL    C9247916   4.789   6.635   6.244  0.4690 -0.4651  0.7653
  393MOL    C9347917   4.764   6.510   6.175 -0.3108  0.6814  0.0755
  393MOL    F9447918   4.642   6.498   6.126  0.1481  0.0107 -0.5576
  393MOL    H9547919   4.818   6.708   6.168  2.9829 -0.9371  1.2379
  393MOL    H9647920   4.880   6.624   6.303  0.5322  2.1117  1.1685
  393MOL    H9747921   4.765   6.435   6.254 -1.1903  0.7066  0.1185
  393MOL    C9847922   4.872   6.475   6.064 -0.8186  0.3741 -0.1388
  393MOL    C9947923   4.929   6.335   6.080 -0.4447 -0.5220 -0.5494
  393MOL   F10047924   4.824   6.249   6.100  0.5067  0.2936  0.1978
  393MOL   H10147925   4.826   6.499   5.968 -1.2363  0.2783  0.0383
  393MOL   H10247926   4.954   6.547   6.071  0.9141 -1.6033  0.3687
  393MOL   H10347927   5.000   6.322   6.161 -1.3441  1.4285  0.6022
  393MOL   C10447928   4.993   6.297   5.952 -0.7634 -0.0404  0.0205
  393MOL   C10547929   5.058   6.164   5.930  0.4191 -0.1361  0.1209
  393MOL   F10647930   5.083   6.151   5.806 -0.0925  0.2141 -0.3664
  393MOL   H10747931   4.914   6.314   5.879  0.3211  0.1353 -1.1255
  393MOL   H10847932   5.066   6.375   5.930  0.1144 -0.6960  0.5565
  393MOL   H10947933   4.993   6.078   5.945 -0.1492  0.1177 -0.8684
  393MOL   C11047934   5.182   6.148   6.010  0.0374  0.5481 -0.1201
  393MOL   C11147935   5.174   6.055   6.134  0.1037  0.7040 -0.0229
  393MOL   F11247936   5.146   5.926   6.108  0.3085  0.3929 -0.0205
  393MOL   H11347937   5.257   6.122   5.935  0.6064 -0.3037  0.7281
  393MOL   H11447938   5.198   6.246   6.056  5.3867 -1.1767  2.1205
  393MOL   H11547939   5.078   6.082   6.178 -0.2613 -0.3036 -0.1950
  393MOL   C11647940   5.293   6.077   6.231  0.2642 -0.1629  0.4591
  393MOL   C11747941   5.294   5.995   6.364  0.0926  0.2635 -0.3579
  393MOL   F11847942   5.203   6.056   6.441 -0.2727 -0.2000 -0.0512
  393MOL   H11947943   5.383   6.038   6.183 -0.3839 -1.9689  0.7070
  393MOL   H12047944   5.316   6.182   6.249 -0.2153  0.1522 -0.7275
  393MOL   H12147945   5.386   5.990   6.422 -0.8514  2.8095  1.4344
  393MOL   H12247946   5.256   5.895   6.344  1.2198 -0.6642  2.0448
  394MOL     C147947   1.224   5.857   5.612  0.3583 -0.5971 -0.1154
  394MOL     C247948   1.332   5.755   5.660  0.7202 -0.1185 -0.2694
  394MOL     F347949   1.388   5.710   5.549  0.0128 -0.2638 -0.4332
  394MOL     H447950   1.161   5.827   5.528  0.7425  0.8171 -0.9278
  394MOL     H547951   1.271   5.951   5.582 -2.1570  1.2660  1.5570
  394MOL     H647952   1.271   5.674   5.699  0.9464 -0.4530 -0.5971
  394MOL     H747953   1.165   5.878   5.701  0.3225 -1.1003 -0.0187
  394MOL     C847954   1.441   5.806   5.754 -0.2091 -0.0710  0.0344
  394MOL     C947955   1.515   5.690   5.832 -0.4537 -0.0828  0.3331
  394MOL    F1047956   1.430   5.596   5.873  0.3842  0.3097  0.7681
  394MOL    H1147957   1.509   5.872   5.699 -0.3453  1.1678  1.3375
  394MOL    H1247958   1.393   5.871   5.827  0.7210  0.2232  0.3995
  394MOL    H1347959   1.569   5.724   5.920 -0.4842 -1.4096  0.8759
  394MOL    C1447960   1.609   5.615   5.733  0.1848 -0.0828  0.2468
  394MOL    C1547961   1.699   5.501   5.789 -0.0907 -0.0298 -0.0182
  394MOL    F1647962   1.761   5.434   5.693 -0.1675 -0.3678 -0.2623
  394MOL    H1747963   1.547   5.578   5.651 -1.2138  0.3956  1.0779
  394MOL    H1847964   1.667   5.696   5.690 -0.0463 -0.8325 -1.5328
  394MOL    H1947965   1.642   5.422   5.839 -0.2661 -0.2276 -0.5331
  394MOL    C2047966   1.809   5.548   5.877  0.4932  0.0977 -0.0359
  394MOL    C2147967   1.886   5.425   5.935  0.3656  0.0043 -0.8280
  394MOL    F2247968   2.000   5.461   5.993  0.5175  0.3682 -0.1783
  394MOL    H2347969   1.882   5.611   5.826  0.7326  0.6059  0.9251
  394MOL    H2447970   1.765   5.610   5.954 -0.4164 -0.3028 -0.2277
  394MOL    H2547971   1.931   5.358   5.862  1.9356 -0.1201  0.2253
  394MOL    C2647972   1.812   5.330   6.034 -0.1437  0.4122  0.2981
  394MOL    C2747973   1.728   5.400   6.144  0.4615  0.3552 -0.4655
  394MOL    F2847974   1.620   5.454   6.091  0.3364 -0.1521  0.4309
  394MOL    H2947975   1.752   5.262   5.974  0.0847 -0.9813  1.6199
  394MOL    H3047976   1.881   5.258   6.077  1.1112  1.3087 -0.1650
  394MOL    H3147977   1.788   5.483   6.182 -0.1373  0.8026 -0.4799
  394MOL    C3247978   1.680   5.302   6.253  0.5331  0.3189  0.6975
  394MOL    C3347979   1.590   5.181   6.212  0.2999  0.5207  0.9388
  394MOL    F3447980   1.586   5.102   6.322 -0.6487  0.0443 -0.0130
  394MOL    H3547981   1.764   5.253   6.303  0.6876 -1.1239 -0.9225
  394MOL    H3647982   1.634   5.358   6.334  0.0847  1.0834 -0.0779
  394MOL    H3747983   1.639   5.105   6.152 -0.8631 -1.3575  2.2936
  394MOL    C3847984   1.446   5.219   6.170 -0.8650  0.6968  0.2875
  394MOL    C3947985   1.355   5.102   6.136  0.2056  1.0024 -0.5761
  394MOL    F4047986   1.227   5.146   6.130 -0.0499  0.2848 -0.0323
  394MOL    H4147987   1.392   5.280   6.243  1.5806  2.4327  0.6877
  394MOL    H4247988   1.463   5.284   6.084  0.2686 -1.4239 -1.1400
  394MOL    H4347989   1.357   5.046   6.230  2.8904 -0.4863 -1.4832
  394MOL    C4447990   1.402   5.024   6.007 -0.1875 -0.3462  0.5381
  394MOL    C4547991   1.332   4.892   5.982 -0.6919 -0.7132 -0.5295
  394MOL    F4647992   1.357   4.848   5.852  0.3349  0.1713  0.0542
  394MOL    H4747993   1.390   5.084   5.916 -1.5768 -0.4133  0.6537
  394MOL    H4847994   1.506   4.994   6.016  0.5902  2.0053 -0.1151
  394MOL    H4947995   1.225   4.912   5.984 -0.5955 -0.0182 -1.8398
  394MOL    C5047996   1.376   4.772   6.071 -0.1430  0.2868  0.7487
  394MOL    C5147997   1.290   4.643   6.048 -0.3402  0.2878  0.5708
  394MOL    F5247998   1.336   4.536   6.114 -0.5315 -0.4238  0.0879
  394MOL    H5347999   1.481   4.747   6.054  0.1422 -0.0627  2.8838
  394MOL    H5448000   1.381   4.800   6.177 -1.2029  0.7879  0.6708
  394MOL    H5548001   1.297   4.608   5.945  0.3421  2.9469 -0.3483
  394MOL    C5648002   1.143   4.656   6.086  0.7333 -0.6002 -0.2408
  394MOL    C5748003   1.073   4.522   6.072  0.8109 -0.2653  0.5264
  394MOL    F5848004   0.959   4.538   6.148  0.2922  0.3390 -0.2024
  394MOL    H5948005   1.138   4.694   6.188 -0.7426  2.0828 -1.2548
  394MOL    H6048006   1.097   4.735   6.027  0.3148 -2.6340 -2.7728
  394MOL    H6148007   1.125   4.438   6.118  1.8764  0.0875 -0.0201
  394MOL    C6248008   1.039   4.487   5.926  0.3035 -0.3432  0.3208
  394MOL    C6348009   0.929   4.384   5.919  0.2388  0.4446 -0.4843
  394MOL    F6448010   0.881   4.380   5.795  0.0650 -0.2255  0.7787
  394MOL    H6548011   0.987   4.576   5.891  2.1262  0.7225  0.2471
  394MOL    H6648012   1.122   4.457   5.861 -0.1146 -0.7267 -0.0449
  394MOL    H6748013   0.850   4.423   5.984  0.9636  2.5169 -0.8206
  394MOL    C6848014   0.950   4.243   5.983 -0.1376  0.9460  0.2711
  394MOL    C6948015   1.073   4.166   5.936 -0.2509  1.1909 -0.0579
  394MOL    F7048016   1.174   4.225   6.000  0.1288  0.2672  0.5073
  394MOL    H7148017   0.960   4.244   6.092 -0.5428 -0.7512  0.3419
  394MOL    H7248018   0.861   4.180   5.985  0.4509  0.1056  0.4091
  394MOL    H7348019   1.091   4.160   5.829  0.2808 -0.5103  0.1125
  394MOL    C7448020   1.074   4.015   5.979  0.2241  0.2191  0.2144
  394MOL    C7548021   0.978   3.920   5.893 -0.1056  0.4843  0.8884
  394MOL    F7648022   1.007   3.911   5.761  0.2170  0.5389  0.1817
  394MOL    H7748023   1.176   3.978   5.969 -0.3619 -0.9360 -1.8495
  394MOL    H7848024   1.068   3.996   6.086  0.7104  2.3757  0.6460
  394MOL    H7948025   0.877   3.961   5.886 -0.5158 -0.7816 -0.8462
  394MOL    C8048026   0.984   3.775   5.953  0.1935  0.3433 -0.1167
  394MOL    C8148027   0.895   3.673   5.884  0.2344  0.2135  0.2064
  394MOL    F8248028   0.903   3.554   5.944  0.5927 -0.3959 -0.3679
  394MOL    H8348029   1.085   3.736   5.946  0.5103  0.9464  0.8974
  394MOL    H8448030   0.965   3.779   6.061 -1.9032  3.8964 -0.5155
  394MOL    H8548031   0.939   3.653   5.787 -0.2930 -1.0753  0.2257
  394MOL    C8648032   0.749   3.711   5.866  0.2932 -1.3758  0.5634
  394MOL    C8748033   0.671   3.721   5.998 -0.7887 -1.2837  0.6421
  394MOL    F8848034   0.717   3.828   6.068 -0.5466  0.1560  0.3809
  394MOL    H8948035   0.735   3.810   5.823  1.8439 -0.9519  0.9759
  394MOL    H9048036   0.704   3.628   5.811  0.6810 -1.6596  0.6626
  394MOL    H9148037   0.693   3.634   6.060  0.1678 -1.0273  0.6660
  394MOL    C9248038   0.518   3.744   5.952 -0.4294 -0.6099  0.9946
  394MOL    C9348039   0.443   3.620   5.916  0.1057 -0.4505 -0.6369
  394MOL    F9448040   0.450   3.529   6.012  0.0535  0.6628 -0.0778
  394MOL    H9548041   0.468   3.778   6.042 -1.3363 -1.0631  0.6647
  394MOL    H9648042   0.506   3.831   5.887 -1.0965 -0.3914  1.4134
  394MOL    H9748043   0.480   3.574   5.825  0.3012 -1.3038 -0.1320
  394MOL    C9848044   0.291   3.640   5.907 -0.0659 -0.6340 -0.5931
  394MOL    C9948045   0.251   3.756   5.816  0.1128  0.0359 -0.0637
  394MOL   F10048046   0.303   3.736   5.701 -0.2284 -0.0504  0.2950
  394MOL   H10148047   0.245   3.545   5.880 -1.4372 -1.0304  2.8881
  394MOL   H10248048   0.266   3.661   6.011  0.7281 -0.3684 -0.4508
  394MOL   H10348049   0.290   3.853   5.845  0.3299  0.0966 -0.5390
  394MOL   C10448050   0.093   3.760   5.808 -0.6654  0.4565  0.5023
  394MOL   C10548051   0.031   3.888   5.746  0.1928 -0.7133 -0.3376
  394MOL   F10648052   0.043   3.987   5.839  0.2304  0.1442 -0.4347
  394MOL   H10748053   0.058   3.689   5.733  0.2300  2.5295 -1.9803
  394MOL   H10848054   0.042   3.738   5.902  0.5963 -0.3304  1.0111
  394MOL   H10948055   7.929   3.869   5.729  0.2175  0.5751 -1.9645
  394MOL   C11048056   0.091   3.949   5.617 -0.3817  0.2309  0.7685
  394MOL   C11148057   0.073   3.871   5.487 -0.2700  0.3924  0.2657
  394MOL   F11248058   7.945   3.849   5.476  0.2129 -0.3626 -0.2721
  394MOL   H11348059   0.059   4.052   5.601  1.2405  0.7030  0.3941
  394MOL   H11448060   0.198   3.967   5.631 -0.5443  0.9592  1.1225
  394MOL   H11548061   0.120   3.774   5.502  1.1047  0.6284 -2.2848
  394MOL   C11648062   0.119   3.939   5.358  0.0524  0.0816 -0.8351
  394MOL   C11748063   0.105   3.857   5.232 -0.4470 -0.8593  0.2314
  394MOL   F11848064   0.128   3.930   5.129  0.4540 -0.2451 -0.2821
  394MOL   H11948065   0.071   4.035   5.342  1.2083  0.4753 -2.0023
  394MOL   H12048066   0.221   3.974   5.376 -1.4299  2.6649  3.2160
  394MOL   H12148067   0.014   3.797   5.223 -1.9604  1.2091  1.5120
  394MOL   H12248068   0.188   3.786   5.232 -0.9700 -1.4873  0.7603
  395MOL     C148069   2.022   2.237   0.159  0.3191 -0.0006 -0.8996
  395MOL     C248070   2.084   2.165   0.283  0.1586 -0.9564 -0.0920
  395MOL     F348071   2.069   2.038   0.257  0.4791 -0.0965 -0.4064
  395MOL     H448072   2.035   2.181   0.066 -0.7820 -1.8236  0.0037
  395MOL     H548073   2.071   2.332   0.139 -0.3834  0.5259 -0.1368
  395MOL     H648074   2.024   2.189   0.371 -0.7906 -2.1827 -0.3977
  395MOL     H748075   1.917   2.269   0.163  1.2362  3.1213 -0.6928
  395MOL     C848076   2.227   2.205   0.315  0.1667  0.3497 -0.9316
  395MOL     C948077   2.272   2.128   0.440 -0.0787 -0.0758  0.1581
  395MOL    F1048078   2.271   1.997   0.411 -0.3630 -0.1834  0.0107
  395MOL    H1148079   2.274   2.188   0.218 -0.8972 -0.0931 -1.3862
  395MOL    H1248080   2.236   2.313   0.326  1.1940  0.0764  1.0729
  395MOL    H1348081   2.203   2.148   0.522  0.3841  1.3508  0.2167
  395MOL    C1448082   2.422   2.153   0.490  0.5253  0.1776  0.2704
  395MOL    C1548083   2.444   2.112   0.641  1.0686  0.0346 -0.5639
  395MOL    F1648084   2.401   1.991   0.678  0.7043 -0.2874  0.2933
  395MOL    H1748085   2.485   2.103   0.417 -1.7260 -2.2164 -0.0932
  395MOL    H1848086   2.429   2.261   0.478 -3.0017  0.2937 -1.1853
  395MOL    H1948087   2.389   2.179   0.707  1.1203 -0.8974  0.4370
  395MOL    C2048088   2.588   2.132   0.685 -0.3263  0.1569  0.0193
  395MOL    C2148089   2.608   2.279   0.726  0.0174 -0.3156  0.5240
  395MOL    F2248090   2.560   2.317   0.844 -0.1602 -0.7924 -0.3980
  395MOL    H2348091   2.617   2.058   0.760  3.2997  0.2103 -1.2437
  395MOL    H2448092   2.646   2.101   0.598 -0.4108  0.9624 -0.3301
  395MOL    H2548093   2.565   2.345   0.651  0.2728  0.3384  0.9515
  395MOL    C2648094   2.755   2.316   0.746  1.5891 -0.1205  0.3810
  395MOL    C2748095   2.837   2.315   0.614  0.1616 -0.1177 -0.1520
  395MOL    F2848096   2.776   2.364   0.508  1.2318  0.0430 -0.5954
  395MOL    H2948097   2.765   2.419   0.781  1.3920 -0.1715  0.5875
  395MOL    H3048098   2.802   2.251   0.820  0.3670 -1.5229 -0.0518
  395MOL    H3148099   2.853   2.210   0.593 -0.4705  0.4483 -3.6546
  395MOL    C3248100   2.969   2.399   0.629 -0.2876  0.1728  0.0801
  395MOL    C3348101   3.055   2.394   0.500 -0.4110 -0.0092  0.6340
  395MOL    F3448102   2.996   2.446   0.398 -0.1634  0.7061 -0.0023
  395MOL    H3548103   2.949   2.505   0.645  1.7135  0.6014 -0.1134
  395MOL    H3648104   3.029   2.362   0.713 -0.5763 -0.6337 -0.0609
  395MOL    H3748105   3.083   2.292   0.476 -0.2400  0.5729 -1.7225
  395MOL    C3848106   3.197   2.451   0.520 -0.1324  0.1576  0.0992
  395MOL    C3948107   3.289   2.422   0.402 -0.0829 -0.0530 -0.9896
  395MOL    F4048108   3.265   2.497   0.294 -0.1603  0.0857  0.2596
  395MOL    H4148109   3.192   2.560   0.523  1.8697  0.3454 -1.7863
  395MOL    H4248110   3.237   2.429   0.618 -1.3281 -0.2738  0.4923
  395MOL    H4348111   3.272   2.320   0.367 -0.8062  0.1403 -1.2155
  395MOL    C4448112   3.437   2.439   0.441 -0.3212  0.4889  0.7317
  395MOL    C4548113   3.501   2.354   0.558  0.5296 -0.0144  0.6836
  395MOL    F4648114   3.486   2.405   0.684  0.9106 -0.3848 -0.0006
  395MOL    H4748115   3.483   2.407   0.347  0.3959 -2.3462  1.9922
  395MOL    H4848116   3.468   2.543   0.454 -3.8702  1.4495  1.9297
  395MOL    H4948117   3.610   2.357   0.553  0.6250  1.1011  2.6329
  395MOL    C5048118   3.453   2.204   0.561  0.6681  0.1020  0.3296
  395MOL    C5148119   3.530   2.119   0.667  0.5695 -0.0110  0.5041
  395MOL    F5248120   3.473   1.999   0.682  0.2283 -0.1005  0.0995
  395MOL    H5348121   3.346   2.185   0.564  0.7476 -0.4047  0.0633
  395MOL    H5448122   3.481   2.161   0.465  0.5745 -1.1025  0.8205
  395MOL    H5548123   3.508   2.166   0.762  2.1201 -0.0499  0.9037
  395MOL    C5648124   3.675   2.105   0.646 -0.6866  0.6374  0.1785
  395MOL    C5748125   3.739   2.011   0.749  0.3544 -0.1200  0.4591
  395MOL    F5848126   3.871   2.005   0.721  0.4320  0.2525  0.1631
  395MOL    H5948127   3.695   2.062   0.548 -0.2868 -1.1806  1.0344
  395MOL    H6048128   3.720   2.204   0.644  1.3948 -0.3242 -1.5105
  395MOL    H6148129   3.689   1.914   0.744 -1.2384  0.7809 -2.7976
  395MOL    C6248130   3.727   2.060   0.896  0.1416  0.5620 -0.1024
  395MOL    C6348131   3.814   1.976   0.993 -0.5903 -0.7562  0.6548
  395MOL    F6448132   3.822   2.042   1.107  0.2363  0.1528  0.5057
  395MOL    H6548133   3.740   2.168   0.904 -1.1584  0.9253 -2.6307
  395MOL    H6648134   3.623   2.054   0.927  0.3998 -1.1703  0.5134
  395MOL    H6748135   3.918   1.976   0.961 -0.5529  1.7629  0.6816
  395MOL    C6848136   3.753   1.835   1.003 -0.1522 -0.4945  0.5663
  395MOL    C6948137   3.818   1.747   1.110 -0.0190 -0.1019 -0.4723
  395MOL    F7048138   3.786   1.790   1.233 -0.5713 -0.0300  0.1289
  395MOL    H7148139   3.644   1.839   1.006 -0.1691  0.4292 -0.6779
  395MOL    H7248140   3.782   1.785   0.911 -0.5053 -0.9015  0.6764
  395MOL    H7348141   3.924   1.770   1.102  0.1979 -1.5968 -2.4285
  395MOL    C7448142   3.788   1.593   1.107  0.4644  0.2365  0.0651
  395MOL    C7548143   3.638   1.545   1.120 -0.1699  0.2814  0.2737
  395MOL    F7648144   3.585   1.581   1.005 -0.2020  0.4284  0.1908
  395MOL    H7748145   3.829   1.558   1.013  1.2933  2.4198 -0.4153
  395MOL    H7848146   3.843   1.529   1.175  0.7083  2.2509  1.8388
  395MOL    H7948147   3.594   1.610   1.195 -0.4122  2.2943 -1.5660
  395MOL    C8048148   3.610   1.393   1.154 -0.2190  0.4450  1.0480
  395MOL    C8148149   3.609   1.358   1.305  0.6428 -0.2881 -0.6234
  395MOL    F8248150   3.538   1.460   1.362  0.0621  0.0110 -0.2622
  395MOL    H8348151   3.508   1.370   1.124 -0.6712 -0.0090  2.8492
  395MOL    H8448152   3.682   1.326   1.109 -1.0845 -0.1322  0.5131
  395MOL    H8548153   3.713   1.362   1.339 -0.2032  2.3333  1.8787
  395MOL    C8648154   3.531   1.224   1.356  0.3836 -0.2314 -0.0659
  395MOL    C8748155   3.571   1.188   1.495  0.4991 -0.9203  0.7348
  395MOL    F8848156   3.523   1.271   1.580 -0.5081  0.0003  0.0127
  395MOL    H8948157   3.424   1.224   1.337  0.2176  1.5155  0.6810
  395MOL    H9048158   3.567   1.156   1.279 -0.4138 -1.1193  0.3391
  395MOL    H9148159   3.680   1.188   1.503  0.5333  0.0786  0.3430
  395MOL    C9248160   3.527   1.054   1.543 -0.4283 -0.4098  0.0067
  395MOL    C9348161   3.606   0.985   1.654  0.2697 -1.1908  1.0201
  395MOL    F9448162   3.730   0.968   1.609 -0.2283  0.0569  0.1790
  395MOL    H9548163   3.421   1.050   1.564 -0.2615  1.8238  1.4672
  395MOL    H9648164   3.536   0.990   1.455  0.1390  0.6188 -0.6970
  395MOL    H9748165   3.566   0.884   1.650  1.9918 -1.8756  0.5090
  395MOL    C9848166   3.600   1.043   1.797  0.2586 -0.1792 -0.0050
  395MOL    C9948167   3.463   1.027   1.863 -0.0548  0.3214  0.1139
  395MOL   F10048168   3.441   0.897   1.890  0.2451 -0.0399 -0.4252
  395MOL   H10148169   3.679   0.995   1.854  0.8435  3.2523  2.2486
  395MOL   H10248170   3.631   1.148   1.793  3.3543 -0.9266  2.5172
  395MOL   H10348171   3.386   1.066   1.796  0.3615  3.7819  1.5232
  395MOL   C10448172   3.463   1.107   2.000 -0.8243  0.3020 -0.2577
  395MOL   C10548173   3.328   1.119   2.074 -0.2840 -0.5977 -0.3217
  395MOL   F10648174   3.354   1.166   2.196  0.0524  0.2996 -0.2069
  395MOL   H10748175   3.536   1.063   2.067 -1.6662 -1.2340 -0.3305
  395MOL   H10848176   3.493   1.208   1.972 -0.2754 -0.2577 -1.7234
  395MOL   H10948177   3.283   1.020   2.087 -3.7475  1.1030  1.3918
  395MOL   C11048178   3.232   1.213   1.993 -0.0020 -0.1933  0.2177
  395MOL   C11148179   3.097   1.252   2.074 -0.1703 -0.6015  0.1113
  395MOL   F11248180   3.138   1.333   2.176 -0.1648  0.0518 -0.7160
  395MOL   H11348181   3.296   1.298   1.975  1.6795 -1.0139  2.1450
  395MOL   H11448182   3.216   1.168   1.894 -1.2492 -0.5712  0.5701
  395MOL   H11548183   3.050   1.160   2.110  1.5814 -1.5899 -0.0612
  395MOL   C11648184   2.995   1.323   1.985 -0.9888  0.2768 -0.2822
  395MOL   C11748185   2.850   1.317   2.036 -0.5930  0.2620  0.1501
  395MOL   F11848186   2.814   1.197   2.077 -0.3500 -0.3863 -0.3343
  395MOL   H11948187   3.033   1.425   1.976 -0.1620  0.4266  3.8762
  395MOL   H12048188   2.992   1.284   1.884 -0.0417  0.5989 -0.4454
  395MOL   H12148189   2.781   1.356   1.961 -0.8682 -1.1034 -0.3105
  395MOL   H12248190   2.831   1.380   2.124  0.5358 -0.1899  0.7217
  396MOL     C148191   5.206   5.682   7.479 -0.3004  0.4089  0.1790
  396MOL     C248192   5.231   5.577   7.364 -0.1884  0.1009 -0.3704
  396MOL     F348193   5.145   5.477   7.374 -0.8416 -0.2341 -0.4907
  396MOL     H448194   5.267   5.772   7.474 -1.2259  1.1247  1.5002
  396MOL     H548195   5.218   5.629   7.573 -0.3527 -1.7282 -0.9825
  396MOL     H648196   5.334   5.543   7.374 -0.8945 -2.0782 -0.0444
  396MOL     H748197   5.101   5.714   7.482 -0.0833  1.2239 -0.6250
  396MOL     C848198   5.208   5.637   7.222 -0.6674 -0.2712  0.2577
  396MOL     C948199   5.253   5.542   7.109  0.6226 -0.7509 -0.9671
  396MOL    F1048200   5.206   5.588   6.997 -0.1603 -0.0187 -0.1256
  396MOL    H1148201   5.104   5.663   7.200 -0.7010 -2.0201 -1.8868
  396MOL    H1248202   5.265   5.730   7.215 -0.3951 -0.5487 -1.6042
  396MOL    H1348203   5.205   5.446   7.129 -0.7044 -0.2032 -1.5052
  396MOL    C1448204   5.406   5.542   7.115 -0.1876 -0.1958 -0.3207
  396MOL    C1548205   5.479   5.475   6.994  1.1492  0.3342 -1.1164
  396MOL    F1648206   5.456   5.548   6.880  0.3414 -0.2534 -0.2304
  396MOL    H1748207   5.440   5.646   7.127 -0.6815 -0.1768  1.0010
  396MOL    H1848208   5.454   5.497   7.202 -0.7535  0.8918  0.5633
  396MOL    H1948209   5.439   5.376   6.973  2.2057 -0.6280  1.2944
  396MOL    C2048210   5.630   5.462   7.012 -0.0974  0.3060  0.2201
  396MOL    C2148211   5.710   5.421   6.892  0.0079 -0.3301  0.3281
  396MOL    F2248212   5.831   5.390   6.944  0.0345 -0.4165 -0.2222
  396MOL    H2348213   5.667   5.556   7.052 -1.8932  0.2064  2.1604
  396MOL    H2448214   5.657   5.387   7.086  1.7136  0.5703 -0.1430
  396MOL    H2548215   5.727   5.506   6.827  0.7658 -0.4294  0.3870
  396MOL    C2648216   5.662   5.296   6.807  0.4103 -0.2341 -0.5943
  396MOL    C2748217   5.745   5.280   6.678 -0.2119  0.4875  0.4348
  396MOL    F2848218   5.864   5.231   6.711 -0.5084 -0.4698  0.2932
  396MOL    H2948219   5.667   5.200   6.859  0.3324  1.1375  2.0598
  396MOL    H3048220   5.561   5.320   6.773  1.0214 -0.4623 -2.6035
  396MOL    H3148221   5.755   5.380   6.636  1.6783  1.1194  2.2758
  396MOL    C3248222   5.673   5.183   6.577 -0.2200  0.1552  0.7026
  396MOL    C3348223   5.731   5.195   6.436 -0.0955  0.0893  0.2365
  396MOL    F3448224   5.859   5.159   6.433  0.0262 -0.4054 -0.2895
  396MOL    H3548225   5.680   5.082   6.617 -0.4957  0.0509  0.4847
  396MOL    H3648226   5.569   5.216   6.576 -0.0456  0.7020  0.3566
  396MOL    H3748227   5.725   5.299   6.404  0.6562  0.9401  2.7349
  396MOL    C3848228   5.651   5.096   6.342  0.2365 -0.1192 -0.1204
  396MOL    C3948229   5.697   5.095   6.196  0.1788 -0.2984 -0.1432
  396MOL    F4048230   5.632   4.992   6.142  0.1210 -0.6615 -0.0091
  396MOL    H4148231   5.661   4.994   6.379  0.7630  0.1737  0.5778
  396MOL    H4248232   5.544   5.117   6.347 -0.0637 -0.9561 -2.4219
  396MOL    H4348233   5.805   5.080   6.203 -0.1045 -1.7936  1.3994
  396MOL    C4448234   5.665   5.229   6.118 -0.1637  0.2282 -0.4662
  396MOL    C4548235   5.701   5.226   5.970 -0.5466 -0.1254 -0.1853
  396MOL    F4648236   5.646   5.329   5.905 -0.3211 -0.0271 -0.0244
  396MOL    H4748237   5.561   5.257   6.139 -0.3058 -1.1668  0.8047
  396MOL    H4848238   5.731   5.298   6.170  1.2900 -1.0270 -0.6327
  396MOL    H4948239   5.665   5.141   5.913  0.2619 -0.6714  0.1137
  396MOL    C5048240   5.850   5.222   5.942 -0.2335 -0.7798 -0.3591
  396MOL    C5148241   5.887   5.180   5.801 -0.3884 -0.3596  0.4969
  396MOL    F5248242   5.831   5.068   5.764  0.1792 -0.1158 -0.0535
  396MOL    H5348243   5.895   5.315   5.977 -0.4501 -0.9608  0.4030
  396MOL    H5448244   5.905   5.152   6.005  2.7590 -0.2346 -2.2537
  396MOL    H5548245   5.993   5.163   5.816  0.2812  3.9642  1.4734
  396MOL    C5648246   5.875   5.278   5.683 -0.1232  0.3760  0.1504
  396MOL    C5748247   5.970   5.395   5.692  0.0029  0.3432  0.1240
  396MOL    F5848248   6.096   5.345   5.668 -0.4873 -0.0427  0.4907
  396MOL    H5948249   5.881   5.217   5.592 -0.4556 -0.6359  0.7969
  396MOL    H6048250   5.771   5.312   5.688 -0.2835 -0.1177  0.2805
  396MOL    H6148251   5.970   5.447   5.788  4.8741  1.9879 -0.5801
  396MOL    C6248252   5.937   5.498   5.577 -0.3392 -0.3668 -0.7216
  396MOL    C6348253   6.018   5.638   5.597  0.4383  1.3200  0.2540
  396MOL    F6448254   6.143   5.623   5.624  0.6368  0.6173 -0.0365
  396MOL    H6548255   5.958   5.442   5.485  0.7658 -2.0836  0.5391
  396MOL    H6648256   5.829   5.512   5.582 -0.5063 -1.2711 -1.4448
  396MOL    H6748257   5.973   5.701   5.674 -0.8160 -1.2618  1.7301
  396MOL    C6848258   6.010   5.723   5.463  0.6697  0.4709 -0.7369
  396MOL    C6948259   6.069   5.873   5.462  0.1949 -0.1951  0.1425
  396MOL    F7048260   6.109   5.911   5.336  0.2717 -0.4898 -0.2135
  396MOL    H7148261   6.070   5.657   5.402  1.5397 -0.3682  0.9962
  396MOL    H7248262   5.906   5.735   5.432  1.0054 -0.6677 -2.3423
  396MOL    H7348263   6.159   5.880   5.523 -1.0949 -1.5646  2.2774
  396MOL    C7448264   5.969   5.972   5.534 -0.2987 -0.4005 -0.3308
  396MOL    C7548265   5.998   6.120   5.502  0.3503  0.2216 -1.3608
  396MOL    F7648266   5.922   6.178   5.594 -0.1935 -0.7269 -0.3948
  396MOL    H7748267   5.865   5.962   5.501 -0.6492 -0.3300  0.7352
  396MOL    H7848268   5.969   5.950   5.641 -1.3651 -2.5165 -0.7227
  396MOL    H7948269   5.959   6.141   5.403 -1.7328  0.3923 -0.5186
  396MOL    C8048270   6.144   6.170   5.529 -1.3516 -0.8898 -0.4559
  396MOL    C8148271   6.159   6.328   5.532  0.6140  0.8709  0.0987
  396MOL    F8248272   6.270   6.359   5.598  0.1619 -0.1615  0.1272
  396MOL    H8348273   6.177   6.133   5.626 -0.8900 -0.3792 -0.4176
  396MOL    H8448274   6.205   6.124   5.452 -1.0803  0.1135 -0.8453
  396MOL    H8548275   6.080   6.361   5.600  0.9953  3.0705 -0.5069
  396MOL    C8648276   6.137   6.409   5.404 -0.1095  1.0952 -0.4688
  396MOL    C8748277   6.210   6.372   5.278  0.2090  0.3548  0.3564
  396MOL    F8848278   6.151   6.426   5.172 -0.1338 -0.0994 -0.0035
  396MOL    H8948279   6.033   6.397   5.375 -0.1110  1.4404 -0.6082
  396MOL    H9048280   6.143   6.516   5.425  3.9373  0.7099  0.9219
  396MOL    H9148281   6.202   6.264   5.268  1.2356  0.0577  2.4095
  396MOL    C9248282   6.356   6.411   5.279  0.0091 -0.0862 -0.1174
  396MOL    C9348283   6.425   6.403   5.148 -0.3545  1.1526  0.6881
  396MOL    F9448284   6.549   6.440   5.157 -0.0631  0.1580 -0.2186
  396MOL    H9548285   6.361   6.519   5.296 -0.2270 -0.2589  1.0943
  396MOL    H9648286   6.408   6.371   5.366  1.0897  2.2623  0.3770
  396MOL    H9748287   6.379   6.470   5.075 -1.5795 -1.7919 -1.2992
  396MOL    C9848288   6.419   6.266   5.082 -0.0137  0.2281  0.1707
  396MOL    C9948289   6.486   6.253   4.943 -0.2541  0.1712  0.0934
  396MOL   F10048290   6.613   6.281   4.957 -0.1920  0.1453 -0.3282
  396MOL   H10148291   6.475   6.199   5.148 -1.6630 -1.9908 -0.6485
  396MOL   H10248292   6.319   6.226   5.067 -0.2727  1.6477 -2.1294
  396MOL   H10348293   6.444   6.333   4.882  1.8311 -0.3352 -2.0628
  396MOL   C10448294   6.465   6.119   4.864  0.0135 -0.0796  0.0602
  396MOL   C10548295   6.500   5.995   4.945 -0.2577 -0.7708 -0.0398
  396MOL   F10648296   6.401   5.983   5.039  0.2218 -0.1027 -0.2084
  396MOL   H10748297   6.361   6.117   4.833 -0.6104 -1.2496  2.1831
  396MOL   H10848298   6.520   6.122   4.770 -0.1650  0.5032 -0.0308
  396MOL   H10948299   6.599   6.011   4.986  0.3620  1.2552 -2.2068
  396MOL   C11048300   6.516   5.881   4.848  0.2896 -0.7740 -0.0094
  396MOL   C11148301   6.557   5.753   4.930  0.6573  0.0396 -0.3603
  396MOL   F11248302   6.539   5.651   4.841 -0.0984  0.1961 -0.0457
  396MOL   H11348303   6.427   5.856   4.791 -0.4632 -0.7494  1.1457
  396MOL   H11448304   6.591   5.899   4.771 -0.9207  1.1541 -0.7813
  396MOL   H11548305   6.474   5.740   4.999  1.9744  0.5906  1.3673
  396MOL   C11648306   6.700   5.753   4.998  0.3073  0.2272  0.0067
  396MOL   C11748307   6.733   5.627   5.090  0.5929 -0.3645  0.3415
  396MOL   F11848308   6.849   5.643   5.152  0.1045  0.0668 -0.0932
  396MOL   H11948309   6.785   5.764   4.930 -0.1795 -2.9263 -1.1927
  396MOL   H12048310   6.712   5.838   5.065  1.1965 -0.5373  0.8245
  396MOL   H12148311   6.733   5.536   5.029  0.3579 -1.4804  1.9859
  396MOL   H12248312   6.665   5.612   5.174 -0.0681 -3.2368 -0.6355
  397MOL     C148313   5.883   5.408   2.065 -0.1470  0.7407  0.2721
  397MOL     C248314   5.978   5.294   2.099  0.1948 -0.6308 -0.2544
  397MOL     F348315   6.046   5.341   2.201  0.7044 -0.1104 -0.1890
  397MOL     H448316   5.853   5.400   1.961 -1.1282 -1.3617  0.6942
  397MOL     H548317   5.919   5.511   2.075  3.8371 -0.5687  0.4070
  397MOL     H648318   6.056   5.280   2.025  1.2395  0.3320  0.6510
  397MOL     H748319   5.795   5.412   2.129 -0.6048  2.6214 -0.4451
  397MOL     C848320   5.916   5.161   2.145  0.8495  0.0464  0.2889
  397MOL     C948321   5.856   5.069   2.035  0.1428  0.4123  0.4168
  397MOL    F1048322   5.962   5.019   1.964 -0.7918 -0.0868 -0.1961
  397MOL    H1148323   5.995   5.105   2.194 -0.7476 -3.4885 -1.0073
  397MOL    H1248324   5.837   5.183   2.217  0.5847  2.1455 -0.5798
  397MOL    H1348325   5.787   5.125   1.971 -0.1103 -0.2663  0.0940
  397MOL    C1448326   5.769   4.955   2.077 -0.3663  0.3960 -0.1038
  397MOL    C1548327   5.840   4.854   2.163  0.9025 -0.0156 -0.2245
  397MOL    F1648328   5.875   4.909   2.279 -0.0923  0.2033  0.1182
  397MOL    H1748329   5.674   4.991   2.115 -0.1948  2.9647 -1.9407
  397MOL    H1848330   5.739   4.912   1.982  0.2707 -0.6880  0.1806
  397MOL    H1948331   5.927   4.832   2.100  1.4285  0.3613  0.3669
  397MOL    C2048332   5.759   4.725   2.199  0.4130  0.4975  0.0965
  397MOL    C2148333   5.728   4.630   2.085  0.1917  1.0016 -0.0905
  397MOL    F2248334   5.841   4.571   2.046  0.4443  0.3200  0.6449
  397MOL    H2348335   5.810   4.664   2.272 -0.2423  0.2926  0.3839
  397MOL    H2448336   5.662   4.746   2.243  0.0450 -1.0832  0.0427
  397MOL    H2548337   5.722   4.699   2.001  2.3304  0.8929 -0.3614
  397MOL    C2648338   5.602   4.545   2.111  0.0132  0.2849 -0.5951
  397MOL    C2748339   5.572   4.446   2.002 -0.6196  0.6399 -0.0122
  397MOL    F2848340   5.668   4.353   2.006  0.0065  0.2271 -0.1899
  397MOL    H2948341   5.611   4.474   2.193 -1.3093 -0.7760 -1.3361
  397MOL    H3048342   5.521   4.608   2.145 -0.9302 -0.8308 -0.7398
  397MOL    H3148343   5.578   4.491   1.903 -2.8818  1.4967  0.2125
  397MOL    C3248344   5.433   4.381   2.022  0.6768  0.4754  0.1139
  397MOL    C3348345   5.401   4.249   1.931  0.2883  0.8530  0.1516
  397MOL    F3448346   5.303   4.178   1.975  0.2059  0.4252 -0.2010
  397MOL    H3548347   5.405   4.355   2.124  0.3815  0.4458  0.0241
  397MOL    H3648348   5.364   4.461   1.996  0.4117 -0.4724 -2.1999
  397MOL    H3748349   5.485   4.182   1.946 -0.4774 -0.6108 -1.8542
  397MOL    C3848350   5.381   4.285   1.780 -0.2956  0.3194 -0.2262
  397MOL    C3948351   5.262   4.382   1.748 -0.3059  0.2026 -0.5319
  397MOL    F4048352   5.301   4.511   1.760  0.3092  0.6064  0.1336
  397MOL    H4148353   5.473   4.336   1.754  0.6587 -1.2868 -0.0972
  397MOL    H4248354   5.375   4.202   1.709  1.4406 -0.5178  0.5590
  397MOL    H4348355   5.187   4.350   1.821 -1.4031 -0.0216 -1.7264
  397MOL    C4448356   5.209   4.334   1.612 -0.0501 -0.9305 -0.7512
  397MOL    C4548357   5.093   4.414   1.558  0.1467  0.0255 -0.0228
  397MOL    F4648358   5.070   4.380   1.438 -0.4314  0.1723 -0.5446
  397MOL    H4748359   5.288   4.335   1.537 -0.9443 -0.3313 -1.7015
  397MOL    H4848360   5.170   4.232   1.612 -1.5297 -0.3833 -1.5340
  397MOL    H4948361   5.121   4.520   1.564 -0.1214  0.1154 -0.3163
  397MOL    C5048362   4.966   4.394   1.643  0.0497  0.0700 -0.6955
  397MOL    C5148363   4.863   4.507   1.629  0.1552 -0.1135 -0.1847
  397MOL    F5248364   4.925   4.624   1.653  0.1717 -0.2153 -0.2773
  397MOL    H5348365   4.933   4.291   1.633 -0.2228  0.1832 -0.9413
  397MOL    H5448366   4.996   4.405   1.747  0.4048  0.2497 -0.8171
  397MOL    H5548367   4.782   4.489   1.699 -0.2534  3.6389  0.4324
  397MOL    C5648368   4.801   4.510   1.483  0.8981  0.0178  0.1723
  397MOL    C5748369   4.731   4.378   1.430  0.3502  0.2816 -0.7794
  397MOL    F5848370   4.643   4.337   1.532  0.3119  0.1442 -0.5103
  397MOL    H5948371   4.727   4.589   1.476 -1.0219 -1.7078  0.7012
  397MOL    H6048372   4.882   4.521   1.410 -0.0890  2.7651 -0.5746
  397MOL    H6148373   4.797   4.291   1.427 -0.1694 -0.2684  1.7561
  397MOL    C6248374   4.645   4.391   1.305  0.0869  0.3651  0.2895
  397MOL    C6348375   4.555   4.508   1.292 -0.2691  0.6662 -0.2284
  397MOL    F6448376   4.636   4.607   1.250 -0.2656  0.1809 -0.1856
  397MOL    H6548377   4.713   4.396   1.220  2.2032  1.0897  1.9704
  397MOL    H6648378   4.586   4.300   1.289  2.3124 -1.0533  0.0259
  397MOL    H6748379   4.502   4.525   1.386 -0.7758 -0.9857 -0.1882
  397MOL    C6848380   4.445   4.488   1.188  1.0734  0.1045 -0.7620
  397MOL    C6948381   4.479   4.497   1.041  0.4569  0.7404  0.8144
  397MOL    F7048382   4.575   4.406   1.015  0.1557 -0.2530 -0.2056
  397MOL    H7148383   4.394   4.395   1.214 -2.1373  1.7808 -0.8384
  397MOL    H7248384   4.390   4.576   1.221  3.1679  1.3589 -0.5085
  397MOL    H7348385   4.517   4.596   1.017  4.3712 -0.9616 -0.6117
  397MOL    C7448386   4.354   4.456   0.949  0.8961 -0.0072 -0.3833
  397MOL    C7548387   4.371   4.477   0.801 -0.8019  0.5837 -0.4414
  397MOL    F7648388   4.481   4.416   0.750 -0.0261  0.1614  0.3791
  397MOL    H7748389   4.330   4.353   0.972  0.0065  0.5400  1.2390
  397MOL    H7848390   4.279   4.533   0.965  2.9278  1.6067  1.9372
  397MOL    H7948391   4.388   4.583   0.781 -0.4575  0.5401 -0.3849
  397MOL    C8048392   4.246   4.432   0.724  0.5197  0.6027 -0.0297
  397MOL    C8148393   4.215   4.281   0.744 -0.2491 -0.2768 -0.1630
  397MOL    F8248394   4.166   4.255   0.864 -0.1651  0.1877 -0.3570
  397MOL    H8348395   4.160   4.487   0.762 -1.2316 -1.4275 -0.9571
  397MOL    H8448396   4.250   4.451   0.617  1.6260  0.9566  0.0613
  397MOL    H8548397   4.313   4.235   0.730  0.4819  1.4104 -0.7118
  397MOL    C8648398   4.113   4.222   0.646 -0.2081 -0.1542  0.5371
  397MOL    C8748399   3.964   4.256   0.684 -0.4210 -0.0920  0.3223
  397MOL    F8848400   3.940   4.386   0.656  0.5009 -0.2616 -0.1566
  397MOL    H8948401   4.150   4.251   0.547  1.4185 -2.6572  0.3675
  397MOL    H9048402   4.126   4.114   0.648  3.0035  0.1383 -1.4624
  397MOL    H9148403   3.937   4.246   0.789  1.2425  0.9729  0.8681
  397MOL    C9248404   3.865   4.178   0.595  0.0922 -0.4935 -0.0392
  397MOL    C9348405   3.716   4.207   0.605 -0.0057  0.3890  0.3435
  397MOL    F9448406   3.652   4.137   0.511  0.2102 -0.7041  0.1916
  397MOL    H9548407   3.886   4.190   0.489 -1.1379  0.3453 -0.1969
  397MOL    H9648408   3.889   4.072   0.606  2.1036 -0.1020 -0.4042
  397MOL    H9748409   3.704   4.312   0.579 -0.4364  0.0510 -0.8339
  397MOL    C9848410   3.664   4.178   0.744  0.2994  0.7504 -0.0432
  397MOL    C9948411   3.512   4.206   0.762 -0.4942  0.0541  0.0432
  397MOL   F10048412   3.486   4.328   0.717  0.0226 -0.4895  0.2292
  397MOL   H10148413   3.682   4.073   0.770  0.1443  0.5029 -0.8988
  397MOL   H10248414   3.721   4.230   0.821  0.2313 -1.2682  1.4266
  397MOL   H10348415   3.489   4.193   0.867  0.0465 -2.7523 -0.1566
  397MOL   C10448416   3.408   4.127   0.680  0.3886  0.2004  0.1600
  397MOL   C10548417   3.403   3.975   0.701 -0.6102 -0.0063 -0.3506
  397MOL   F10648418   3.399   3.957   0.836  0.0149  0.1022 -0.2292
  397MOL   H10748419   3.309   4.155   0.714  0.5984 -0.6364  1.5140
  397MOL   H10848420   3.413   4.156   0.575 -0.5473  1.8615  0.5674
  397MOL   H10948421   3.496   3.934   0.661 -1.3404  0.6085 -2.7138
  397MOL   C11048422   3.276   3.909   0.641  0.0380  0.0558  0.5114
  397MOL   C11148423   3.274   3.908   0.481  0.0655  0.8461 -0.3705
  397MOL   F11248424   3.272   4.036   0.441 -0.6496  0.3354 -0.1482
  397MOL   H11348425   3.268   3.802   0.658 -2.1834  0.2680  0.9756
  397MOL   H11448426   3.188   3.954   0.688 -1.1856  1.3113 -2.7946
  397MOL   H11548427   3.180   3.866   0.445 -0.0744  0.7862  0.0651
  397MOL   C11648428   3.403   3.841   0.415  0.2103  0.1842  0.1156
  397MOL   C11748429   3.401   3.690   0.420  0.7875  0.5067 -0.3789
  397MOL   F11848430   3.505   3.633   0.361 -0.1669 -0.1968  0.7420
  397MOL   H11948431   3.423   3.887   0.318 -2.8054  2.5836  0.5683
  397MOL   H12048432   3.493   3.870   0.468  2.0424 -2.3867 -1.4311
  397MOL   H12148433   3.312   3.653   0.368 -0.2172  0.9970  0.9648
  397MOL   H12248434   3.397   3.661   0.524 -0.9102  1.6813 -0.0789
  398MOL     C148435   1.755   5.950   6.018  0.0271 -0.3700 -0.1224
  398MOL     C248436   1.801   5.861   6.134 -1.3453 -0.2139  0.4891
  398MOL     F348437   1.923   5.819   6.099  0.0311  0.4224 -0.3081
  398MOL     H448438   1.771   5.913   5.917  0.8018 -1.6466  0.4591
  398MOL     H548439   1.821   6.037   6.013 -0.7958  0.1855 -1.4265
  398MOL     H648440   1.744   5.769   6.141 -2.4148  0.4791  1.1489
  398MOL     H748441   1.652   5.982   6.034  0.4127  0.4615  0.7371
  398MOL     C848442   1.802   5.924   6.275  0.0927 -0.2621  0.5210
  398MOL     C948443   1.659   5.956   6.322 -0.0833 -0.1786  0.0891
  398MOL    F1048444   1.584   5.847   6.307 -0.2091 -0.0254  0.2411
  398MOL    H1148445   1.848   5.854   6.345  1.0149  0.1243  0.3196
  398MOL    H1248446   1.874   6.007   6.274  1.7488 -1.6709 -0.1991
  398MOL    H1348447   1.625   6.035   6.255  1.1189 -0.4635 -0.8847
  398MOL    C1448448   1.641   5.995   6.474  0.1545  0.1563 -0.9485
  398MOL    C1548449   1.500   6.013   6.530 -0.5076  0.3287  0.0220
  398MOL    F1648450   1.514   6.025   6.660 -0.1544 -0.2328  0.0524
  398MOL    H1748451   1.678   5.906   6.525  0.6229  0.7140 -0.3125
  398MOL    H1848452   1.707   6.081   6.485  0.1563  0.3089 -2.0417
  398MOL    H1948453   1.443   5.921   6.513  0.4933  0.0914 -2.1469
  398MOL    C2048454   1.424   6.131   6.481 -0.0845  0.2392  0.2222
  398MOL    C2148455   1.502   6.261   6.516 -0.4267  0.4135 -0.0358
  398MOL    F2248456   1.602   6.279   6.424  0.3636 -0.2506 -0.1039
  398MOL    H2348457   1.404   6.128   6.374  3.2558  0.1782 -0.4518
  398MOL    H2448458   1.333   6.130   6.541 -0.9089  0.0014 -1.0206
  398MOL    H2548459   1.548   6.253   6.615 -1.1936  0.2924  0.3101
  398MOL    C2648460   1.418   6.392   6.509 -0.0290  0.7363 -1.4554
  398MOL    C2748461   1.490   6.519   6.555 -0.0582 -0.3495 -0.1101
  398MOL    F2848462   1.420   6.626   6.513 -0.5977  0.7510  0.2962
  398MOL    H2948463   1.395   6.401   6.403 -1.9125  1.6523 -0.9812
  398MOL    H3048464   1.323   6.375   6.560 -0.5860  1.5629 -2.2116
  398MOL    H3148465   1.592   6.534   6.520 -0.1832  0.5696 -0.0883
  398MOL    C3248466   1.495   6.534   6.704 -0.6466 -0.5439  0.0507
  398MOL    C3348467   1.536   6.678   6.749 -0.5731 -0.4112 -0.1536
  398MOL    F3448468   1.520   6.669   6.882  0.5774 -0.4578  0.6585
  398MOL    H3548469   1.391   6.519   6.732 -0.7417 -0.5437 -0.2939
  398MOL    H3648470   1.562   6.461   6.751 -1.7983 -1.7797 -0.2007
  398MOL    H3748471   1.468   6.750   6.703  1.6751  0.4323 -2.2967
  398MOL    C3848472   1.686   6.714   6.720 -0.5858 -0.2058 -0.5550
  398MOL    C3948473   1.733   6.828   6.811  0.1354  0.6836 -0.4579
  398MOL    F4048474   1.866   6.819   6.804 -0.9892 -0.1058  0.0086
  398MOL    H4148475   1.750   6.628   6.739  1.2471  1.3607  0.5499
  398MOL    H4248476   1.698   6.740   6.615 -0.0586  1.3152 -0.1393
  398MOL    H4348477   1.696   6.815   6.912  0.1428 -0.7931 -0.6345
  398MOL    C4448478   1.699   6.967   6.754 -0.3409 -0.7012 -0.0248
  398MOL    C4548479   1.706   7.075   6.862  0.3598  0.1713  0.7398
  398MOL    F4648480   1.718   7.199   6.800  0.1185  0.3279  0.5809
  398MOL    H4748481   1.773   6.996   6.680  1.6744 -3.0381  0.9912
  398MOL    H4848482   1.606   6.952   6.699 -0.8515  0.9938  0.3693
  398MOL    H4948483   1.792   7.046   6.922 -0.0045 -1.1472  0.6486
  398MOL    C5048484   1.584   7.077   6.964 -0.3511  0.3486  0.2865
  398MOL    C5148485   1.453   7.122   6.891 -0.3539  0.1085  0.0715
  398MOL    F5248486   1.403   7.005   6.851 -0.3033  0.4755 -0.2684
  398MOL    H5348487   1.572   6.989   7.028  1.1318  0.3740  0.6153
  398MOL    H5448488   1.608   7.159   7.031 -0.0054  0.4322  0.0627
  398MOL    H5548489   1.482   7.182   6.805  1.3533  0.8635  1.1425
  398MOL    C5648490   1.354   7.193   6.986 -0.3074 -0.5290  0.1627
  398MOL    C5748491   1.208   7.187   6.938 -0.2563  0.4585  0.1669
  398MOL    F5848492   1.157   7.061   6.916 -0.3845  0.9143 -0.1405
  398MOL    H5948493   1.341   7.146   7.083 -1.4652 -1.9292 -0.6385
  398MOL    H6048494   1.384   7.296   7.003 -0.6147  0.0529 -2.6174
  398MOL    H6148495   1.189   7.241   6.846  0.2683 -1.2402 -0.9489
  398MOL    C6248496   1.103   7.243   7.043 -0.3524  0.7218  0.2648
  398MOL    C6348497   1.105   7.392   7.066 -0.2211 -0.9825  0.0839
  398MOL    F6448498   1.085   7.452   6.948 -0.4437  0.0022  0.0604
  398MOL    H6548499   1.005   7.207   7.011 -0.3317 -0.4569  1.4489
  398MOL    H6648500   1.127   7.185   7.132  0.9061  0.8625  0.0227
  398MOL    H6748501   1.194   7.434   7.114 -1.6620 -0.0092  1.9307
  398MOL    C6848502   0.979   7.441   7.147 -0.0748  0.3938 -0.0598
  398MOL    C6948503   0.952   7.596   7.147  0.2087  0.1052 -0.5878
  398MOL    F7048504   0.949   7.654   7.029  0.0911  0.0973 -0.0798
  398MOL    H7148505   0.885   7.398   7.113  1.1363 -0.1274 -2.8903
  398MOL    H7248506   0.992   7.400   7.247 -0.8050  0.3508  0.0210
  398MOL    H7348507   1.037   7.638   7.200 -0.4023  3.9322 -2.4812
  398MOL    C7448508   0.815   7.640   7.211  0.0586  0.2661  0.1319
  398MOL    C7548509   0.781   7.786   7.199  0.5003 -0.0824 -0.1796
  398MOL    F7648510   0.656   7.807   7.248 -0.3079  0.0344 -0.3123
  398MOL    H7748511   0.735   7.584   7.163  0.1068 -1.0589  1.5656
  398MOL    H7848512   0.799   7.622   7.317 -2.4983  1.3555 -0.0195
  398MOL    H7948513   0.778   7.816   7.094  0.3007  1.6037  0.2870
  398MOL    C8048514   0.869   7.893   7.269  0.0934  0.2984 -0.0486
  398MOL    C8148515   0.875   7.895   7.418  0.3315 -0.0955 -0.2358
  398MOL    F8248516   0.958   7.803   7.464  0.0687 -0.2074 -0.1775
  398MOL    H8348517   0.968   7.878   7.227 -0.2070  0.5905 -0.8483
  398MOL    H8448518   0.842   7.985   7.218 -0.7189  0.0876 -0.0141
  398MOL    H8548519   0.786   7.861   7.471 -0.6676 -0.5830 -2.1641
  398MOL    C8648520   0.924   0.024   7.485  0.5844 -0.0487  0.5459
  398MOL    C8748521   1.041   0.090   7.420 -0.8100 -0.3565  0.4335
  398MOL    F8848522   1.022   0.146   7.306  0.1232 -0.1517  0.6945
  398MOL    H8948523   0.838   0.091   7.482  1.3703  0.9052 -1.8065
  398MOL    H9048524   0.956   8.002   7.586  0.0522  1.7772  1.1828
  398MOL    H9148525   1.121   0.018   7.399 -1.0316 -0.8649  1.2911
  398MOL    C9248526   1.109   0.192   7.512 -0.0937 -0.3572  0.7190
  398MOL    C9348527   1.260   0.219   7.483 -0.8025  0.6706  0.5261
  398MOL    F9448528   1.274   0.270   7.362  0.5760  0.3610  0.7040
  398MOL    H9548529   1.063   0.291   7.518 -0.1885 -0.3764  0.3273
  398MOL    H9648530   1.110   0.148   7.611 -0.3722 -1.5526  0.1974
  398MOL    H9748531   1.308   0.122   7.484  0.4650  1.2688 -0.7351
  398MOL    C9848532   1.325   0.315   7.586  0.2638  0.2478  0.0170
  398MOL    C9948533   1.346   0.263   7.727 -0.1153 -0.3528 -0.7303
  398MOL   F10048534   1.453   0.180   7.717 -0.4687 -0.3852  0.0868
  398MOL   H10148535   1.420   0.347   7.543  0.7671  1.9303  2.2691
  398MOL   H10248536   1.272   0.410   7.583  1.5199  0.9386 -1.1570
  398MOL   H10348537   1.268   0.201   7.771  0.9462 -0.1887  1.4842
  398MOL   C10448538   1.373   0.381   7.821 -0.1754  0.3827  0.0566
  398MOL   C10548539   1.370   0.341   7.975 -0.6225 -0.5526 -0.0723
  398MOL   F10648540   1.257   0.266   8.002 -0.1125  0.1442 -0.4565
  398MOL   H10748541   1.464   0.434   7.797 -0.1398  0.0345 -0.5900
  398MOL   H10848542   1.291   0.450   7.801 -0.1489  0.6356  0.8074
  398MOL   H10948543   1.348   0.435   0.024  0.0465 -1.2210  1.4463
  398MOL   C11048544   1.492   0.265   0.029  0.6336 -0.2718  0.5993
  398MOL   C11148545   1.520   0.284   0.180 -0.3782 -0.1629  0.3388
  398MOL   F11248546   1.548   0.409   0.215  0.2192 -0.5403 -0.1830
  398MOL   H11348547   1.469   0.161   0.008  1.8735 -0.3468 -0.4228
  398MOL   H11448548   1.579   0.281   7.969  1.5578 -0.9444  1.6865
  398MOL   H11548549   1.613   0.231   0.202 -1.5291 -0.8114  3.8509
  398MOL   C11648550   1.406   0.230   0.276  0.5244  0.1105  0.7127
  398MOL   C11748551   1.449   0.231   0.422 -0.2561 -0.1116  0.0602
  398MOL   F11848552   1.472   0.358   0.468 -0.0096  0.0348  0.3047
  398MOL   H11948553   1.315   0.289   0.261  0.5596 -0.1784 -0.7023
  398MOL   H12048554   1.377   0.130   0.243  1.0693  0.3902 -0.6258
  398MOL   H12148555   1.545   0.180   0.433  0.0596  0.8097  1.6993
  398MOL   H12248556   1.373   0.180   0.482 -0.6546  0.7053  0.2565
  399MOL     C148557   3.360   0.860   6.291 -0.6478  0.1199 -0.0312
  399MOL     C248558   3.260   0.748   6.326  0.3247 -1.1975  0.2071
  399MOL     F348559   3.313   0.628   6.338  0.3996  0.1115  0.4555
  399MOL     H448560   3.414   0.843   6.198 -0.1335  0.3140  0.2270
  399MOL     H548561   3.427   0.871   6.376 -0.4735 -0.9939 -0.0192
  399MOL     H648562   3.183   0.731   6.251  1.5746  1.2990 -1.7091
  399MOL     H748563   3.303   0.953   6.281  0.2409  0.4717 -2.1331
  399MOL     C848564   3.177   0.782   6.454  0.7217 -0.2791  1.0726
  399MOL     C948565   3.058   0.680   6.485  0.6519  0.2842  0.2877
  399MOL    F1048566   3.092   0.548   6.495 -0.7040  0.3646 -0.0743
  399MOL    H1148567   3.241   0.770   6.541  2.7366  0.7738 -0.2291
  399MOL    H1248568   3.126   0.878   6.442  1.8426 -0.0798 -2.4867
  399MOL    H1348569   2.986   0.687   6.404 -0.6644 -0.8763  1.3494
  399MOL    C1448570   2.984   0.718   6.617 -0.4766  0.1373  0.5314
  399MOL    C1548571   2.834   0.669   6.623 -0.1380 -0.0254 -0.3280
  399MOL    F1648572   2.791   0.677   6.751 -0.0668  0.1012 -0.4618
  399MOL    H1748573   3.044   0.685   6.702 -0.2184  2.4651  1.2786
  399MOL    H1848574   2.987   0.826   6.629 -1.4313  0.2980 -0.5787
  399MOL    H1948575   2.832   0.562   6.600 -0.9434 -0.3819  1.3415
  399MOL    C2048576   2.746   0.760   6.544  0.0743  0.6977  0.0737
  399MOL    C2148577   2.592   0.731   6.555 -0.1858  0.0340 -0.2036
  399MOL    F2248578   2.542   0.786   6.674  0.0062  0.1003  0.7777
  399MOL    H2348579   2.751   0.868   6.558 -1.2917  0.8686 -0.7051
  399MOL    H2448580   2.789   0.759   6.444  0.7391  3.4472  0.2959
  399MOL    H2548581   2.579   0.623   6.547  2.1555 -0.1816 -1.5318
  399MOL    C2648582   2.505   0.789   6.444 -0.1103 -0.6124  0.5233
  399MOL    C2748583   2.353   0.768   6.451  0.0556 -0.0012 -0.5677
  399MOL    F2848584   2.296   0.822   6.339  0.4947  0.5248  0.1961
  399MOL    H2948585   2.511   0.898   6.443 -0.3504 -0.5715  1.8991
  399MOL    H3048586   2.539   0.743   6.351  0.0291  1.0822 -0.2797
  399MOL    H3148587   2.304   0.815   6.535  1.1949 -0.1304  0.1704
  399MOL    C3248588   2.322   0.612   6.440  0.1093 -0.3613 -0.2282
  399MOL    C3348589   2.369   0.551   6.301  0.0945  0.3539 -0.5745
  399MOL    F3448590   2.497   0.515   6.318  0.2388  0.4786  0.4141
  399MOL    H3548591   2.360   0.554   6.524 -1.0679  0.4391  0.8941
  399MOL    H3648592   2.213   0.619   6.446 -0.0542 -1.9275 -1.1996
  399MOL    H3748593   2.370   0.633   6.230  2.4260 -0.6874 -1.8123
  399MOL    C3848594   2.284   0.435   6.247  0.1557  0.3314 -0.6678
  399MOL    C3948595   2.316   0.383   6.107 -0.0492  0.3400  0.6096
  399MOL    F4048596   2.270   0.256   6.091  0.2716 -0.0177  0.0744
  399MOL    H4148597   2.303   0.349   6.312 -0.7064  0.9466  0.4279
  399MOL    H4248598   2.179   0.460   6.264  0.4618 -0.4290  2.7518
  399MOL    H4348599   2.422   0.355   6.104 -0.4603 -1.5117  2.0900
  399MOL    C4448600   2.259   0.474   5.994  0.2525 -0.3678 -0.2297
  399MOL    C4548601   2.114   0.454   5.954 -0.5976  0.9649  0.6451
  399MOL    F4648602   2.044   0.517   6.043  0.1831 -0.3685 -0.0211
  399MOL    H4748603   2.270   0.579   6.021 -0.0426 -0.2019 -0.7428
  399MOL    H4848604   2.331   0.470   5.913  0.6836 -1.0970  0.1808
  399MOL    H4948605   2.079   0.351   5.966  0.2054  0.6195  0.0154
  399MOL    C5048606   2.067   0.506   5.814 -0.2985  0.0259  0.1293
  399MOL    C5148607   2.068   0.659   5.802  0.0097  0.6701 -0.4503
  399MOL    F5248608   2.193   0.699   5.811  0.3054 -0.3407 -0.4513
  399MOL    H5348609   2.128   0.458   5.738  1.6076  0.7062  1.1996
  399MOL    H5448610   1.965   0.469   5.804  0.3130 -1.4713 -0.7953
  399MOL    H5548611   2.018   0.709   5.886 -2.9675 -1.0838 -1.1031
  399MOL    C5648612   2.007   0.714   5.670  0.8873 -0.8277 -0.7623
  399MOL    C5748613   2.001   0.870   5.657  0.6002 -0.3373  0.3214
  399MOL    F5848614   2.021   0.890   5.531 -0.2586  0.5560 -0.0784
  399MOL    H5948615   2.055   0.671   5.582  0.3496  1.9173 -2.4521
  399MOL    H6048616   1.902   0.684   5.658 -0.5776  2.3519  3.1255
  399MOL    H6148617   2.085   0.923   5.699  0.3527  0.2200  0.1188
  399MOL    C6248618   1.869   0.936   5.696  0.4139 -0.0375  0.2610
  399MOL    C6348619   1.813   0.888   5.829 -0.3593 -0.0938 -0.0506
  399MOL    F6448620   1.898   0.921   5.930 -0.1850 -0.2512  0.2640
  399MOL    H6548621   1.884   1.044   5.703  2.5407 -0.3839  1.5049
  399MOL    H6648622   1.790   0.919   5.623  0.0420 -0.9229  0.8513
  399MOL    H6748623   1.806   0.780   5.823  0.9614 -0.2688  1.1809
  399MOL    C6848624   1.679   0.953   5.866 -0.0800 -0.4783 -0.4144
  399MOL    C6948625   1.596   0.885   5.975 -0.1632  0.3086  0.0261
  399MOL    F7048626   1.552   0.762   5.932 -0.2347  0.5060 -0.2874
  399MOL    H7148627   1.694   1.058   5.894 -0.6538 -0.4309 -0.2765
  399MOL    H7248628   1.621   0.974   5.776 -0.0743 -0.3735 -0.3948
  399MOL    H7348629   1.505   0.939   6.000  1.0692  1.8325  1.2764
  399MOL    C7448630   1.667   0.873   6.112 -0.1940  0.0192 -0.0113
  399MOL    C7548631   1.691   1.001   6.200  0.1817 -0.0443 -0.5710
  399MOL    F7648632   1.569   1.051   6.209 -0.2411  0.4350  0.1322
  399MOL    H7748633   1.591   0.815   6.163 -0.0391  1.6245  2.1507
  399MOL    H7848634   1.755   0.811   6.094 -1.1425 -1.7667  1.4143
  399MOL    H7948635   1.752   1.078   6.152 -0.0667  0.9533  0.6919
  399MOL    C8048636   1.735   0.977   6.347 -0.6522 -0.0551 -0.6908
  399MOL    C8148637   1.752   1.108   6.422 -0.4073  0.5297 -0.1246
  399MOL    F8248638   1.636   1.166   6.437 -0.6656 -0.1635 -0.6941
  399MOL    H8348639   1.679   0.898   6.398 -3.2122  2.0808 -0.0783
  399MOL    H8448640   1.835   0.936   6.337 -0.9620 -0.7212 -1.0669
  399MOL    H8548641   1.812   1.173   6.359 -0.0722  0.2526 -0.0894
  399MOL    C8648642   1.816   1.096   6.566  0.3241 -0.0848 -0.7942
  399MOL    C8748643   1.731   1.038   6.678 -0.6392 -0.1255  0.3967
  399MOL    F8848644   1.693   0.914   6.637  0.2845  0.5605 -0.0332
  399MOL    H8948645   1.918   1.058   6.558 -0.0297 -0.9957 -0.9433
  399MOL    H9048646   1.824   1.203   6.587  1.5461  0.0231 -1.7434
  399MOL    H9148647   1.638   1.094   6.694 -0.7909 -0.4991  0.8568
  399MOL    C9248648   1.791   1.016   6.821  1.2257 -0.3856 -0.2861
  399MOL    C9348649   1.706   0.948   6.927  0.2794 -0.4202  1.0007
  399MOL    F9448650   1.784   0.936   7.036 -0.0984 -0.6189 -0.0769
  399MOL    H9548651   1.891   0.972   6.818  1.4047  0.0885 -1.3241
  399MOL    H9648652   1.819   1.112   6.862 -0.6906 -0.7355  1.8936
  399MOL    H9748653   1.692   0.845   6.893  0.7296  0.2680 -1.3150
  399MOL    C9848654   1.566   1.002   6.958 -0.2517 -0.0927 -0.7561
  399MOL    C9948655   1.564   1.150   7.009 -0.6183 -0.4556  0.2663
  399MOL   F10048656   1.592   1.229   6.904 -0.2465  0.1159 -0.0696
  399MOL   H10148657   1.500   0.985   6.873 -2.3143  2.2268  0.3317
  399MOL   H10248658   1.518   0.948   7.040 -3.0852  0.9605 -1.6321
  399MOL   H10348659   1.647   1.165   7.078  2.1240  2.4154 -3.4121
  399MOL   C10448660   1.439   1.188   7.084 -0.2622 -1.2118  0.7263
  399MOL   C10548661   1.430   1.331   7.140  0.9422  0.4862  0.7646
  399MOL   F10648662   1.544   1.355   7.223  0.3534 -0.2627  0.0013
  399MOL   H10748663   1.349   1.176   7.023  0.8103  0.0671 -1.1455
  399MOL   H10848664   1.443   1.124   7.172  1.3759 -1.2563  0.6226
  399MOL   H10948665   1.340   1.323   7.200  1.0512 -3.2863  0.5403
  399MOL   C11048666   1.417   1.443   7.032  0.4181 -0.5285 -0.2982
  399MOL   C11148667   1.360   1.570   7.093 -0.4968  0.3902  1.0974
  399MOL   F11248668   1.445   1.614   7.185 -0.3603  0.2150  0.0121
  399MOL   H11348669   1.522   1.461   7.007 -0.3558  0.5870 -2.8694
  399MOL   H11448670   1.358   1.424   6.943  0.0048  0.9219 -0.3481
  399MOL   H11548671   1.259   1.549   7.127 -0.8697 -1.1160 -0.8591
  399MOL   C11648672   1.332   1.691   6.996 -0.1050  0.6250 -0.1793
  399MOL   C11748673   1.305   1.832   7.063 -0.0079 -0.0400 -0.3288
  399MOL   F11848674   1.302   1.930   6.975  0.1178 -0.0587  0.0328
  399MOL   H11948675   1.414   1.694   6.924  0.1653  0.0528  0.1037
  399MOL   H12048676   1.243   1.667   6.938  0.7741 -1.5293 -0.6892
  399MOL   H12148677   1.389   1.858   7.127 -0.7767 -1.1359  1.1701
  399MOL   H12248678   1.211   1.814   7.116  0.3186  0.7494  0.5165
  400MOL     C148679   4.744   0.345   4.220  0.1085 -0.1310 -0.5676
  400MOL     C248680   4.708   0.461   4.314  0.4304  0.3594 -0.5885
  400MOL     F348681   4.801   0.547   4.276  0.1277  0.0405  0.2117
  400MOL     H448682   4.842   0.319   4.259  0.7495  0.7912 -1.5235
  400MOL     H548683   4.752   0.390   4.121 -1.1965 -0.8931 -1.0352
  400MOL     H648684   4.724   0.440   4.420  0.2360  2.1714 -0.1770
  400MOL     H748685   4.669   0.267   4.233 -0.6339  0.6491 -0.1411
  400MOL     C848686   4.570   0.519   4.301  0.0226  0.3302 -0.4525
  400MOL     C948687   4.551   0.653   4.389 -0.1697  0.2381  0.0992
  400MOL    F1048688   4.632   0.749   4.330 -0.1994  0.4140  0.5616
  400MOL    H1148689   4.536   0.549   4.202 -0.2346  1.0262 -0.1553
  400MOL    H1248690   4.496   0.442   4.323  0.9122 -0.8912 -1.6326
  400MOL    H1348691   4.585   0.635   4.491 -2.1391 -0.8871  0.5934
  400MOL    C1448692   4.402   0.710   4.388 -0.0203 -0.3687  0.4116
  400MOL    C1548693   4.309   0.632   4.477  0.6238 -0.3874  0.2879
  400MOL    F1648694   4.348   0.642   4.607 -0.0108  0.8260  0.1380
  400MOL    H1748695   4.392   0.813   4.422 -3.4264 -0.5709  0.1779
  400MOL    H1848696   4.381   0.708   4.281  0.1542 -2.2847  0.3847
  400MOL    H1948697   4.305   0.526   4.453 -0.4952 -0.2756 -0.0408
  400MOL    C2048698   4.176   0.708   4.449 -0.7196 -0.1889  0.1175
  400MOL    C2148699   4.060   0.677   4.543 -0.5711  0.1641 -0.7337
  400MOL    F2248700   3.951   0.760   4.536 -0.6792 -0.4706 -0.1707
  400MOL    H2348701   4.195   0.813   4.471  0.7907 -0.2119 -0.9774
  400MOL    H2448702   4.140   0.680   4.350 -0.0570 -0.2126 -0.1172
  400MOL    H2548703   4.107   0.699   4.639 -1.1718  1.4435 -0.7246
  400MOL    C2648704   4.011   0.531   4.528  0.2445 -0.1910  0.2646
  400MOL    C2748705   3.923   0.480   4.644 -0.2949 -0.1037 -0.4205
  400MOL    F2848706   3.873   0.367   4.607 -0.1648 -0.8727  0.5547
  400MOL    H2948707   3.949   0.514   4.440  0.5956 -1.2777  0.2136
  400MOL    H3048708   4.093   0.458   4.522 -0.8823 -1.3005 -3.2831
  400MOL    H3148709   3.834   0.541   4.659 -0.2551 -0.3504  0.8880
  400MOL    C3248710   4.003   0.461   4.778 -0.7299  0.0043 -0.4523
  400MOL    C3348711   3.924   0.407   4.896 -0.4334 -0.1557 -0.1984
  400MOL    F3448712   3.914   0.269   4.873  0.1366 -0.4680 -0.2590
  400MOL    H3548713   4.098   0.410   4.763  0.2445  0.7874  2.6679
  400MOL    H3648714   4.031   0.562   4.809  1.4835 -0.4706 -0.8562
  400MOL    H3748715   3.823   0.447   4.907 -1.1353 -1.8957 -0.1991
  400MOL    C3848716   4.005   0.430   5.025  0.0888  0.2998  0.5269
  400MOL    C3948717   4.015   0.567   5.080  0.6536  0.7391  0.0258
  400MOL    F4048718   3.895   0.612   5.114 -0.2630 -0.1151  0.1341
  400MOL    H4148719   3.958   0.372   5.105 -0.6424 -0.5671 -0.5157
  400MOL    H4248720   4.106   0.391   5.016 -0.3072 -0.6957  0.3073
  400MOL    H4348721   4.055   0.640   5.010  1.3698  0.2482 -0.0727
  400MOL    C4448722   4.093   0.588   5.212  0.3766  0.0126  0.9148
  400MOL    C4548723   4.031   0.555   5.353 -0.0025  0.0322  0.6157
  400MOL    F4648724   4.007   0.424   5.350 -0.2738  0.0291 -0.0783
  400MOL    H4748725   4.191   0.544   5.193  0.3255 -0.0655  0.8349
  400MOL    H4848726   4.104   0.696   5.216  0.2377  0.0997 -0.8637
  400MOL    H4948727   3.934   0.601   5.369  0.6969  1.4332  0.9093
  400MOL    C5048728   4.121   0.605   5.469  0.8090 -0.3268 -0.3656
  400MOL    C5148729   4.077   0.583   5.619  0.4871  0.3423 -0.1352
  400MOL    F5248730   3.975   0.654   5.644  0.0814 -0.1249 -0.2492
  400MOL    H5348731   4.223   0.567   5.467  1.0195  0.0790  1.5524
  400MOL    H5448732   4.124   0.714   5.462 -2.1160 -0.0701  1.4943
  400MOL    H5548733   4.150   0.627   5.686  0.2592  1.2594 -0.4838
  400MOL    C5648734   4.058   0.430   5.664  0.1699  0.0757  0.8674
  400MOL    C5748735   4.184   0.338   5.645  0.0016 -0.2035 -0.0270
  400MOL    F5848736   4.281   0.400   5.712  0.4754  0.1279  0.0753
  400MOL    H5948737   4.033   0.438   5.770  0.2481  0.3494  0.8666
  400MOL    H6048738   3.976   0.397   5.601  0.2179  1.0601  0.2801
  400MOL    H6148739   4.215   0.348   5.541  1.0344  2.6244  0.4998
  400MOL    C6248740   4.158   0.195   5.701 -0.0209 -0.3663 -0.8520
  400MOL    C6348741   4.270   0.090   5.681  0.0152 -0.3027  0.3374
  400MOL    F6448742   4.366   0.101   5.762 -0.0257  0.5581  1.0328
  400MOL    H6548743   4.139   0.217   5.806  0.1388  1.8478 -1.2798
  400MOL    H6648744   4.064   0.158   5.661  0.0688  0.5240 -1.8886
  400MOL    H6748745   4.297   0.096   5.575 -1.9869  0.0289 -0.1782
  400MOL    C6848746   4.209   7.955   5.697  0.1367 -0.4014  0.2223
  400MOL    C6948747   4.314   7.843   5.669  0.1370  0.2464 -0.7411
  400MOL    F7048748   4.261   7.724   5.719  0.4006 -0.1898  0.3091
  400MOL    H7148749   4.173   7.954   5.800 -0.0737  0.7901  0.1602
  400MOL    H7248750   4.122   7.950   5.632  2.0091  3.5259 -2.7674
  400MOL    H7348751   4.396   7.867   5.736  2.1527 -0.2893 -2.9275
  400MOL    C7448752   4.376   7.824   5.530  0.4866  0.3768 -0.9742
  400MOL    C7548753   4.502   7.729   5.523  0.8784 -0.8935  0.5138
  400MOL    F7648754   4.616   7.802   5.551  0.0664 -0.4971  0.2560
  400MOL    H7748755   4.298   7.776   5.471  0.3400 -1.7316  0.8315
  400MOL    H7848756   4.397   7.922   5.487  1.3869  1.1515  1.1505
  400MOL    H7948757   4.532   7.711   5.420 -0.3964 -0.0956 -0.0064
  400MOL    C8048758   4.500   7.598   5.605  0.1203  0.1779 -0.2714
  400MOL    C8148759   4.411   7.493   5.538 -0.0295 -0.0798 -0.5845
  400MOL    F8248760   4.444   7.469   5.410  0.5490 -1.3600  0.0076
  400MOL    H8348761   4.601   7.555   5.602  0.3632  0.8351 -2.2998
  400MOL    H8448762   4.483   7.628   5.708  1.0136 -3.6233  1.0790
  400MOL    H8548763   4.309   7.529   5.547  0.3414  0.9966 -0.5582
  400MOL    C8648764   4.433   7.363   5.607  0.0976 -0.3652 -0.2010
  400MOL    C8748765   4.320   7.264   5.567 -0.1060  0.1320 -0.3458
  400MOL    F8848766   4.319   7.243   5.437  0.0434 -0.3766 -0.0960
  400MOL    H8948767   4.531   7.326   5.576  0.5752  0.7079  0.0125
  400MOL    H9048768   4.438   7.384   5.714 -0.7954 -0.8634 -0.0535
  400MOL    H9148769   4.224   7.307   5.594  0.3497  1.5498 -0.9399
  400MOL    C9248770   4.339   7.130   5.638 -0.0647 -0.4905  0.6032
  400MOL    C9348771   4.214   7.034   5.632 -0.4618  0.2800  0.0907
  400MOL    F9448772   4.116   7.101   5.700 -0.1381  0.0064 -0.2003
  400MOL    H9548773   4.424   7.074   5.600 -0.2737 -0.5283  0.1882
  400MOL    H9648774   4.361   7.142   5.744 -0.8433  0.6764  0.6525
  400MOL    H9748775   4.236   6.954   5.703  0.6954  0.2742 -0.2645
  400MOL    C9848776   4.155   6.993   5.492 -0.3213  0.2411  0.3063
  400MOL    C9948777   4.251   6.909   5.405 -0.1839  0.5941  0.5264
  400MOL   F10048778   4.290   6.807   5.475 -0.4466 -0.1352 -0.3404
  400MOL   H10148779   4.060   6.944   5.512 -0.2442 -0.5052 -1.0686
  400MOL   H10248780   4.125   7.082   5.437  3.4787  0.5814 -1.3797
  400MOL   H10348781   4.340   6.967   5.380  1.4157 -0.3523  3.8084
  400MOL   C10448782   4.198   6.867   5.264 -0.5333  0.0925 -0.7108
  400MOL   C10548783   4.204   6.989   5.164  0.6278 -0.2804  0.0936
  400MOL   F10648784   4.333   7.033   5.160  0.1153  0.2159  0.1973
  400MOL   H10748785   4.270   6.794   5.225  0.6663 -0.1193  1.8251
  400MOL   H10848786   4.101   6.820   5.278  0.0866 -1.9666 -2.8743
  400MOL   H10948787   4.143   7.071   5.201  1.3076  0.3892 -0.2555
  400MOL   C11048788   4.160   6.956   5.016  0.7254 -0.2378  0.2761
  400MOL   C11148789   4.007   6.934   5.007  0.4733  0.5711 -0.5432
  400MOL   F11248790   3.942   7.037   5.060  0.2751 -0.2268 -0.5680
  400MOL   H11348791   4.190   7.033   4.944 -0.7773  1.8017  1.7643
  400MOL   H11448792   4.209   6.865   4.982 -1.4904 -0.9787 -1.1024
  400MOL   H11548793   3.993   6.841   5.063 -0.5107  0.8351 -0.3371
  400MOL   C11648794   3.962   6.907   4.869 -0.3755 -0.3360  0.2713
  400MOL   C11748795   3.822   6.848   4.855  0.4522 -0.8098 -0.2288
  400MOL   F11848796   3.830   6.727   4.905  0.2197 -0.4934 -0.0668
  400MOL   H11948797   3.956   7.004   4.820  4.1843  1.2092  2.4865
  400MOL   H12048798   4.027   6.836   4.819 -1.2750 -0.0393 -1.3700
  400MOL   H12148799   3.796   6.839   4.750 -0.8379 -1.4505  0.1318
  400MOL   H12248800   3.755   6.904   4.920 -0.1435 -2.0618  0.2634
  401MOL     C148801   1.845   7.105   4.176 -0.4748 -0.0109 -0.2366
  401MOL     C248802   1.734   7.034   4.099 -0.2407  0.2414  0.1078
  401MOL     F348803   1.617   7.060   4.154 -0.0388 -0.4567 -0.0250
  401MOL     H448804   1.816   7.210   4.184 -1.2177 -0.1849 -0.5526
  401MOL     H548805   1.941   7.112   4.126  0.1658  0.1230  0.9912
  401MOL     H648806   1.742   6.926   4.110  0.6780  0.1676 -1.2792
  401MOL     H748807   1.869   7.066   4.275 -0.8070 -0.2841 -0.2640
  401MOL     C848808   1.728   7.076   3.954  0.1842 -0.2839  0.2933
  401MOL     C948809   1.857   7.037   3.871 -0.3043 -0.1104 -0.0769
  401MOL    F1048810   1.888   6.905   3.887  0.8354 -0.5133  0.4611
  401MOL    H1148811   1.643   7.035   3.898  2.1256 -0.3589 -2.6952
  401MOL    H1248812   1.718   7.184   3.955  0.6571 -0.2149  3.8935
  401MOL    H1348813   1.934   7.108   3.901 -2.2381  1.7420  0.6709
  401MOL    C1448814   1.839   7.051   3.715  0.0166 -0.2078 -0.5708
  401MOL    C1548815   1.800   7.201   3.674 -0.4886 -0.4627  0.0590
  401MOL    F1648816   1.907   7.286   3.689 -0.1021  0.0211 -0.2421
  401MOL    H1748817   1.938   7.031   3.675  1.9967  0.2517  3.7205
  401MOL    H1848818   1.769   6.978   3.675  1.1516 -0.9608 -1.1838
  401MOL    H1948819   1.720   7.245   3.733 -1.2426 -0.9808 -0.5591
  401MOL    C2048820   1.763   7.203   3.527 -0.2894 -0.2772 -0.4704
  401MOL    C2148821   1.721   7.345   3.473 -0.5801  0.5772  0.1250
  401MOL    F2248822   1.703   7.340   3.341  0.1906  0.0903 -0.2855
  401MOL    H2348823   1.856   7.176   3.476  1.1808  0.4517  1.7876
  401MOL    H2448824   1.686   7.131   3.499 -0.1372 -1.1323  1.2502
  401MOL    H2548825   1.799   7.420   3.486  0.2017 -0.2956  0.5551
  401MOL    C2648826   1.587   7.388   3.528  0.4061 -1.0733 -0.0748
  401MOL    C2748827   1.557   7.536   3.499  0.6281 -0.4052 -0.2288
  401MOL    F2848828   1.535   7.549   3.367  0.1920  0.0974 -0.6739
  401MOL    H2948829   1.506   7.326   3.489 -0.4079  0.2770 -0.5707
  401MOL    H3048830   1.599   7.383   3.636 -0.0142  2.0623  0.1564
  401MOL    H3148831   1.645   7.597   3.517  1.1900 -1.4761  0.7032
  401MOL    C3248832   1.442   7.577   3.591 -0.1870  0.1864 -0.2859
  401MOL    C3348833   1.407   7.722   3.564  0.0291  0.0372  0.1779
  401MOL    F3448834   1.280   7.743   3.591 -0.2417  0.2210 -0.3453
  401MOL    H3548835   1.354   7.517   3.570  0.5835 -1.0407 -0.1229
  401MOL    H3648836   1.469   7.558   3.695  1.6467  0.1171 -0.7427
  401MOL    H3748837   1.417   7.744   3.458  0.1295 -0.1389  0.1502
  401MOL    C3848838   1.499   7.819   3.641 -0.3911 -0.0732 -0.0321
  401MOL    C3948839   1.471   7.967   3.629  0.5361 -0.1772  0.5977
  401MOL    F4048840   1.511   0.032   3.736  0.6505  0.2104 -0.6146
  401MOL    H4148841   1.486   7.802   3.748  1.8588 -2.8625 -0.1432
  401MOL    H4248842   1.606   7.814   3.618 -0.2857  3.1469 -0.5993
  401MOL    H4348843   1.362   7.974   3.642  0.3172 -0.7199 -0.8540
  401MOL    C4448844   1.515   0.028   3.503 -0.5530  0.0375  0.3630
  401MOL    C4548845   1.478   0.180   3.497  0.7209 -0.4546  0.4269
  401MOL    F4648846   1.571   0.258   3.551  0.0188  0.2849  0.2529
  401MOL    H4748847   1.619   0.004   3.478 -0.3933  1.0582  0.0387
  401MOL    H4848848   1.459   7.975   3.428  0.3639  1.5710 -1.5221
  401MOL    H4948849   1.380   0.192   3.543  0.1503 -0.9146 -0.6501
  401MOL    C5048850   1.440   0.220   3.355 -0.3545 -0.6889 -0.7373
  401MOL    C5148851   1.345   0.341   3.346 -0.0112  0.3521 -0.0322
  401MOL    F5248852   1.385   0.439   3.421 -0.6462 -0.4093 -0.1332
  401MOL    H5348853   1.530   0.253   3.303 -1.5150  2.1447 -1.0637
  401MOL    H5448854   1.409   0.143   3.284 -3.7930  1.6373 -1.8906
  401MOL    H5548855   1.251   0.308   3.389  0.0016  0.5223  0.1276
  401MOL    C5648856   1.333   0.392   3.209  0.6820  0.9360  0.3779
  401MOL    C5748857   1.204   0.463   3.163  0.3040 -0.8008 -0.6672
  401MOL    F5848858   1.108   0.375   3.147  0.4641  0.1497 -0.2573
  401MOL    H5948859   1.420   0.454   3.188  0.6105  0.6830 -0.7016
  401MOL    H6048860   1.321   0.314   3.134 -2.6709  2.2914 -0.5716
  401MOL    H6148861   1.224   0.492   3.060  0.5757  2.7838  0.3019
  401MOL    C6248862   1.153   0.576   3.254  0.6893 -0.1643 -0.2730
  401MOL    C6348863   1.245   0.704   3.240  0.2769  0.4296 -0.4083
  401MOL    F6448864   1.244   0.757   3.116  0.0629 -0.0966  0.7260
  401MOL    H6548865   1.053   0.600   3.218  0.5414 -0.6739 -0.2113
  401MOL    H6648866   1.143   0.550   3.359  1.8719  1.8706  0.3592
  401MOL    H6748867   1.351   0.680   3.244  0.0265 -0.6398 -0.1054
  401MOL    C6848868   1.219   0.821   3.336 -0.2398  0.3133  0.1281
  401MOL    C6948869   1.266   0.806   3.477 -0.3786  0.2451 -0.3539
  401MOL    F7048870   1.399   0.807   3.473 -0.1269 -0.1779 -0.4619
  401MOL    H7148871   1.265   0.912   3.298  2.6266 -0.7564  0.8471
  401MOL    H7248872   1.112   0.837   3.326 -0.6572 -1.0669  2.1147
  401MOL    H7348873   1.234   0.709   3.515 -0.0068  0.0205 -0.6105
  401MOL    C7448874   1.209   0.913   3.579  0.3863 -0.8988 -0.1499
  401MOL    C7548875   1.056   0.899   3.604  0.8055  0.6172  0.1180
  401MOL    F7648876   1.034   0.788   3.675 -0.2119 -0.4920 -0.7923
  401MOL    H7748877   1.269   0.921   3.670  0.3199 -0.4247 -0.1470
  401MOL    H7848878   1.224   1.009   3.529  0.3896 -1.8168 -1.9508
  401MOL    H7948879   0.996   0.890   3.514  1.3718  1.5275 -0.3539
  401MOL    C8048880   0.995   1.018   3.690 -1.1447  0.2206 -0.3368
  401MOL    C8148881   0.973   1.149   3.607  0.0572 -0.7232  0.4214
  401MOL    F8248882   0.907   1.114   3.496  0.2906  0.0961 -0.1295
  401MOL    H8348883   0.899   0.987   3.733 -1.1081 -0.5745 -0.8326
  401MOL    H8448884   1.063   1.050   3.769 -0.2134  1.2641 -1.5420
  401MOL    H8548885   1.071   1.187   3.581  0.6519 -0.9705  2.2047
  401MOL    C8648886   0.892   1.266   3.676 -0.1725  0.2218  0.1111
  401MOL    C8748887   0.856   1.384   3.583 -0.4270  0.0038  0.1797
  401MOL    F8848888   0.783   1.468   3.655  0.2268  0.0196 -0.1655
  401MOL    H8948889   0.804   1.221   3.721  0.0673  0.7325  1.1063
  401MOL    H9048890   0.955   1.291   3.761 -1.3520  0.3043  0.9695
  401MOL    H9148891   0.788   1.358   3.502 -0.7820 -0.5944  0.6647
  401MOL    C9248892   0.967   1.478   3.529 -0.1574  0.3935  0.0385
  401MOL    C9348893   1.059   1.531   3.640  1.3241  0.6034  0.6610
  401MOL    F9448894   1.139   1.429   3.670  0.2967  0.0869  0.4912
  401MOL    H9548895   1.034   1.446   3.449  1.5334  1.2783  1.0718
  401MOL    H9648896   0.913   1.560   3.482 -2.2661 -1.3518 -0.6290
  401MOL    H9748897   1.002   1.557   3.729  1.4301 -1.0920  1.2408
  401MOL    C9848898   1.146   1.647   3.595  0.1004  0.2908  1.1414
  401MOL    C9948899   1.077   1.791   3.593  0.7602 -0.4252  0.4616
  401MOL   F10048900   1.021   1.806   3.713 -0.3627 -0.5663 -0.0863
  401MOL   H10148901   1.220   1.662   3.673  1.5775 -0.5645 -0.0547
  401MOL   H10248902   1.198   1.618   3.503  0.6726  0.5285  1.3890
  401MOL   H10348903   0.997   1.788   3.519  1.6987  2.2834 -0.7127
  401MOL   C10448904   1.183   1.906   3.570  0.3444  0.2766 -0.5622
  401MOL   C10548905   1.135   2.047   3.608  0.0419  0.1229 -0.5503
  401MOL   F10648906   1.231   2.136   3.594 -0.5223 -0.6447 -0.3645
  401MOL   H10748907   1.269   1.883   3.633  0.7710 -0.8351 -1.5090
  401MOL   H10848908   1.214   1.899   3.465  0.7043 -2.7441 -0.3212
  401MOL   H10948909   1.109   2.044   3.714  3.2946 -0.7988  0.2711
  401MOL   C11048910   1.021   2.110   3.541  0.0456  0.1675 -0.2027
  401MOL   C11148911   1.031   2.124   3.385  0.0996 -0.1813 -0.0893
  401MOL   F11248912   0.995   2.012   3.325  0.1327 -0.1780  0.5567
  401MOL   H11348913   0.929   2.064   3.575 -0.1385  1.1594  0.6831
  401MOL   H11448914   1.015   2.211   3.581 -0.8642  0.6029 -1.4056
  401MOL   H11548915   1.133   2.153   3.360  0.3072 -0.4298  0.4608
  401MOL   C11648916   0.948   2.237   3.321 -0.0324 -0.6489  0.2067
  401MOL   C11748917   0.963   2.276   3.174  0.6841 -0.0403  0.2161
  401MOL   F11848918   1.092   2.292   3.145 -0.3084  0.0173  0.1907
  401MOL   H11948919   0.842   2.217   3.337 -0.4630  1.2084 -0.1682
  401MOL   H12048920   0.974   2.325   3.381 -0.9561 -0.4249  0.2865
  401MOL   H12148921   0.907   2.365   3.147 -1.2245 -0.5415  2.3538
  401MOL   H12248922   0.910   2.209   3.105  1.5900  0.3511 -0.8782
  402MOL     C148923   6.897   2.211   5.517 -0.5012  0.1450  0.7923
  402MOL     C248924   6.790   2.188   5.628 -0.4241  0.3001 -0.0458
  402MOL     F348925   6.675   2.178   5.564  0.4066  0.3323 -0.4211
  402MOL     H448926   6.854   2.297   5.465 -0.1511 -1.0702 -1.5705
  402MOL     H548927   6.913   2.125   5.451  0.0926  0.9087 -0.0627
  402MOL     H648928   6.788   2.280   5.687 -1.9230  0.0301  0.3541
  402MOL     H748929   6.990   2.239   5.566  1.6108 -3.4863 -0.9607
  402MOL     C848930   6.794   2.064   5.716  0.4367  0.8365 -0.2952
  402MOL     C948931   6.922   2.050   5.803  0.0703  0.0076  0.2271
  402MOL    F1048932   6.939   2.162   5.861  0.4912  0.0585  0.1323
  402MOL    H1148933   6.715   2.050   5.790  2.5869 -0.9094  1.7660
  402MOL    H1248934   6.777   1.982   5.646  0.3125 -0.0584  0.7722
  402MOL    H1348935   7.008   2.040   5.737  0.6634 -2.1447  1.2805
  402MOL    C1448936   6.920   1.927   5.905  0.1567  0.0181 -0.1440
  402MOL    C1548937   7.058   1.888   5.957  0.6108  0.6959 -0.0701
  402MOL    F1648938   7.122   1.995   6.015 -0.5327  0.1726 -0.2377
  402MOL    H1748939   6.855   1.954   5.988  0.6738  0.1767  0.2119
  402MOL    H1848940   6.863   1.843   5.867 -2.2837  0.6698  1.8916
  402MOL    H1948941   7.123   1.862   5.874 -0.3042 -2.0352  0.0209
  402MOL    C2048942   7.047   1.772   6.067  0.0913  0.1805  0.6869
  402MOL    C2148943   7.180   1.714   6.119 -0.1773 -0.0643 -0.3011
  402MOL    F2248944   7.145   1.633   6.213  0.1453 -0.0758  0.5478
  402MOL    H2348945   6.994   1.815   6.151  0.2680  0.3810  0.6957
  402MOL    H2448946   6.986   1.692   6.025  1.9920 -0.1495 -1.6005
  402MOL    H2548947   7.238   1.795   6.164 -2.5934  2.4667 -1.5896
  402MOL    C2648948   7.269   1.648   6.011  0.0247 -0.1725 -0.1789
  402MOL    C2748949   7.418   1.647   6.049  0.8509  0.6147 -0.1360
  402MOL    F2848950   7.424   1.591   6.171 -0.5115  0.1607  0.2177
  402MOL    H2948951   7.236   1.546   5.989  1.1720  0.3611 -4.9465
  402MOL    H3048952   7.260   1.701   5.916  1.9168  0.0671 -0.2541
  402MOL    H3148953   7.463   1.745   6.068  1.0077  0.7605 -1.2126
  402MOL    C3248954   7.500   1.566   5.947  0.2757  0.2678  0.1290
  402MOL    C3348955   7.565   1.648   5.835 -0.7730 -0.4712 -0.3400
  402MOL    F3448956   7.655   1.731   5.889 -0.1535 -0.0384 -0.6582
  402MOL    H3548957   7.578   1.514   6.002 -0.9363 -1.3502  0.3418
  402MOL    H3648958   7.444   1.481   5.907 -0.2663  0.0311  1.3789
  402MOL    H3748959   7.500   1.713   5.777 -0.6496 -1.4754 -1.6346
  402MOL    C3848960   7.630   1.562   5.727 -0.5042 -0.0278  0.1239
  402MOL    C3948961   7.536   1.495   5.625  0.1062  0.4891  0.0831
  402MOL    F4048962   7.447   1.583   5.584  0.2838  0.1243 -0.3486
  402MOL    H4148963   7.699   1.625   5.671  0.6080 -1.6510 -0.3885
  402MOL    H4248964   7.692   1.477   5.754  0.6659  0.6743 -0.3426
  402MOL    H4348965   7.479   1.422   5.683  0.6685 -0.5423 -0.6472
  402MOL    C4448966   7.588   1.426   5.494  0.3393 -0.1704  0.6961
  402MOL    C4548967   7.490   1.312   5.444 -0.3347  0.8286 -0.2245
  402MOL    F4648968   7.390   1.378   5.393 -0.0573  0.1255  0.1898
  402MOL    H4748969   7.612   1.489   5.409 -0.0306  0.1388  0.8178
  402MOL    H4848970   7.684   1.382   5.519  0.8447 -1.1764 -2.8137
  402MOL    H4948971   7.463   1.262   5.537  0.0258  2.1564  0.6133
  402MOL    C5048972   7.545   1.221   5.335 -0.0792 -0.0561 -0.2475
  402MOL    C5148973   7.443   1.143   5.268 -0.0615  0.1529  0.4283
  402MOL    F5248974   7.363   1.216   5.193 -0.4422  0.2921  0.9308
  402MOL    H5348975   7.593   1.280   5.256  0.0789 -0.1714 -0.2384
  402MOL    H5448976   7.626   1.156   5.368  0.1803 -0.4395 -1.5871
  402MOL    H5548977   7.378   1.107   5.348  1.1361  0.0368  1.3683
  402MOL    C5648978   7.481   1.018   5.189  0.4400 -0.3483  0.1227
  402MOL    C5748979   7.578   1.058   5.068 -0.2756  0.1764  0.2284
  402MOL    F5848980   7.698   1.095   5.116  0.7215 -0.0137  0.2165
  402MOL    H5948981   7.533   0.952   5.258  2.7574  1.1124 -0.1320
  402MOL    H6048982   7.393   0.970   5.147  0.3684  1.0941 -1.4272
  402MOL    H6148983   7.540   1.141   5.008 -3.3829 -0.2548  1.5167
  402MOL    C6248984   7.613   0.927   4.987 -0.2635 -0.1577 -0.2456
  402MOL    C6348985   7.736   0.934   4.899  0.1936 -0.3404 -0.3504
  402MOL    F6448986   7.754   0.812   4.847  0.7680 -0.0652 -0.6497
  402MOL    H6548987   7.622   0.839   5.050 -1.3786 -0.4167 -0.4322
  402MOL    H6648988   7.524   0.909   4.926  0.4548 -0.3092 -1.2582
  402MOL    H6748989   7.824   0.945   4.962 -0.3659 -0.7145  0.5105
  402MOL    C6848990   7.725   1.035   4.786  0.1293 -0.7480  0.4116
  402MOL    C6948991   7.851   1.043   4.694  0.3186 -0.6106 -0.3227
  402MOL    F7048992   7.908   0.926   4.680  0.1370 -0.2274  0.2374
  402MOL    H7148993   7.638   1.015   4.723 -2.1684  1.4164  2.7368
  402MOL    H7248994   7.691   1.134   4.818  0.3997 -0.6460  0.3844
  402MOL    H7348995   7.928   1.097   4.749 -0.4622 -0.6315  0.7996
  402MOL    C7448996   7.829   1.110   4.558  0.1880  0.1232 -0.1454
  402MOL    C7548997   7.764   1.254   4.558 -0.0751  0.3047 -0.1579
  402MOL    F7648998   7.808   1.322   4.661 -0.2021  0.1178  0.1572
  402MOL    H7748999   7.924   1.113   4.506 -0.2683  0.6070 -0.9788
  402MOL    H7849000   7.764   1.050   4.494 -0.3821 -0.1270  0.6541
  402MOL    H7949001   7.655   1.242   4.561  0.1914 -2.6003 -0.3489
  402MOL    C8049002   7.809   1.344   4.439  0.0239 -0.0631 -0.5023
  402MOL    C8149003   7.789   1.281   4.300  0.2236  0.0924  0.7666
  402MOL    F8249004   7.661   1.244   4.280  0.3597  0.6072  0.0664
  402MOL    H8349005   7.758   1.439   4.452 -0.8556 -0.6262  0.2484
  402MOL    H8449006   7.914   1.372   4.442 -0.1358  0.6738 -1.5595
  402MOL    H8549007   7.841   1.186   4.300  0.1493  0.0360  2.3045
  402MOL    C8649008   7.825   1.362   4.173  0.3645  0.0791  0.3751
  402MOL    C8749009   7.972   1.377   4.131  0.3694  0.1403  0.2927
  402MOL    F8849010   0.013   1.257   4.106 -0.3657  0.0751  0.5953
  402MOL    H8949011   7.755   1.338   4.092  0.1882  0.0273  0.5424
  402MOL    H9049012   7.784   1.462   4.186 -1.3330 -0.1733 -2.4479
  402MOL    H9149013   0.031   1.423   4.209  0.0679  0.4774  0.3344
  402MOL    C9249014   7.980   1.455   4.003 -0.2339 -0.2110 -0.3904
  402MOL    C9349015   7.965   1.607   4.013 -0.1625  0.0163  0.5930
  402MOL    F9449016   0.038   1.648   4.111 -0.1978 -0.2262 -0.2529
  402MOL    H9549017   0.074   1.433   3.960 -1.0420 -1.7696 -1.4493
  402MOL    H9649018   7.919   1.415   3.922 -1.2627  0.9921 -0.2246
  402MOL    H9749019   7.865   1.638   4.045 -0.2945  2.5284 -2.0344
  402MOL    C9849020   7.990   1.687   3.877  0.5262 -0.4778 -0.7713
  402MOL    C9949021   7.950   1.842   3.882  0.0905  0.1574  0.3588
  402MOL   F10049022   7.821   1.856   3.912  0.1944 -0.1564  0.4432
  402MOL   H10149023   0.092   1.679   3.849  0.8984  0.1820  0.4378
  402MOL   H10249024   7.941   1.642   3.790  0.2137  0.6913 -1.2171
  402MOL   H10349025   7.970   1.884   3.784 -1.1960  1.2751  0.5604
  402MOL   C10449026   0.024   1.933   3.980 -0.2806 -0.2995 -0.1190
  402MOL   C10549027   0.180   1.922   3.963 -0.8934 -0.1551 -0.4172
  402MOL   F10649028   0.202   1.937   3.831 -0.3487  0.5895 -0.5634
  402MOL   H10749029   7.993   2.035   3.959 -1.5747 -0.8793 -0.8772
  402MOL   H10849030   7.989   1.912   4.079  1.6972 -3.6286 -0.0097
  402MOL   H10949031   0.216   1.821   3.984 -0.9425 -0.1661 -0.3857
  402MOL   C11049032   0.246   2.029   4.044 -0.1017 -0.0796 -0.3587
  402MOL   C11149033   0.253   1.992   4.192 -0.0212 -0.3450 -0.1983
  402MOL   F11249034   0.342   1.899   4.197  0.3900 -0.5170 -0.2005
  402MOL   H11349035   0.348   2.048   4.010  0.8368 -1.0638  1.8604
  402MOL   H11449036   0.192   2.123   4.030  0.1168  0.3642  1.6244
  402MOL   H11549037   0.159   1.954   4.232  0.7096 -1.4522  0.4944
  402MOL   C11649038   0.293   2.106   4.284 -0.1202  0.8267  0.7289
  402MOL   C11749039   0.419   2.191   4.253 -0.4591  0.0542  0.4419
  402MOL   F11849040   0.431   2.291   4.345 -0.0734 -0.5255 -0.1510
  402MOL   H11949041   0.210   2.177   4.285  0.2185  1.2005  2.1461
  402MOL   H12049042   0.305   2.056   4.380 -1.5127  0.0216  0.4985
  402MOL   H12149043   0.426   2.224   4.149 -0.5247  0.9966  0.7287
  402MOL   H12249044   0.510   2.132   4.260 -0.2428  0.4327  0.8358
  403MOL     C149045   4.260   3.729   0.561 -0.3952 -0.0913  0.4172
  403MOL     C249046   4.288   3.771   0.709  0.3247 -0.7469  0.6570
  403MOL     F349047   4.220   3.887   0.738  0.1717 -0.1392  0.4141
  403MOL     H449048   4.164   3.680   0.549 -0.7374  0.6537  0.0869
  403MOL     H549049   4.332   3.652   0.532 -0.3368  0.3959 -0.7643
  403MOL     H649050   4.392   3.800   0.716  0.1347  0.4827 -1.4962
  403MOL     H749051   4.254   3.805   0.483 -1.9158 -2.6205 -2.0051
  403MOL     C849052   4.237   3.661   0.810  0.1388 -0.1208  0.1322
  403MOL     C949053   4.340   3.548   0.824  0.3822  0.2970 -0.1959
  403MOL    F1049054   4.457   3.608   0.852 -0.1358  0.1314  0.1787
  403MOL    H1149055   4.248   3.701   0.911 -0.5295  1.2236 -0.3249
  403MOL    H1249056   4.131   3.635   0.800  0.1148  0.6030 -1.5682
  403MOL    H1349057   4.352   3.492   0.732 -2.0416 -0.3656 -0.1337
  403MOL    C1449058   4.302   3.465   0.948  0.1629  0.7962 -0.4987
  403MOL    C1549059   4.181   3.373   0.933  0.1942  1.0439 -0.7202
  403MOL    F1649060   4.183   3.312   0.812 -0.0522 -0.0964  0.3853
  403MOL    H1749061   4.391   3.407   0.973 -0.5996 -0.3740 -0.4452
  403MOL    H1849062   4.287   3.527   1.036  0.4678  0.4364 -0.1917
  403MOL    H1949063   4.095   3.440   0.934 -1.0092 -0.4689  0.7761
  403MOL    C2049064   4.182   3.272   1.049  0.3889  0.3029 -0.2934
  403MOL    C2149065   4.148   3.334   1.187 -0.2607 -1.0721  0.1969
  403MOL    F2249066   4.027   3.386   1.186 -0.0958 -0.2070 -0.6603
  403MOL    H2349067   4.125   3.182   1.027  1.3904 -0.3805 -0.1398
  403MOL    H2449068   4.281   3.227   1.055  0.5447  0.4644 -1.5321
  403MOL    H2549069   4.221   3.414   1.198  0.7668 -1.8721 -0.6725
  403MOL    C2649070   4.174   3.249   1.315  0.5520 -0.4533 -0.4176
  403MOL    C2749071   4.153   3.309   1.458  0.2993  0.1529  0.7311
  403MOL    F2849072   4.032   3.359   1.463 -0.2889  0.2804 -0.1970
  403MOL    H2949073   4.122   3.155   1.294 -1.6065  1.0276 -1.9564
  403MOL    H3049074   4.282   3.235   1.312  0.6687  0.6291 -1.6373
  403MOL    H3149075   4.231   3.384   1.469 -0.2245  0.6276  1.2483
  403MOL    C3249076   4.163   3.207   1.570 -0.0876 -0.3427 -0.4700
  403MOL    C3349077   4.250   3.238   1.693 -0.1078 -0.4055 -0.0789
  403MOL    F3449078   4.206   3.350   1.740 -0.2124 -0.5207  0.1049
  403MOL    H3549079   4.063   3.180   1.602  0.3686  0.1223  1.4396
  403MOL    H3649080   4.201   3.111   1.535 -0.8187 -1.0198  0.5867
  403MOL    H3749081   4.349   3.257   1.650 -0.3665  0.3005 -0.3702
  403MOL    C3849082   4.270   3.135   1.799  0.6415  0.3222 -0.0925
  403MOL    C3949083   4.147   3.112   1.889  0.8270 -0.3293 -0.5938
  403MOL    F4049084   4.041   3.081   1.808  0.4315  0.0574 -0.2094
  403MOL    H4149085   4.294   3.040   1.752 -2.8721 -1.3668  1.3547
  403MOL    H4249086   4.353   3.175   1.857  1.1882  0.9091 -1.2685
  403MOL    H4349087   4.119   3.210   1.928  1.3435 -0.8390  1.0940
  403MOL    C4449088   4.167   3.014   2.011 -0.0874 -0.4045  0.4400
  403MOL    C4549089   4.045   2.969   2.084  0.0631 -0.2949  0.0309
  403MOL    F4649090   4.087   2.873   2.163 -0.0789  0.3812  0.1446
  403MOL    H4749091   4.231   2.930   1.985  0.7969 -0.1696  1.7917
  403MOL    H4849092   4.235   3.071   2.074  0.1350  0.8884 -0.9464
  403MOL    H4949093   3.988   2.914   2.008 -0.0265  1.2992 -1.0866
  403MOL    C5049094   3.981   3.085   2.162 -0.4718  0.0005  0.1276
  403MOL    C5149095   3.866   3.034   2.246 -0.1076  0.1968 -0.2435
  403MOL    F5249096   3.854   3.139   2.333 -0.4352 -1.0276  0.3659
  403MOL    H5349097   4.056   3.129   2.228 -3.0241  3.5148  0.8197
  403MOL    H5449098   3.961   3.159   2.085  0.6257 -1.2794 -1.4322
  403MOL    H5549099   3.892   2.946   2.304  0.0089  0.5182  0.1982
  403MOL    C5649100   3.738   3.017   2.170 -0.2643 -0.0991  0.1885
  403MOL    C5749101   3.631   2.927   2.234  0.3506 -0.0792 -0.2387
  403MOL    F5849102   3.667   2.800   2.253  0.1044  0.1349  0.3144
  403MOL    H5949103   3.695   3.117   2.166 -2.4312 -0.9215  1.8222
  403MOL    H6049104   3.761   2.995   2.066  1.9555 -0.3528  0.7098
  403MOL    H6149105   3.542   2.915   2.173 -0.3217  0.3703  0.6309
  403MOL    C6249106   3.571   2.983   2.370  0.4184  0.3370 -0.3450
  403MOL    C6349107   3.442   2.924   2.433 -0.1869 -0.9761  0.1748
  403MOL    F6449108   3.468   2.797   2.435 -0.2190  0.2249 -0.1922
  403MOL    H6549109   3.649   2.957   2.441 -0.9448  2.9184  2.2592
  403MOL    H6649110   3.568   3.092   2.362  1.9837  0.4300  0.3184
  403MOL    H6749111   3.355   2.930   2.367 -1.1268 -0.4010  1.4397
  403MOL    C6849112   3.404   2.976   2.572  1.2789 -0.3167 -0.3882
  403MOL    C6949113   3.293   2.898   2.647 -0.2983 -0.2312 -1.2068
  403MOL    F7049114   3.283   2.953   2.768 -0.1760  0.5822  0.1125
  403MOL    H7149115   3.499   2.990   2.623  0.6140  0.4727  0.6736
  403MOL    H7249116   3.372   3.080   2.571  2.0742 -0.0559  0.7740
  403MOL    H7349117   3.342   2.802   2.663 -0.7924 -0.2826  0.0554
  403MOL    C7449118   3.157   2.875   2.570 -0.3916 -0.0579 -0.6576
  403MOL    C7549119   3.087   2.999   2.513  0.0701  0.0976  0.3255
  403MOL    F7649120   3.155   3.048   2.410  0.3151  0.0221  0.3687
  403MOL    H7749121   3.166   2.807   2.485  0.5825 -1.7906  0.7765
  403MOL    H7849122   3.095   2.820   2.641  1.5815 -1.3782  0.0859
  403MOL    H7949123   3.082   3.081   2.584 -3.8142 -1.8285  2.4475
  403MOL    C8049124   2.939   2.979   2.467 -0.0169 -0.3015 -0.1909
  403MOL    C8149125   2.841   2.940   2.577 -0.1200 -0.3615  0.1041
  403MOL    F8249126   2.855   2.998   2.693 -0.1419 -0.1470  0.3441
  403MOL    H8349127   2.906   3.070   2.417  1.1471  0.6693  0.7774
  403MOL    H8449128   2.938   2.898   2.395 -1.6120 -0.9873  0.5831
  403MOL    H8549129   2.872   2.839   2.603  1.2906  0.1199  0.3235
  403MOL    C8649130   2.687   2.953   2.540  0.4755 -0.1029 -0.3105
  403MOL    C8749131   2.619   3.092   2.572  0.4105  0.8293 -0.5477
  403MOL    F8849132   2.682   3.176   2.487 -0.2334  0.2704 -0.3003
  403MOL    H8949133   2.675   2.933   2.433 -3.0018  0.7822 -0.1341
  403MOL    H9049134   2.632   2.890   2.610 -0.1314  1.3739  0.5658
  403MOL    H9149135   2.623   3.126   2.675 -0.9779  0.0915 -0.2474
  403MOL    C9249136   2.471   3.104   2.521  0.2088  0.0723 -0.1016
  403MOL    C9349137   2.368   3.056   2.632  0.3978 -0.0476 -0.0994
  403MOL    F9449138   2.364   3.149   2.722 -0.1076  0.0019 -0.1034
  403MOL    H9549139   2.440   3.202   2.487 -0.9070 -0.0440  0.5262
  403MOL    H9649140   2.460   3.043   2.431  0.3346 -0.0990 -0.0011
  403MOL    H9749141   2.395   2.963   2.682  1.0366  0.1860 -0.0125
  403MOL    C9849142   2.229   3.035   2.581 -0.1417 -0.2785  0.1389
  403MOL    C9949143   2.211   2.907   2.499  0.0449 -0.7712  0.2289
  403MOL   F10049144   2.259   2.802   2.563  0.4056 -0.0517 -0.7573
  403MOL   H10149145   2.157   3.046   2.662  0.2337  0.1599  0.4125
  403MOL   H10249146   2.197   3.123   2.525  0.5340  0.4976  0.9609
  403MOL   H10349147   2.266   2.920   2.406 -1.5413  0.2467 -0.5809
  403MOL   C10449148   2.059   2.874   2.470  0.2002  0.6767 -0.6456
  403MOL   C10549149   2.003   2.957   2.350 -0.2248  0.4147  0.4825
  403MOL   F10649150   2.042   2.911   2.235 -0.2826  0.4766  0.5648
  403MOL   H10749151   2.068   2.773   2.431 -0.2575  1.2694 -2.3231
  403MOL   H10849152   2.011   2.885   2.567  0.6562  1.4708 -0.5063
  403MOL   H10949153   2.039   3.058   2.366 -2.3324  1.0984  1.0285
  403MOL   C11049154   1.856   2.967   2.353  0.7043  0.5096  0.4645
  403MOL   C11149155   1.787   3.051   2.241  0.0371 -0.0414  0.7921
  403MOL   F11249156   1.660   3.033   2.269  0.0545 -0.2007  0.0160
  403MOL   H11349157   1.811   2.869   2.366 -2.2020  1.7758  0.3886
  403MOL   H11449158   1.826   3.017   2.445  0.5087  4.3990 -1.6054
  403MOL   H11549159   1.797   3.011   2.140 -0.2367  1.6534  0.0776
  403MOL   C11649160   1.822   3.199   2.251  0.1819 -0.3224  0.1945
  403MOL   C11749161   1.774   3.274   2.373  0.1476  0.2686  0.1057
  403MOL   F11849162   1.847   3.236   2.471 -0.0730 -0.0404 -0.4460
  403MOL   H11949163   1.931   3.205   2.249  0.1623  1.2506  2.1858
  403MOL   H12049164   1.792   3.244   2.157  0.7963  0.8691  0.5554
  403MOL   H12149165   1.671   3.249   2.397  0.9732 -2.5330  0.9492
  403MOL   H12249166   1.785   3.382   2.367 -2.7137  0.5432 -0.8993
  404MOL     C149167   1.878   5.780   2.178  0.2541  0.9383  0.3575
  404MOL     C249168   1.814   5.660   2.236  0.7464  0.4350  0.3534
  404MOL     F349169   1.698   5.649   2.173  0.3432  0.0360  0.0785
  404MOL     H449170   1.974   5.801   2.226  1.6456  0.2126 -2.0265
  404MOL     H549171   1.814   5.864   2.206  0.4314  0.7230  1.4223
  404MOL     H649172   1.814   5.677   2.343  0.8205  0.0137  0.4212
  404MOL     H749173   1.906   5.767   2.074  1.4024  1.2193  0.6260
  404MOL     C849174   1.902   5.534   2.205  0.4387  0.7612 -0.7742
  404MOL     C949175   1.883   5.426   2.321  0.1779 -0.1974 -0.3098
  404MOL    F1049176   1.934   5.469   2.437 -0.6469  0.4297  0.2782
  404MOL    H1149177   1.870   5.485   2.113  0.3987  1.3390 -1.0709
  404MOL    H1249178   2.004   5.564   2.184  0.6602 -0.7127 -1.8339
  404MOL    H1349179   1.938   5.335   2.298  1.0086  0.1832  0.1570
  404MOL    C1449180   1.741   5.394   2.359  0.2143  1.1006 -0.2053
  404MOL    C1549181   1.685   5.280   2.266  0.3924 -0.1603  0.2266
  404MOL    F1649182   1.754   5.172   2.294 -0.2148 -0.3143  0.1348
  404MOL    H1749183   1.750   5.352   2.459 -2.5121  0.1782 -0.2979
  404MOL    H1849184   1.685   5.487   2.345 -2.9736 -0.5257  1.3553
  404MOL    H1949185   1.707   5.300   2.161 -1.1307 -0.5416 -0.1722
  404MOL    C2049186   1.539   5.241   2.289 -0.0786 -0.3195 -0.0484
  404MOL    C2149187   1.438   5.336   2.216  1.0453 -0.3825 -0.8837
  404MOL    F2249188   1.467   5.327   2.085  0.4925 -0.4156 -0.5977
  404MOL    H2349189   1.514   5.139   2.260 -1.5877  0.1845 -0.6097
  404MOL    H2449190   1.522   5.245   2.396 -1.8782 -0.1079 -0.3207
  404MOL    H2549191   1.461   5.435   2.254 -0.1621 -0.4184 -0.0326
  404MOL    C2649192   1.281   5.318   2.243 -0.1675  0.0327 -0.8101
  404MOL    C2749193   1.230   5.367   2.383  0.4448  0.0300  0.3787
  404MOL    F2849194   1.251   5.500   2.388 -0.4118  0.3777  0.3159
  404MOL    H2949195   1.226   5.367   2.164 -0.7289  1.8707  0.7028
  404MOL    H3049196   1.278   5.209   2.233 -0.3125  0.0381 -0.8265
  404MOL    H3149197   1.286   5.328   2.469  0.4562 -1.0748 -0.1180
  404MOL    C3249198   1.080   5.340   2.429 -0.4274  0.2645 -0.1918
  404MOL    C3349199   0.972   5.371   2.321  0.5325  0.7110 -0.2235
  404MOL    F3449200   0.986   5.302   2.212  0.3189  0.5379 -0.3170
  404MOL    H3549201   1.076   5.238   2.469 -1.3167 -0.0181 -0.9958
  404MOL    H3649202   1.058   5.406   2.513 -0.9277  1.1636 -1.0240
  404MOL    H3749203   0.969   5.478   2.302 -0.6629  0.5097 -1.2138
  404MOL    C3849204   0.825   5.337   2.368 -0.2942  0.2977 -0.3120
  404MOL    C3949205   0.711   5.367   2.270  0.3190 -0.0331  0.1619
  404MOL    F4049206   0.707   5.263   2.187  0.1114  0.2803  0.0790
  404MOL    H4149207   0.825   5.237   2.412  0.0136  0.3000 -0.3036
  404MOL    H4249208   0.810   5.383   2.465  0.0337  1.8317 -0.9625
  404MOL    H4349209   0.743   5.445   2.201  2.8372 -2.0472 -1.0622
  404MOL    C4449210   0.572   5.394   2.326 -0.3425  0.4690  0.4831
  404MOL    C4549211   0.472   5.446   2.218  0.4943 -0.4458 -0.0186
  404MOL    F4649212   0.515   5.574   2.187 -0.2615  0.4617 -0.0633
  404MOL    H4749213   0.533   5.312   2.385 -2.8319  1.2540 -0.0129
  404MOL    H4849214   0.577   5.467   2.406 -0.4312  1.8913 -0.7735
  404MOL    H4949215   0.375   5.442   2.268 -0.7451 -0.5709 -2.3774
  404MOL    C5049216   0.452   5.358   2.093  0.3667 -0.0419  0.0908
  404MOL    C5149217   0.331   5.384   2.013 -0.1596  0.4280  0.4439
  404MOL    F5249218   0.325   5.504   1.945  0.5036  0.6342  0.5488
  404MOL    H5349219   0.541   5.365   2.030 -0.1826 -1.1383 -0.8318
  404MOL    H5449220   0.446   5.259   2.139 -0.1396 -0.9345 -1.8255
  404MOL    H5549221   0.243   5.379   2.077 -1.2487  1.3731 -0.9285
  404MOL    C5649222   0.314   5.273   1.910 -0.7181 -0.1556  0.0428
  404MOL    C5749223   0.257   5.131   1.944  0.5227  0.3081 -0.3683
  404MOL    F5849224   0.140   5.159   2.007 -0.3099  0.5472  0.2081
  404MOL    H5949225   0.249   5.312   1.832 -1.5833 -1.2709  0.1964
  404MOL    H6049226   0.408   5.271   1.855  1.0272  1.2946  2.8871
  404MOL    H6149227   0.302   5.068   2.022  2.8923  2.7455  0.2873
  404MOL    C6249228   0.220   5.050   1.815  0.7225  0.0713  0.2606
  404MOL    C6349229   0.133   4.931   1.842 -0.3434 -0.2363 -0.1478
  404MOL    F6449230   0.030   4.945   1.759 -0.4389 -0.2944 -0.0448
  404MOL    H6549231   0.173   5.116   1.742 -3.3614 -1.8816  0.9326
  404MOL    H6649232   0.313   5.020   1.768  0.7744  0.8645 -0.1465
  404MOL    H6749233   0.084   4.918   1.938 -1.8796 -0.7754 -0.9876
  404MOL    C6849234   0.198   4.797   1.809  0.4684 -0.2478  0.4573
  404MOL    C6949235   0.301   4.746   1.916 -0.1015  0.5339  0.0805
  404MOL    F7049236   0.380   4.850   1.957 -0.0960 -0.1069  0.4826
  404MOL    H7149237   0.126   4.716   1.794  1.7989 -1.4994  0.6829
  404MOL    H7249238   0.240   4.806   1.709  0.7413  0.4322  0.6315
  404MOL    H7349239   0.364   4.665   1.879 -1.9015 -2.0378  2.4038
  404MOL    C7449240   0.245   4.692   2.050  0.5156 -0.4271  0.1923
  404MOL    C7549241   0.139   4.573   2.042  0.7096 -0.0809  0.3034
  404MOL    F7649242   0.181   4.472   1.958  0.0280  0.0862 -0.5779
  404MOL    H7749243   0.329   4.661   2.113 -0.2958 -1.9589  0.5501
  404MOL    H7849244   0.204   4.778   2.103 -1.0326 -1.4441  0.6870
  404MOL    H7949245   0.040   4.593   2.001  0.7727 -1.4670 -0.5714
  404MOL    C8049246   0.103   4.505   2.177  0.0073 -0.6659  0.1196
  404MOL    C8149247   0.018   4.589   2.266  0.5883 -0.1864 -0.5528
  404MOL    F8249248   7.913   4.623   2.197  0.3202  0.3167 -0.2807
  404MOL    H8349249   0.056   4.409   2.151 -1.3842  0.4905 -1.8039
  404MOL    H8449250   0.191   4.469   2.230 -0.0579  1.6242  1.8633
  404MOL    H8549251   0.068   4.684   2.280 -1.2957  0.8898 -0.9102
  404MOL    C8649252   7.987   4.532   2.400  0.6505  0.1866  0.0987
  404MOL    C8749253   7.882   4.417   2.422 -0.0079  0.1451 -0.4662
  404MOL    F8849254   7.904   4.331   2.335  0.0310  0.3069 -0.6899
  404MOL    H8949255   0.080   4.494   2.436  1.7810  1.1826 -1.8362
  404MOL    H9049256   7.960   4.612   2.468  0.9291 -0.2763  0.7666
  404MOL    H9149257   7.779   4.446   2.407  0.0844 -0.2002 -1.8013
  404MOL    C9249258   7.906   4.348   2.565 -0.2151  0.2848  0.0821
  404MOL    C9349259   7.781   4.274   2.607 -0.5792  0.3323  0.0592
  404MOL    F9449260   7.747   4.176   2.518  0.1788  0.0487  0.5267
  404MOL    H9549261   7.995   4.287   2.573 -0.3154  0.2268  0.8372
  404MOL    H9649262   7.922   4.428   2.637  0.3250 -0.4243  0.7503
  404MOL    H9749263   7.691   4.334   2.598 -2.4251 -2.1269  1.3494
  404MOL    C9849264   7.771   4.228   2.753  0.3435  0.2849  0.6863
  404MOL    C9949265   7.649   4.148   2.787 -0.1091  0.9718  0.2103
  404MOL   F10049266   7.636   4.053   2.700  0.2165  0.3519 -0.2656
  404MOL   H10149267   7.859   4.164   2.760 -2.0652 -3.1638  0.3396
  404MOL   H10249268   7.791   4.310   2.823  0.3333  1.2796 -0.4627
  404MOL   H10349269   7.554   4.203   2.790 -1.0405 -0.6546  0.9814
  404MOL   C10449270   7.661   4.068   2.918  0.0607  0.7386  0.3891
  404MOL   C10549271   7.683   4.167   3.040  0.4366  0.1821  0.3228
  404MOL   F10649272   7.595   4.265   3.048  0.2924 -0.9398 -0.5846
  404MOL   H10749273   7.580   4.001   2.947 -0.2438  1.2626  0.7483
  404MOL   H10849274   7.740   3.994   2.907  0.9608  1.2467  3.0403
  404MOL   H10949275   7.778   4.221   3.029  0.0616  0.6820 -0.5486
  404MOL   C11049276   7.682   4.106   3.176  0.2550  0.2080 -0.4410
  404MOL   C11149277   7.805   4.015   3.209  0.4177 -0.2461  0.3176
  404MOL   F11249278   7.919   4.082   3.180  0.0432 -0.2573 -0.3555
  404MOL   H11349279   7.691   4.190   3.246  1.2607 -0.7304  0.5701
  404MOL   H11449280   7.581   4.064   3.181  1.2424 -2.0997  0.7696
  404MOL   H11549281   7.801   3.941   3.129  0.8860  0.7884 -0.6645
  404MOL   C11649282   7.814   3.963   3.352  0.5230  0.1214 -0.0954
  404MOL   C11749283   7.924   3.859   3.380  1.2533  0.1772 -0.5038
  404MOL   F11849284   0.043   3.914   3.403  0.7558 -0.0621  0.0247
  404MOL   H11949285   7.826   4.051   3.415 -0.4375  1.6158 -1.9559
  404MOL   H12049286   7.715   3.931   3.382  0.8383 -0.8346 -0.0625
  404MOL   H12149287   7.936   3.798   3.291  1.6848 -1.4376  0.6436
  404MOL   H12249288   7.903   3.797   3.467  0.1266 -1.0743 -1.6517
  405MOL     C149289   7.305   1.507   6.514  0.1159 -0.5356  0.1746
  405MOL     C249290   7.412   1.573   6.606 -0.3620 -0.0023  0.2046
  405MOL     F349291   7.483   1.473   6.661  0.1583 -0.2631  0.1779
  405MOL     H449292   7.231   1.457   6.577 -0.6781  0.0134 -0.3151
  405MOL     H549293   7.346   1.439   6.440 -3.1309 -0.4914 -1.7772
  405MOL     H649294   7.364   1.614   6.695 -1.9113  1.2111 -1.1339
  405MOL     H749295   7.251   1.570   6.443  0.3000 -2.2716 -1.5467
  405MOL     C849296   7.511   1.665   6.536  0.7083  0.1459  0.7204
  405MOL     C949297   7.456   1.798   6.480 -0.5852 -0.8282  0.3781
  405MOL    F1049298   7.410   1.860   6.588 -0.0019  0.3884  0.7972
  405MOL    H1149299   7.591   1.699   6.602 -0.1696  4.3724 -0.2048
  405MOL    H1249300   7.561   1.622   6.449  0.7142 -0.9576  1.2692
  405MOL    H1349301   7.372   1.790   6.411 -0.8526  0.3937  0.5597
  405MOL    C1449302   7.562   1.896   6.419 -0.7125  0.0782 -0.5894
  405MOL    C1549303   7.512   2.016   6.330  0.3181  0.0698  0.3028
  405MOL    F1649304   7.457   1.953   6.228 -0.2369 -0.4259 -0.5424
  405MOL    H1749305   7.630   1.944   6.490  0.6506  1.1578 -2.5686
  405MOL    H1849306   7.631   1.835   6.361 -1.8859 -1.4673 -0.3799
  405MOL    H1949307   7.593   2.069   6.280 -0.2013  1.8229  1.2718
  405MOL    C2049308   7.399   2.114   6.386  0.3626  0.0635  0.0389
  405MOL    C2149309   7.461   2.221   6.481 -0.6005  0.2202  0.2879
  405MOL    F2249310   7.554   2.289   6.411 -0.2917  0.4493  0.5083
  405MOL    H2349311   7.352   2.157   6.298 -0.3373  0.5955  0.6672
  405MOL    H2449312   7.319   2.055   6.432  1.2522 -1.9255 -0.8862
  405MOL    H2549313   7.515   2.161   6.555  2.4142  3.1775  0.6076
  405MOL    C2649314   7.369   2.318   6.542  0.1373 -0.0992  0.3070
  405MOL    C2749315   7.428   2.394   6.659 -0.1660 -0.0917  0.2626
  405MOL    F2849316   7.487   2.311   6.739 -0.3015  0.0300 -0.0686
  405MOL    H2949317   7.334   2.384   6.461  0.1230  1.0169  1.2123
  405MOL    H3049318   7.281   2.264   6.576  0.6889 -0.6682  0.8342
  405MOL    H3149319   7.349   2.435   6.722  1.3288  1.3978  1.2098
  405MOL    C3249320   7.520   2.511   6.626  0.1981  0.6304 -0.7578
  405MOL    C3349321   7.586   2.580   6.750 -0.7561  0.5196 -0.0380
  405MOL    F3449322   7.682   2.676   6.728  0.1737  0.2188 -0.0267
  405MOL    H3549323   7.598   2.466   6.565  0.6396 -0.6383  0.7173
  405MOL    H3649324   7.461   2.581   6.566 -1.2999  1.0158  1.1431
  405MOL    H3749325   7.635   2.495   6.797 -1.1234  0.9516  1.1441
  405MOL    C3849326   7.489   2.645   6.851  0.8346 -0.4372  0.4651
  405MOL    C3949327   7.378   2.737   6.793 -0.6698  0.5510 -0.0999
  405MOL    F4049328   7.301   2.669   6.714  0.8895 -0.2296  0.3289
  405MOL    H4149329   7.441   2.562   6.903  2.8066 -2.6506 -1.1115
  405MOL    H4249330   7.544   2.708   6.920  0.6098  0.3699 -0.0917
  405MOL    H4349331   7.423   2.812   6.728 -0.9272 -0.2672 -1.2332
  405MOL    C4449332   7.299   2.794   6.918 -0.0688  0.6644  0.8285
  405MOL    C4549333   7.198   2.907   6.873  0.1024  0.5312  0.3252
  405MOL    F4649334   7.131   2.947   6.979 -0.1880 -0.4575 -0.2810
  405MOL    H4749335   7.252   2.711   6.971 -1.8675  0.8929 -0.3835
  405MOL    H4849336   7.364   2.846   6.988  1.2530  0.7892 -0.4457
  405MOL    H4949337   7.132   2.868   6.796  0.2330  0.6158  0.1697
  405MOL    C5049338   7.272   3.041   6.835  0.0400 -0.7276  0.6569
  405MOL    C5149339   7.165   3.158   6.837 -0.5189  0.1559 -0.5394
  405MOL    F5249340   7.219   3.280   6.803  0.2087 -0.4020  0.7077
  405MOL    H5349341   7.359   3.065   6.895 -0.3601  0.7859  0.6489
  405MOL    H5449342   7.301   3.028   6.730 -2.4103  1.9395 -0.4119
  405MOL    H5549343   7.135   3.182   6.939 -1.1460  0.3143 -0.7590
  405MOL    C5649344   7.045   3.154   6.744 -0.0507 -0.3381  0.3216
  405MOL    C5749345   7.080   3.162   6.591 -1.1896  0.5628 -0.4277
  405MOL    F5849346   7.130   3.040   6.556 -0.0087  0.6304  0.1371
  405MOL    H5949347   6.995   3.061   6.771 -0.4295 -1.3213 -3.4256
  405MOL    H6049348   6.977   3.234   6.771  0.1405 -0.6438  1.7618
  405MOL    H6149349   7.154   3.241   6.580 -1.5371  1.0739  0.8881
  405MOL    C6249350   6.958   3.196   6.503  0.0104 -0.7488  0.2385
  405MOL    C6349351   6.926   3.348   6.522 -0.1785  0.5194 -0.2018
  405MOL    F6449352   7.032   3.427   6.486 -0.0318 -0.1529 -0.6486
  405MOL    H6549353   6.982   3.192   6.397 -1.2244 -2.0093 -0.0088
  405MOL    H6649354   6.877   3.123   6.506 -1.2017  0.4920 -1.4350
  405MOL    H6749355   6.911   3.371   6.627  1.6238 -0.7731  0.3623
  405MOL    C6849356   6.800   3.379   6.452  0.2176  0.3143 -0.6336
  405MOL    C6949357   6.725   3.502   6.512  0.2536 -0.5782  0.0246
  405MOL    F7049358   6.797   3.616   6.501 -0.3454 -0.0306 -0.5393
  405MOL    H7149359   6.821   3.384   6.345 -1.4555 -2.7688 -1.1639
  405MOL    H7249360   6.736   3.292   6.457  0.3654  0.2246 -0.3030
  405MOL    H7349361   6.709   3.490   6.619 -1.3887  2.6386  0.2183
  405MOL    C7449362   6.593   3.527   6.438  0.3753  0.1159 -0.2318
  405MOL    C7549363   6.512   3.657   6.460  0.1269 -0.3331  0.5301
  405MOL    F7649364   6.420   3.665   6.367  0.5002 -0.4345  0.1631
  405MOL    H7749365   6.614   3.522   6.331  0.5865  2.3404 -0.3301
  405MOL    H7849366   6.536   3.435   6.453 -0.6244  0.6693 -0.5480
  405MOL    H7949367   6.566   3.747   6.431  0.0773 -0.3014  0.5348
  405MOL    C8049368   6.458   3.685   6.608 -0.6355  0.5596  0.0836
  405MOL    C8149369   6.336   3.596   6.634  0.3852 -0.5964 -0.1482
  405MOL    F8249370   6.379   3.475   6.653  0.2185 -0.1853 -0.6733
  405MOL    H8349371   6.543   3.658   6.671  0.0232  1.3164 -0.4594
  405MOL    H8449372   6.443   3.792   6.619 -0.6822  0.3462  2.2475
  405MOL    H8549373   6.259   3.584   6.558  1.7380 -1.5281 -1.4007
  405MOL    C8649374   6.279   3.628   6.767  0.1529  0.4970  0.0352
  405MOL    C8749375   6.148   3.558   6.812  0.0452 -0.8145  0.2517
  405MOL    F8849376   6.059   3.608   6.721  0.3178 -0.3690  0.0942
  405MOL    H8949377   6.351   3.607   6.847 -1.0096  1.0663  1.2477
  405MOL    H9049378   6.262   3.736   6.765  1.1534  0.6703  0.2795
  405MOL    H9149379   6.118   3.605   6.907  0.7775 -2.1023  1.1326
  405MOL    C9249380   6.140   3.406   6.827  0.2359  0.4324  0.1633
  405MOL    C9349381   6.007   3.355   6.877 -0.5715 -0.4203  0.0632
  405MOL    F9449382   5.927   3.366   6.771 -0.3118 -0.7041 -0.3992
  405MOL    H9549383   6.171   3.361   6.733 -0.8090 -2.3055  1.1024
  405MOL    H9649384   6.210   3.360   6.896  0.3814  1.5756  0.7974
  405MOL    H9749385   5.975   3.418   6.960 -2.4098  0.2644 -1.1276
  405MOL    C9849386   6.016   3.208   6.915  0.0454  0.3145 -0.2969
  405MOL    C9949387   5.884   3.146   6.961 -0.1973 -0.3902  0.4502
  405MOL   F10049388   5.921   3.017   6.966 -0.2318  0.0683 -0.1813
  405MOL   H10149389   6.052   3.173   6.818  0.9714  0.5064 -0.0301
  405MOL   H10249390   6.099   3.184   6.981 -0.9413 -1.4568  0.3358
  405MOL   H10349391   5.796   3.149   6.898  0.7088  1.1471 -0.7656
  405MOL   C10449392   5.860   3.205   7.099 -0.2735 -0.4396 -0.4390
  405MOL   C10549393   5.764   3.120   7.183 -0.3391 -0.5828 -0.2563
  405MOL   F10649394   5.660   3.087   7.112  0.4734  0.1957  0.3911
  405MOL   H10749395   5.956   3.212   7.150 -0.1931 -1.0811 -0.5083
  405MOL   H10849396   5.813   3.303   7.090 -1.5543 -1.1559 -1.7201
  405MOL   H10949397   5.729   3.190   7.259  1.0958 -0.5028  0.3559
  405MOL   C11049398   5.835   2.998   7.252  0.5292  0.1424 -0.8543
  405MOL   C11149399   5.739   2.921   7.346 -0.0764 -0.2919  0.1830
  405MOL   F11249400   5.663   2.849   7.253 -0.3779 -0.3133 -0.6055
  405MOL   H11349401   5.887   2.929   7.185 -0.1722 -0.0771 -1.1769
  405MOL   H11449402   5.924   3.024   7.309  0.2176 -2.0918  0.7204
  405MOL   H11549403   5.676   2.986   7.408  1.7744  2.6211 -0.8978
  405MOL   C11649404   5.815   2.830   7.436 -0.5913  0.2397  0.0526
  405MOL   C11749405   5.725   2.787   7.556  0.9641 -0.0265 -0.5188
  405MOL   F11849406   5.807   2.725   7.647  0.7171 -0.3938 -0.3640
  405MOL   H11949407   5.852   2.743   7.382  0.8598  0.0433  1.3431
  405MOL   H12049408   5.901   2.884   7.476  0.4623 -0.1983 -1.5924
  405MOL   H12149409   5.647   2.717   7.526 -0.5362  1.2627  0.2873
  405MOL   H12249410   5.674   2.873   7.600 -2.5957 -2.1103 -0.3579
  406MOL     C149411   2.911   6.527   6.097 -0.1653  0.5611 -0.4257
  406MOL     C249412   2.974   6.484   5.964 -0.0194 -0.5933 -0.4911
  406MOL     F349413   2.959   6.360   5.950 -0.0168  0.2915  0.1145
  406MOL     H449414   2.979   6.496   6.176 -1.0999 -2.9092 -0.9101
  406MOL     H549415   2.813   6.483   6.115 -0.0839  1.1720  1.6365
  406MOL     H649416   3.082   6.499   5.956 -0.2276  1.3765 -0.0105
  406MOL     H749417   2.910   6.636   6.107  2.4917  0.5358  0.4963
  406MOL     C849418   2.898   6.547   5.848  0.9617 -0.3548  0.8131
  406MOL     C949419   2.904   6.698   5.845 -0.2433 -0.4533  0.3852
  406MOL    F1049420   3.031   6.736   5.830  0.2293  0.1852 -0.2351
  406MOL    H1149421   2.939   6.504   5.756  0.8809 -0.6009  0.8939
  406MOL    H1249422   2.796   6.511   5.857  1.0455 -1.4495 -1.9309
  406MOL    H1349423   2.869   6.749   5.935  1.2629 -0.7687  1.1658
  406MOL    C1449424   2.827   6.754   5.729  0.1332  0.4758 -0.4168
  406MOL    C1549425   2.829   6.904   5.726  0.5114  0.2566  0.1540
  406MOL    F1649426   2.953   6.953   5.734 -0.3877 -0.0554 -0.1012
  406MOL    H1749427   2.867   6.713   5.635  0.0666 -2.4570  0.7645
  406MOL    H1849428   2.723   6.723   5.724  0.6903 -1.4515 -0.7889
  406MOL    H1949429   2.761   6.934   5.806  0.6320 -0.1026  0.3924
  406MOL    C2049430   2.786   6.961   5.590  0.1935  0.0645  0.1709
  406MOL    C2149431   2.773   7.118   5.569  0.5690 -0.2171  0.0454
  406MOL    F2249432   2.732   7.146   5.445  0.1220 -0.4153  0.0695
  406MOL    H2349433   2.854   6.913   5.519 -0.1348  0.1609 -0.2136
  406MOL    H2449434   2.692   6.911   5.568  0.3730  0.5175 -1.7099
  406MOL    H2549435   2.876   7.151   5.579  1.3054 -1.9828 -1.6470
  406MOL    C2649436   2.678   7.189   5.662  0.0907  0.7284  0.0907
  406MOL    C2749437   2.666   7.341   5.629  0.4859  0.3696 -0.5068
  406MOL    F2849438   2.620   7.365   5.500 -0.0634  0.6778 -0.8676
  406MOL    H2949439   2.577   7.149   5.654  0.5458 -0.0874 -1.9251
  406MOL    H3049440   2.716   7.177   5.763  0.5283  1.8155  0.0697
  406MOL    H3149441   2.769   7.377   5.625  0.4368  0.7039  0.7229
  406MOL    C3249442   2.576   7.417   5.727  0.1881  0.6838 -0.4093
  406MOL    C3349443   2.586   7.576   5.720 -0.4936  0.0883 -0.5632
  406MOL    F3449444   2.712   7.606   5.742 -0.4886  0.3765 -0.2771
  406MOL    H3549445   2.472   7.395   5.702  0.3513 -0.2212 -0.2848
  406MOL    H3649446   2.602   7.384   5.828  0.6193 -1.7711 -1.2986
  406MOL    H3749447   2.526   7.620   5.800 -0.2023  1.8721 -1.2997
  406MOL    C3849448   2.548   7.642   5.588  0.2050  0.1261 -0.3113
  406MOL    C3949449   2.399   7.622   5.547 -0.1693  0.1207 -0.5138
  406MOL    F4049450   2.338   7.672   5.658 -0.3024 -0.0504  0.3739
  406MOL    H4149451   2.573   7.748   5.587 -1.2617  0.4939  0.8820
  406MOL    H4249452   2.612   7.599   5.511  1.4256 -0.7331  1.1362
  406MOL    H4349453   2.387   7.514   5.542 -2.2065  0.1737  2.4231
  406MOL    C4449454   2.347   7.692   5.425 -0.3636 -0.2548 -0.8188
  406MOL    C4549455   2.397   7.632   5.301  0.1649  0.0393  0.1154
  406MOL    F4649456   2.369   7.496   5.297  0.5666 -0.6203  0.5081
  406MOL    H4749457   2.240   7.689   5.445 -0.4830 -0.6305 -1.5005
  406MOL    H4849458   2.366   7.799   5.438 -1.8151 -0.3702  2.7202
  406MOL    H4949459   2.505   7.637   5.292  0.0197 -0.5848 -2.2053
  406MOL    C5049460   2.343   7.710   5.181 -0.7180  0.0854 -0.5414
  406MOL    C5149461   2.399   7.677   5.044 -0.3314 -0.0376  0.1015
  406MOL    F5249462   2.364   7.557   4.999 -0.1347  0.3166 -0.1595
  406MOL    H5349463   2.234   7.703   5.175 -0.5698 -2.6475 -0.8475
  406MOL    H5449464   2.373   7.811   5.208 -1.1702  0.6582 -2.1409
  406MOL    H5549465   2.508   7.676   5.049 -0.2710 -2.2945 -1.0441
  406MOL    C5649466   2.363   7.782   4.939 -0.1899 -0.3580  0.6244
  406MOL    C5749467   2.435   7.798   4.803 -0.0737 -0.4629 -0.2217
  406MOL    F5849468   2.434   7.679   4.742 -0.3602 -0.1322  0.0366
  406MOL    H5949469   2.258   7.769   4.912  0.8893 -3.8426 -2.2582
  406MOL    H6049470   2.376   7.868   5.005 -0.8197 -1.4916  2.2446
  406MOL    H6149471   2.539   7.828   4.805  0.2715 -1.6041 -0.7887
  406MOL    C6249472   2.349   7.893   4.711  0.2374  0.4145 -0.3472
  406MOL    C6349473   2.445   7.961   4.613 -0.8020 -0.6834  0.2468
  406MOL    F6449474   2.530   0.037   4.677 -0.7290 -0.0328  1.2028
  406MOL    H6549475   2.277   7.834   4.654 -0.6848 -0.8885  2.1328
  406MOL    H6649476   2.291   7.970   4.762  1.9086  2.2488 -1.1169
  406MOL    H6749477   2.398   0.010   4.530  1.7902  2.0472  0.4106
  406MOL    C6849478   2.529   7.876   4.514 -0.1510 -0.0576 -0.2247
  406MOL    C6949479   2.462   7.803   4.395  0.8724 -0.5146  0.2148
  406MOL    F7049480   2.429   7.900   4.311  0.3285 -0.1826  0.0344
  406MOL    H7149481   2.622   7.929   4.492  0.3301 -0.1865  1.4454
  406MOL    H7249482   2.566   7.790   4.570 -0.3951 -0.6632 -0.9733
  406MOL    H7349483   2.365   7.759   4.418  0.7886 -0.7673 -0.6224
  406MOL    C7449484   2.559   7.709   4.319 -0.2195  0.6193  0.6799
  406MOL    C7549485   2.684   7.776   4.268 -0.1933  0.5585  0.1798
  406MOL    F7649486   2.776   7.795   4.369  0.6827 -0.3043  0.0406
  406MOL    H7749487   2.570   7.617   4.375  1.0953 -0.9391 -2.0425
  406MOL    H7849488   2.510   7.669   4.230  1.3855 -0.5995  0.3288
  406MOL    H7949489   2.654   7.872   4.225 -1.7302  1.1209  2.3952
  406MOL    C8049490   2.743   7.678   4.166 -0.0776 -0.4664 -0.8485
  406MOL    C8149491   2.792   7.540   4.221 -0.1672 -0.6201  0.1771
  406MOL    F8249492   2.690   7.457   4.235 -0.0807  0.4694  0.2121
  406MOL    H8349493   2.676   7.670   4.080 -3.0995 -2.8283  1.6076
  406MOL    H8449494   2.823   7.735   4.119 -0.9112  0.0086 -1.7267
  406MOL    H8549495   2.825   7.536   4.325 -0.4484 -1.6769  0.2279
  406MOL    C8649496   2.905   7.485   4.133 -0.2070 -0.9402  0.1777
  406MOL    C8749497   3.044   7.514   4.183  0.6132  0.4988 -0.5826
  406MOL    F8849498   3.060   7.433   4.290  0.9260  0.1601  0.0969
  406MOL    H8949499   2.894   7.378   4.119 -0.8048 -0.8914  0.2832
  406MOL    H9049500   2.894   7.520   4.030  0.2051 -1.3446 -0.0099
  406MOL    H9149501   3.045   7.612   4.229 -1.0822  0.2516  0.0094
  406MOL    C9249502   3.162   7.483   4.081 -0.1346  0.1439  0.3163
  406MOL    C9349503   3.299   7.548   4.116  0.2945  0.1267  0.0975
  406MOL    F9449504   3.271   7.671   4.159 -0.5734  0.2669 -0.1234
  406MOL    H9549505   3.176   7.375   4.082  1.6591  0.3629  1.4780
  406MOL    H9649506   3.118   7.520   3.988  1.9818  0.6785 -0.5258
  406MOL    H9749507   3.355   7.550   4.023  0.3603 -1.3160  0.1052
  406MOL    C9849508   3.384   7.471   4.214 -0.0027  0.3570 -0.3944
  406MOL    C9949509   3.532   7.499   4.202 -0.5541  0.4845  0.4442
  406MOL   F10049510   3.585   7.466   4.082 -0.4165 -0.1084  0.8058
  406MOL   H10149511   3.343   7.496   4.312  0.4677 -0.7934  0.1067
  406MOL   H10249512   3.363   7.364   4.202  1.3033  0.1428 -0.8240
  406MOL   H10349513   3.594   7.450   4.277 -0.9844  0.2255  0.6278
  406MOL   C10449514   3.573   7.644   4.221 -0.3816  0.4067  0.4357
  406MOL   C10549515   3.725   7.671   4.213  0.3472 -0.2765  0.5404
  406MOL   F10649516   3.799   7.588   4.290  0.2435 -0.0099  0.0957
  406MOL   H10749517   3.523   7.704   4.145 -0.6902  1.6001  1.5473
  406MOL   H10849518   3.535   7.678   4.317 -0.2451  0.1507  0.5811
  406MOL   H10949519   3.743   7.772   4.250 -1.2308 -0.3153  1.4103
  406MOL   C11049520   3.786   7.668   4.071  0.4128 -0.1171  0.3120
  406MOL   C11149521   3.901   7.773   4.042  0.2682  0.5053  0.4922
  406MOL   F11249522   4.004   7.720   4.114 -0.6771  0.2234  0.0383
  406MOL   H11349523   3.821   7.573   4.030 -0.5143 -0.4675  0.3093
  406MOL   H11449524   3.703   7.686   4.002  0.7522  0.0295 -0.0561
  406MOL   H11549525   3.881   7.874   4.077 -1.1355  0.5391 -0.3480
  406MOL   C11649526   3.953   7.766   3.899  0.6889 -0.0354 -0.3145
  406MOL   C11749527   4.074   7.859   3.882  0.2071  0.0909  0.7544
  406MOL   F11849528   4.098   7.888   3.755  0.7291 -0.2268  0.6227
  406MOL   H11949529   3.972   7.664   3.868  0.2931  0.4627 -2.2530
  406MOL   H12049530   3.865   7.790   3.839  0.1896 -0.1929  0.3465
  406MOL   H12149531   4.163   7.815   3.928  1.8675  4.0541  1.5151
  406MOL   H12249532   4.065   7.957   3.928 -0.3046  0.7661 -0.7570
  407MOL     C149533   7.631   4.158   5.776 -0.4720 -0.1595  0.0313
  407MOL     C249534   7.733   4.150   5.662 -0.1415  0.1349 -0.1703
  407MOL     F349535   7.733   4.031   5.603  0.2225 -0.1622 -0.0048
  407MOL     H449536   7.561   4.075   5.789 -0.8628  0.4039  1.7735
  407MOL     H549537   7.578   4.253   5.783  0.6499  0.6041 -1.7107
  407MOL     H649538   7.831   4.166   5.706  1.0287 -1.4458 -2.1439
  407MOL     H749539   7.686   4.147   5.869  0.8390  0.5437 -0.6570
  407MOL     C849540   7.721   4.254   5.552  0.4019 -0.3138 -0.2631
  407MOL     C949541   7.854   4.325   5.540 -0.4695 -0.0264  0.0288
  407MOL    F1049542   7.940   4.232   5.492 -0.0601 -0.1874  0.4918
  407MOL    H1149543   7.693   4.205   5.458  1.4942 -0.3210 -0.5975
  407MOL    H1249544   7.647   4.328   5.581  2.1880  1.4399 -0.0602
  407MOL    H1349545   7.892   4.348   5.640 -1.9426 -0.1156  0.6177
  407MOL    C1449546   7.851   4.457   5.453  0.5311  0.3725  0.3114
  407MOL    C1549547   7.805   4.426   5.311 -0.3290 -0.1533  0.1732
  407MOL    F1649548   7.675   4.414   5.308  0.3707  0.0247  0.0086
  407MOL    H1749549   7.782   4.535   5.484 -1.0236 -0.8593  0.0093
  407MOL    H1849550   7.947   4.509   5.450  0.7103  0.0626  0.6172
  407MOL    H1949551   7.835   4.323   5.290  0.7284  0.2445 -0.2986
  407MOL    C2049552   7.862   4.523   5.205  0.9358  0.0672  0.1300
  407MOL    C2149553   0.005   4.493   5.152  0.6276  0.6899  0.2012
  407MOL    F2249554   0.018   4.367   5.100 -0.0603 -0.5612  0.0669
  407MOL    H2349555   7.804   4.502   5.115  0.8449  0.1537  0.1690
  407MOL    H2449556   7.851   4.627   5.234 -1.0407  0.0762 -0.6013
  407MOL    H2549557   0.067   4.514   5.238  0.0316 -1.0539  1.0822
  407MOL    C2649558   0.043   4.589   5.031  0.0375 -0.3553 -0.0674
  407MOL    C2749559   0.015   4.741   5.060  0.6560 -0.5568 -0.1931
  407MOL    F2849560   0.072   4.772   5.176  0.1413 -0.2917 -0.5071
  407MOL    H2949561   0.148   4.576   5.004  0.2058  0.9923 -0.0598
  407MOL    H3049562   7.985   4.568   4.943 -0.4738  1.0114 -0.0381
  407MOL    H3149563   7.913   4.759   5.081  0.1767 -1.0547 -2.0780
  407MOL    C3249564   0.075   4.836   4.953 -0.2014 -0.2126 -0.6360
  407MOL    C3349565   0.035   4.985   4.977  0.3134 -0.2977  0.2227
  407MOL    F3449566   0.111   5.051   4.887  0.3050 -0.8675  0.2642
  407MOL    H3549567   0.182   4.825   4.968  0.0325  0.9520 -1.3246
  407MOL    H3649568   0.043   4.815   4.851  1.7821 -3.1385 -0.7032
  407MOL    H3749569   0.067   5.022   5.074  1.8149  0.4877 -0.5340
  407MOL    C3849570   7.889   5.022   4.968  0.3607 -0.3520  0.1803
  407MOL    C3949571   7.868   5.176   4.982 -0.0315  0.3260 -0.1709
  407MOL    F4049572   7.906   5.238   4.864 -0.2422 -0.0643  0.2389
  407MOL    H4149573   7.840   4.972   4.884 -3.1865 -0.0967  1.9748
  407MOL    H4249574   7.839   4.979   5.055 -0.4662  0.4950  0.1304
  407MOL    H4349575   7.926   5.210   5.067 -0.7805  3.6229 -0.9050
  407MOL    C4449576   7.727   5.228   5.015  0.8735 -0.1881 -0.3999
  407MOL    C4549577   7.668   5.177   5.147  0.3394 -0.6763  0.0039
  407MOL    F4649578   7.752   5.220   5.242 -0.8381  0.0873 -1.0224
  407MOL    H4749579   7.726   5.337   5.018  0.9857 -0.2307  1.9978
  407MOL    H4849580   7.658   5.217   4.932 -0.2637 -3.3142  0.8860
  407MOL    H4949581   7.677   5.068   5.148 -1.7841 -0.8814 -0.2364
  407MOL    C5049582   7.525   5.227   5.182  0.3007 -0.5178  0.0810
  407MOL    C5149583   7.421   5.168   5.089  0.3842 -0.0555  0.4729
  407MOL    F5249584   7.435   5.030   5.081 -0.2018 -0.9460  0.0714
  407MOL    H5349585   7.500   5.205   5.285 -0.7960  3.1536  0.6742
  407MOL    H5449586   7.534   5.334   5.165  0.8218 -0.6570 -0.5454
  407MOL    H5549587   7.424   5.206   4.987  0.6535  1.4988  1.0557
  407MOL    C5649588   7.277   5.200   5.136 -0.5695 -0.3102 -0.0735
  407MOL    C5749589   7.250   5.353   5.152 -0.6372 -0.2521  0.9146
  407MOL    F5849590   7.268   5.404   5.030 -0.0466 -0.0059 -0.2206
  407MOL    H5949591   7.204   5.170   5.061 -2.5877  2.4662  0.6791
  407MOL    H6049592   7.257   5.147   5.229  2.5261 -0.1028  0.7545
  407MOL    H6149593   7.316   5.412   5.217  0.9704 -2.5683  1.4404
  407MOL    C6249594   7.104   5.394   5.197 -0.1640 -0.4039  0.6062
  407MOL    C6349595   7.077   5.363   5.340  0.2171 -0.5586 -0.4705
  407MOL    F6449596   7.163   5.421   5.425 -0.0993  0.2352  0.0923
  407MOL    H6549597   7.089   5.499   5.169  0.6349 -0.5641 -0.4513
  407MOL    H6649598   7.023   5.362   5.131  1.2851 -1.9386 -0.4471
  407MOL    H6749599   7.084   5.254   5.350 -3.5063 -0.6586  2.2687
  407MOL    C6849600   6.927   5.385   5.378 -0.3257  0.3019  0.4491
  407MOL    C6949601   6.889   5.311   5.505 -0.1227  0.0933 -0.8099
  407MOL    F7049602   6.959   5.361   5.607  0.8668  0.4117  0.4039
  407MOL    H7149603   6.896   5.489   5.389 -0.0906  0.2806  1.4307
  407MOL    H7249604   6.869   5.345   5.295  1.6445  0.5210 -1.0567
  407MOL    H7349605   6.905   5.205   5.488 -2.5447 -0.0980 -2.2031
  407MOL    C7449606   6.735   5.328   5.543 -0.3778 -0.7637  0.2046
  407MOL    C7549607   6.691   5.458   5.616 -0.3943  0.3367 -0.2483
  407MOL    F7649608   6.700   5.562   5.529  0.0165 -0.3268 -0.1913
  407MOL    H7749609   6.673   5.308   5.455 -1.4885  0.5536  0.6641
  407MOL    H7849610   6.707   5.254   5.618 -3.5379  1.0469  0.9098
  407MOL    H7949611   6.770   5.471   5.691 -2.4994 -1.3892  2.3853
  407MOL    C8049612   6.559   5.449   5.700  0.1108  0.2433  0.3109
  407MOL    C8149613   6.544   5.574   5.789  0.3489  0.3122  0.9080
  407MOL    F8249614   6.570   5.684   5.722 -0.4604  0.2843  0.3446
  407MOL    H8349615   6.479   5.439   5.626 -1.1909 -0.0584  1.7433
  407MOL    H8449616   6.558   5.355   5.755  0.5104 -1.7119 -2.8703
  407MOL    H8549617   6.624   5.576   5.863 -0.6448 -0.8149  2.0425
  407MOL    C8649618   6.415   5.583   5.871 -0.1549 -0.4253  0.4739
  407MOL    C8749619   6.412   5.709   5.964 -0.0615  0.2370  0.6968
  407MOL    F8849620   6.406   5.819   5.881  0.2366  0.1331  0.5461
  407MOL    H8949621   6.333   5.570   5.800 -0.3859  0.5629  0.5602
  407MOL    H9049622   6.412   5.500   5.942  0.2770 -0.3483  0.5818
  407MOL    H9149623   6.498   5.718   6.030  0.5882  2.4367 -0.4078
  407MOL    C9249624   6.282   5.715   6.041 -0.6870  0.1954  0.1486
  407MOL    C9349625   6.295   5.829   6.141  0.3609 -0.0911 -0.1439
  407MOL    F9449626   6.180   5.857   6.189 -0.1083  0.1478  0.6614
  407MOL    H9549627   6.198   5.727   5.973 -0.1929 -1.6088 -0.8017
  407MOL    H9649628   6.275   5.628   6.106 -0.6738  1.0608  1.3266
  407MOL    H9749629   6.317   5.917   6.081  1.9710 -1.3717 -1.4807
  407MOL    C9849630   6.389   5.808   6.258 -0.0246  0.2480 -0.2628
  407MOL    C9949631   6.439   5.931   6.329  0.1072 -0.0568  0.3733
  407MOL   F10049632   6.511   5.996   6.242 -0.2388  0.3115 -0.4854
  407MOL   H10149633   6.351   5.735   6.330  1.0695 -1.1432 -1.0785
  407MOL   H10249634   6.482   5.759   6.230  0.5270  0.4567  1.1320
  407MOL   H10349635   6.506   5.908   6.411  0.5239  2.4654  0.7720
  407MOL   C10449636   6.321   6.030   6.371  0.1850  0.2618 -0.8425
  407MOL   C10549637   6.368   6.150   6.439  0.4456  0.7154 -0.0282
  407MOL   F10649638   6.435   6.132   6.553 -0.1120 -1.0170 -0.1240
  407MOL   H10749639   6.266   6.061   6.283 -1.2066 -0.5920 -0.2885
  407MOL   H10849640   6.249   5.984   6.439  0.1623  1.0211 -0.3507
  407MOL   H10949641   6.289   6.221   6.465  1.8976  2.7900 -1.1706
  407MOL   C11049642   6.460   6.239   6.361  0.4064  0.2555 -0.8381
  407MOL   C11149643   6.478   6.392   6.415  0.6164 -0.2510 -0.5680
  407MOL   F11249644   6.356   6.450   6.408 -0.4791 -0.3124  0.3821
  407MOL   H11349645   6.557   6.190   6.356  1.0995  1.6763 -1.7084
  407MOL   H11449646   6.439   6.254   6.255  0.9428  1.8542 -0.7425
  407MOL   H11549647   6.549   6.439   6.347  3.9387 -1.1117  2.2063
  407MOL   C11649648   6.526   6.419   6.560  0.8138 -0.4908  0.2100
  407MOL   C11749649   6.673   6.403   6.565 -0.0468  0.5668  0.2699
  407MOL   F11849650   6.714   6.450   6.680 -0.0960 -0.0986 -0.2721
  407MOL   H11949651   6.499   6.520   6.592 -2.4748 -0.3276 -2.7692
  407MOL   H12049652   6.486   6.351   6.635  1.1559  2.0258  2.7732
  407MOL   H12149653   6.715   6.468   6.488  1.7903 -0.7587  0.1096
  407MOL   H12249654   6.712   6.302   6.554  0.2518  0.6869  0.2204
  408MOL     C149655   1.965   0.814   1.044  0.9664  0.1724 -0.0108
  408MOL     C249656   1.830   0.856   0.996  0.6799  0.2174 -0.4937
  408MOL     F349657   1.821   0.989   0.990  0.0300 -0.4153  0.0971
  408MOL     H449658   1.955   0.709   1.074  1.5105  0.0229 -0.3521
  408MOL     H549659   1.987   0.871   1.134  3.9400  0.4869 -0.9007
  408MOL     H649660   1.752   0.836   1.070  0.2970  0.6779 -0.7670
  408MOL     H749661   2.047   0.818   0.973  0.4751  0.9800 -0.5490
  408MOL     C849662   1.805   0.838   0.849 -0.2801  0.4155  0.3309
  408MOL     C949663   1.807   0.693   0.796 -0.4348  0.6351  0.1698
  408MOL    F1049664   1.791   0.613   0.899  0.4332 -0.1546  0.0049
  408MOL    H1149665   1.708   0.879   0.822 -1.3945 -2.5656 -0.4513
  408MOL    H1249666   1.871   0.891   0.781 -2.9667  0.7032 -2.1808
  408MOL    H1349667   1.907   0.682   0.756 -0.6997  1.9559 -0.8987
  408MOL    C1449668   1.705   0.655   0.682 -0.3893  0.2442  0.4899
  408MOL    C1549669   1.700   0.763   0.566 -0.0160  0.0648 -0.5984
  408MOL    F1649670   1.814   0.757   0.486 -0.0245 -0.8994 -0.4548
  408MOL    H1749671   1.732   0.560   0.635  2.6720  0.0629  2.4643
  408MOL    H1849672   1.603   0.647   0.721 -0.5890 -1.2610 -0.2859
  408MOL    H1949673   1.702   0.862   0.610 -0.0226  0.1393 -0.7656
  408MOL    C2049674   1.576   0.756   0.473 -0.3724 -0.6028 -0.0025
  408MOL    C2149675   1.447   0.817   0.541  0.4234  0.3813 -0.2505
  408MOL    F2249676   1.442   0.938   0.490  0.5738  0.1519  0.5561
  408MOL    H2349677   1.603   0.803   0.378  0.7661  1.8945  1.4931
  408MOL    H2449678   1.557   0.650   0.460 -1.7261 -0.8111  3.3791
  408MOL    H2549679   1.451   0.819   0.650 -2.3742 -0.7998 -0.0806
  408MOL    C2649680   1.323   0.746   0.490  0.1737  0.4025  0.5220
  408MOL    C2749681   1.287   0.614   0.563  0.3314  0.6033 -0.2016
  408MOL    F2849682   1.262   0.639   0.693  0.2015 -0.1947 -0.5989
  408MOL    H2949683   1.248   0.825   0.498  0.0137  0.1915  1.2061
  408MOL    H3049684   1.326   0.737   0.382 -1.6860 -0.8424  0.5586
  408MOL    H3149685   1.374   0.548   0.562 -0.6939 -0.7518 -0.2981
  408MOL    C3249686   1.165   0.544   0.494 -0.7936  0.0361 -0.2862
  408MOL    C3349687   1.032   0.614   0.505  0.1295  0.1935 -0.4186
  408MOL    F3449688   1.030   0.721   0.428 -0.6517  0.1927  0.0132
  408MOL    H3549689   1.183   0.540   0.387 -1.0927 -1.1135 -0.3019
  408MOL    H3649690   1.156   0.444   0.536 -0.0841  0.8295  1.8439
  408MOL    H3749691   1.014   0.650   0.607  3.5734  0.7814  0.0569
  408MOL    C3849692   0.923   0.521   0.460  0.8609 -0.0548 -0.4208
  408MOL    C3949693   0.783   0.590   0.440  0.4416  1.2332  1.1005
  408MOL    F4049694   0.715   0.503   0.363 -0.1560 -0.8120  0.4690
  408MOL    H4149695   0.952   0.490   0.360  1.2801 -0.8229 -0.0704
  408MOL    H4249696   0.910   0.433   0.523 -1.6734 -0.4802 -1.4934
  408MOL    H4349697   0.792   0.683   0.383 -1.8263  0.2448 -0.9638
  408MOL    C4449698   0.690   0.611   0.566 -0.0858 -0.3194  0.2996
  408MOL    C4549699   0.555   0.668   0.530  0.3009  0.5392 -0.5359
  408MOL    F4649700   0.493   0.663   0.650  0.2224  0.1670 -0.1251
  408MOL    H4749701   0.666   0.509   0.597  0.0916 -1.1661 -2.2494
  408MOL    H4849702   0.738   0.658   0.652 -1.3825  1.4586  0.0781
  408MOL    H4949703   0.506   0.600   0.460  0.3727  0.7920 -0.8310
  408MOL    C5049704   0.563   0.813   0.494 -0.2686  0.5456  0.0615
  408MOL    C5149705   0.432   0.871   0.447 -0.3451  0.9350 -0.0131
  408MOL    F5249706   0.429   1.000   0.459 -0.4160 -0.0406  0.0348
  408MOL    H5349707   0.594   0.879   0.576 -0.3497  0.0193  0.5166
  408MOL    H5449708   0.637   0.832   0.416  0.4886  2.4822  1.2147
  408MOL    H5549709   0.351   0.837   0.512  0.1156 -2.5037 -1.1557
  408MOL    C5649710   0.400   0.847   0.297 -0.3746 -0.3046  0.0217
  408MOL    C5749711   0.261   0.902   0.256 -0.3186 -0.0510  0.1632
  408MOL    F5849712   0.171   0.871   0.352 -0.2590  0.5542  0.4845
  408MOL    H5949713   0.476   0.898   0.238  0.0182 -2.3395 -1.2768
  408MOL    H6049714   0.411   0.742   0.271  0.1229 -0.1638 -0.3391
  408MOL    H6149715   0.237   0.857   0.160 -0.4837  0.0171  0.1727
  408MOL    C6249716   0.262   1.059   0.251 -0.5920 -0.0125  0.0482
  408MOL    C6349717   0.375   1.139   0.177  0.2228  0.2572 -0.4914
  408MOL    F6449718   0.421   1.075   0.066 -0.2932 -0.2367  0.7708
  408MOL    H6549719   0.173   1.092   0.197  0.6855  1.8794 -0.9335
  408MOL    H6649720   0.236   1.097   0.350  3.3371  2.1028  0.3650
  408MOL    H6749721   0.462   1.135   0.243 -1.4532  2.3592  1.9620
  408MOL    C6849722   0.338   1.280   0.142  0.4231 -0.2434  0.2932
  408MOL    C6949723   0.316   1.364   0.272  0.1510 -0.0837  0.3932
  408MOL    F7049724   0.429   1.390   0.332  0.5240 -0.1689 -0.2857
  408MOL    H7149725   0.421   1.313   0.080  0.5367 -0.6748  0.2156
  408MOL    H7249726   0.248   1.286   0.079 -0.2779  0.3265  1.3329
  408MOL    H7349727   0.258   1.309   0.346  0.1574 -1.4175 -0.5762
  408MOL    C7449728   0.241   1.498   0.238  0.2676 -0.2304  0.3614
  408MOL    C7549729   0.089   1.502   0.250  0.2856  0.2240  0.2530
  408MOL    F7649730   0.054   1.437   0.366 -0.2165  0.2714 -0.2591
  408MOL    H7749731   0.285   1.567   0.310 -1.7611  1.3990  0.0927
  408MOL    H7849732   0.272   1.541   0.143  0.8091  1.2476  1.1902
  408MOL    H7949733   0.045   1.446   0.168  0.0924  2.4147 -1.2102
  408MOL    C8049734   0.040   1.649   0.262  0.4825  0.3162  0.2264
  408MOL    C8149735   7.890   1.676   0.228  0.3703 -0.0165  0.2993
  408MOL    F8249736   7.808   1.603   0.312 -0.1311  0.1195 -0.1356
  408MOL    H8349737   0.064   1.702   0.354 -0.7992  2.3981 -0.6066
  408MOL    H8449738   0.089   1.712   0.188 -0.7790  0.6947 -0.2992
  408MOL    H8549739   7.866   1.641   0.127  2.0957  1.8395 -0.7945
  408MOL    C8649740   7.853   1.826   0.236  0.2493 -0.2084  0.2231
  408MOL    C8749741   7.901   1.905   0.113 -0.3336  0.4294 -0.8157
  408MOL    F8849742   7.845   1.848   0.004 -0.1859  0.2146  0.1623
  408MOL    H8949743   7.744   1.831   0.236  0.2560  0.4182 -2.3815
  408MOL    H9049744   7.886   1.876   0.327  0.6980 -1.1984  0.6136
  408MOL    H9149745   0.004   1.884   0.098 -0.0746  1.0363  0.1495
  408MOL    C9249746   7.868   2.056   0.121  0.0027  0.9524 -0.6517
  408MOL    C9349747   7.967   2.140   0.200  0.4470 -0.3849 -0.8216
  408MOL    F9449748   0.084   2.085   0.174  0.1433  0.1256  0.5723
  408MOL    H9549749   7.860   2.101   0.022  0.4798  0.5598 -0.8736
  408MOL    H9649750   7.764   2.055   0.153 -0.0603  0.9752 -0.8600
  408MOL    H9749751   7.954   2.137   0.308 -0.0579 -1.4952 -0.9031
  408MOL    C9849752   7.959   2.289   0.152 -0.2538  0.0312  0.1601
  408MOL    C9949753   0.058   2.373   0.243 -0.2074  0.1609  0.2481
  408MOL   F10049754   0.053   2.493   0.187 -0.5046 -0.4731 -0.0928
  408MOL   H10149755   7.985   2.292   0.046 -0.7528 -2.7910 -0.0863
  408MOL   H10249756   7.855   2.321   0.152  0.0142  0.9425  1.0311
  408MOL   H10349757   0.162   2.342   0.231 -0.6550 -0.8791 -1.0306
  408MOL   C10449758   0.007   2.399   0.390  0.2133  0.1746  0.1376
  408MOL   C10549759   0.096   2.480   0.488 -0.0401  0.2247 -0.3706
  408MOL   F10649760   0.114   2.595   0.436 -0.0564 -0.2517 -0.2494
  408MOL   H10749761   7.918   2.457   0.389  1.2931  1.9077 -1.0827
  408MOL   H10849762   7.985   2.302   0.433  0.1131  0.4078  0.6086
  408MOL   H10949763   0.194   2.435   0.503  0.5152  1.3844 -0.4086
  408MOL   C11049764   0.033   2.527   0.618 -0.2831  0.3063  0.0593
  408MOL   C11149765   7.998   2.422   0.716 -0.3654 -0.0441 -0.5989
  408MOL   F11249766   7.904   2.341   0.676 -0.2501 -0.0562 -0.4118
  408MOL   H11349767   0.098   2.581   0.687 -2.5124 -0.0632  2.5057
  408MOL   H11449768   7.959   2.599   0.591 -0.7534 -0.5661 -0.9881
  408MOL   H11549769   7.948   2.476   0.796 -0.9383 -2.0880  0.4551
  408MOL   C11649770   0.106   2.340   0.779 -0.4810  0.2180  0.4314
  408MOL   C11749771   0.069   2.256   0.903 -0.0138 -0.5144 -0.1387
  408MOL   F11849772   0.167   2.192   0.963 -0.1792 -0.5763 -0.1404
  408MOL   H11949773   0.146   2.272   0.704 -1.7220 -0.3905  0.3166
  408MOL   H12049774   0.191   2.406   0.799  1.1390 -1.7511  0.1791
  408MOL   H12149775   7.992   2.186   0.880 -0.0870 -0.5421  0.1930
  408MOL   H12249776   0.017   2.313   0.980 -1.8065 -1.4426 -0.6355
  409MOL     C149777   4.865   0.630   5.807  0.0547 -0.7029  1.1572
  409MOL     C249778   4.906   0.614   5.659 -0.1328 -0.3108  0.4523
  409MOL     F349779   4.981   0.507   5.661  0.0610  0.5002  0.1136
  409MOL     H449780   4.829   0.732   5.824  2.0865  0.3925 -0.8471
  409MOL     H549781   4.947   0.632   5.879 -0.0621  0.2278  1.2759
  409MOL     H649782   4.969   0.699   5.629  1.0344 -1.1586  0.4558
  409MOL     H749783   4.790   0.554   5.827 -2.1980  1.8400  2.8303
  409MOL     C849784   4.796   0.583   5.562 -0.4253  0.2856  0.4401
  409MOL     C949785   4.707   0.700   5.526  0.0605 -0.2069  0.3260
  409MOL    F1049786   4.774   0.789   5.455 -0.6278  0.6186 -0.3292
  409MOL    H1149787   4.839   0.544   5.469 -0.7294  3.2758 -1.0220
  409MOL    H1249788   4.736   0.499   5.598  0.5576  0.0282  1.4874
  409MOL    H1349789   4.668   0.744   5.618  0.0845  0.0121  0.2303
  409MOL    C1449790   4.583   0.655   5.443  0.3233 -0.2584 -0.7965
  409MOL    C1549791   4.478   0.768   5.423  0.0261  0.3064 -0.4623
  409MOL    F1649792   4.394   0.707   5.337  0.0131  0.2779 -0.0317
  409MOL    H1749793   4.597   0.594   5.353 -0.2991 -1.6411  0.0181
  409MOL    H1849794   4.523   0.582   5.498 -0.1327 -1.8651 -3.3432
  409MOL    H1949795   4.525   0.853   5.373 -2.5633  2.2187  0.2290
  409MOL    C2049796   4.399   0.814   5.545 -0.0460 -0.1700 -0.7979
  409MOL    C2149797   4.316   0.938   5.509 -0.3110  0.4238 -0.7281
  409MOL    F2249798   4.240   0.911   5.396  0.6952 -0.0476 -0.1127
  409MOL    H2349799   4.341   0.735   5.591  1.7721 -0.5455  0.8992
  409MOL    H2449800   4.467   0.852   5.622  1.1086  1.1399 -2.4283
  409MOL    H2549801   4.377   1.025   5.488  0.6173  0.0182  0.2150
  409MOL    C2649802   4.228   0.988   5.620 -0.7468  0.0350 -0.2544
  409MOL    C2749803   4.139   1.104   5.584 -0.2137 -0.3048  0.6959
  409MOL    F2849804   4.206   1.175   5.492 -0.0073  0.8610 -0.3719
  409MOL    H2949805   4.174   0.909   5.672 -2.2948  1.1996 -0.0533
  409MOL    H3049806   4.306   1.019   5.690  1.5514 -1.4934 -2.0719
  409MOL    H3149807   4.121   1.171   5.669 -1.9256  1.0979 -0.7209
  409MOL    C3249808   3.995   1.059   5.521  0.3006 -0.4950  0.5273
  409MOL    C3349809   3.903   1.012   5.636 -0.5036 -0.5140 -0.1834
  409MOL    F3449810   3.894   1.104   5.727  0.3330  0.1195  0.0990
  409MOL    H3549811   3.959   1.149   5.471  0.0591 -0.5182  0.6627
  409MOL    H3649812   3.998   0.978   5.448  1.5662 -0.5172  0.5909
  409MOL    H3749813   3.955   0.936   5.694  0.0109 -0.5423 -0.6734
  409MOL    C3849814   3.757   0.967   5.581 -1.0068  0.1879 -0.4409
  409MOL    C3949815   3.654   0.917   5.688  1.1791 -0.4412  0.0648
  409MOL    F4049816   3.696   0.807   5.754  0.0750 -0.0349 -0.4711
  409MOL    H4149817   3.709   1.040   5.516 -2.2138 -2.3296 -2.4781
  409MOL    H4249818   3.788   0.885   5.517  0.4585 -0.3805  0.9697
  409MOL    H4349819   3.567   0.881   5.633  0.2105 -2.4359  2.8460
  409MOL    C4449820   3.615   1.016   5.799  0.5434 -0.0565  0.3988
  409MOL    C4549821   3.502   0.972   5.893  0.0410 -0.4697 -0.1577
  409MOL    F4649822   3.492   1.052   6.004 -0.8055 -0.6503 -0.3102
  409MOL    H4749823   3.702   1.031   5.862  1.3233 -0.7301 -0.4922
  409MOL    H4849824   3.599   1.115   5.756 -0.0246  0.7878  2.5380
  409MOL    H4949825   3.515   0.873   5.937 -2.6715 -0.6553  0.2858
  409MOL    C5049826   3.363   0.972   5.814  0.1820 -0.3870  0.8353
  409MOL    C5149827   3.262   0.925   5.910  0.0636  0.1362  0.4290
  409MOL    F5249828   3.144   0.945   5.850 -0.1164  0.0976  0.3892
  409MOL    H5349829   3.347   1.078   5.795  0.8912 -0.4024  0.0810
  409MOL    H5449830   3.369   0.914   5.721  2.0091  0.9074  0.1182
  409MOL    H5549831   3.244   0.988   5.997 -2.0249  0.3200 -0.1068
  409MOL    C5649832   3.263   0.782   5.962  0.2354  0.7343  0.4077
  409MOL    C5749833   3.216   0.674   5.855  0.2198 -0.8336 -0.2277
  409MOL    F5849834   3.285   0.682   5.743 -0.3618  0.2663 -0.1130
  409MOL    H5949835   3.355   0.758   6.016  0.1419 -0.3814  0.0684
  409MOL    H6049836   3.186   0.762   6.037  1.3959  3.0176  2.2998
  409MOL    H6149837   3.117   0.705   5.823  0.7229  1.9320  0.7990
  409MOL    C6249838   3.203   0.527   5.903 -0.3157 -0.0984 -0.2862
  409MOL    C6349839   3.136   0.500   6.038 -0.6877 -0.0472 -0.0895
  409MOL    F6449840   3.018   0.565   6.039 -0.5682  0.1498 -0.2657
  409MOL    H6549841   3.147   0.468   5.831 -0.8772  0.4084 -0.2643
  409MOL    H6649842   3.307   0.495   5.912  0.3163  1.7009 -1.0940
  409MOL    H6749843   3.190   0.546   6.121 -1.2470  1.1854 -0.4071
  409MOL    C6849844   3.116   0.344   6.066  0.4581 -0.1023  0.6744
  409MOL    C6949845   3.066   0.305   6.211  0.4524  0.0317 -0.0737
  409MOL    F7049846   3.154   0.331   6.303 -0.2608  0.1469 -0.1484
  409MOL    H7149847   3.029   0.315   6.007 -0.1813  1.7650  0.6815
  409MOL    H7249848   3.209   0.293   6.037  0.7762  0.4532  0.7090
  409MOL    H7349849   3.060   0.196   6.213  1.9933 -0.0764 -0.9275
  409MOL    C7449850   2.940   0.368   6.254 -0.1457 -0.0471  0.2240
  409MOL    C7549851   2.884   0.327   6.390  0.0518  0.1941 -0.4762
  409MOL    F7649852   2.793   0.421   6.412 -0.0035 -0.1679 -0.0815
  409MOL    H7749853   2.957   0.476   6.247 -1.9719  0.2864  0.6885
  409MOL    H7849854   2.873   0.341   6.173  0.3882  1.7048 -0.8422
  409MOL    H7949855   2.961   0.333   6.467 -1.2663  0.1282  0.8511
  409MOL    C8049856   2.812   0.194   6.385  0.5993 -0.1250  0.4897
  409MOL    C8149857   2.667   0.207   6.312  0.3505 -0.3644  0.2637
  409MOL    F8249858   2.677   0.231   6.181 -0.1249  0.0372  0.5241
  409MOL    H8349859   2.879   0.119   6.342  0.5730  0.5519 -0.7423
  409MOL    H8449860   2.806   0.169   6.491  3.2688  5.6255  2.1603
  409MOL    H8549861   2.606   0.286   6.356  0.0794 -1.1739  1.3420
  409MOL    C8649862   2.589   0.071   6.334  0.2643  0.0522 -0.3799
  409MOL    C8749863   2.661   7.939   6.306 -1.0080  0.1517 -0.5939
  409MOL    F8849864   2.612   7.847   6.387  0.0397  0.1343 -0.8318
  409MOL    H8949865   2.539   0.075   6.431 -0.1958  0.6438 -0.6336
  409MOL    H9049866   2.511   0.074   6.258 -1.9321 -0.2612  1.7738
  409MOL    H9149867   2.766   7.941   6.335 -0.4887 -0.7135 -2.3709
  409MOL    C9249868   2.652   7.886   6.167  0.3056 -0.3876 -0.0677
  409MOL    C9349869   2.726   7.761   6.154  0.1536  0.4975 -0.4563
  409MOL    F9449870   2.683   7.703   6.036  0.0658 -0.2017 -0.3121
  409MOL    H9549871   2.547   7.865   6.147  0.5944 -1.6779 -0.2287
  409MOL    H9649872   2.681   7.961   6.092  2.5852 -1.5902 -0.4472
  409MOL    H9749873   2.694   7.692   6.231 -0.5612  2.1106  0.7064
  409MOL    C9849874   2.879   7.756   6.153  0.5560 -0.5220 -0.2735
  409MOL    C9949875   2.934   7.868   6.059  0.7371  0.2394  0.6358
  409MOL   F10049876   2.919   7.991   6.103  0.1593 -0.6342  0.1009
  409MOL   H10149877   2.914   7.759   6.256 -1.9092 -1.4163  0.6189
  409MOL   H10249878   2.911   7.660   6.114 -1.1855 -1.7361  1.1995
  409MOL   H10349879   2.876   7.872   5.966 -1.5205  2.6518  2.1023
  409MOL   C10449880   3.081   7.844   6.034  0.3962 -0.2701  0.4465
  409MOL   C10549881   3.153   7.940   5.931 -0.1563 -0.5084  0.3267
  409MOL   F10649882   3.284   7.889   5.930  0.7041 -0.4721 -0.2127
  409MOL   H10749883   3.128   7.848   6.133  1.5508  0.2218 -0.1069
  409MOL   H10849884   3.100   7.748   5.986  0.5758  0.0482 -0.1254
  409MOL   H10949885   3.157   0.042   5.961  2.1536 -0.0281 -1.4927
  409MOL   C11049886   3.090   7.926   5.788 -0.4053 -0.8345 -0.0301
  409MOL   C11149887   3.152   0.008   5.670 -0.1214  0.2375 -0.3213
  409MOL   F11249888   3.116   7.960   5.551 -0.3593 -0.3834  0.0280
  409MOL   H11349889   3.081   7.822   5.757  2.5893 -0.8487 -1.0402
  409MOL   H11449890   2.986   7.958   5.791  0.5527  2.2184  1.7019
  409MOL   H11549891   3.261   0.002   5.664 -0.3061 -0.7097 -3.0759
  409MOL   C11649892   3.137   0.164   5.667 -0.5910  0.6864  0.3929
  409MOL   C11749893   3.223   0.232   5.561  0.2966  0.5522  0.2758
  409MOL   F11849894   3.223   0.361   5.582  0.0691  0.7663  0.2568
  409MOL   H11949895   3.033   0.196   5.663 -1.1525 -1.1721 -0.3822
  409MOL   H12049896   3.179   0.211   5.756  0.2765 -1.0818  0.9453
  409MOL   H12149897   3.168   0.231   5.466  0.1456 -1.6563  0.3507
  409MOL   H12249898   3.320   0.184   5.550 -0.6431 -1.1189 -1.0992
   8.00307   8.00307   8.00307
