;
; Gromacs include topology (itp) file.
; For Molecular Group XYZ
; Force field scheme: opls2005
; Produced from DL_FIELD v4.11
;


[ moleculetype ]
; name    nrexcl
XYZ    3

[ atoms ]
; nr   type   resnr   residu    atom    cgnr    charge    mass
    1       OAL    1  MOL      O1     1  -0.6830000   15.9994
    2        CT    1  MOL      C2     2   0.1450000   12.0115
    3        CT    1  MOL      C3     3  -0.1200000   12.0115
    4        CT    1  MOL      C4     4  -0.1200000   12.0115
    5        CT    1  MOL      C5     5  -0.1200000   12.0115
    6        CT    1  MOL      C6     6  -0.1200000   12.0115
    7        CT    1  MOL      C7     7  -0.1200000   12.0115
    8        CT    1  MOL      C8     8  -0.1200000   12.0115
    9        CT    1  MOL      C9     9  -0.1200000   12.0115
   10        CT    1  MOL     C10    10  -0.1200000   12.0115
   11        CT    1  MOL     C11    11   0.1900000   12.0115
   12       OES    1  MOL     O12    12  -0.3300000   15.9994
   13       CO4    1  MOL     C13    13   0.6250000   12.0115
   14         O    1  MOL     O14    14  -0.4300000   15.9994
   15        CA    1  MOL     C15    15  -0.1150000   12.0115
   16        CA    1  MOL     C16    16  -0.1150000   12.0115
   17        CA    1  MOL     C17    17  -0.1150000   12.0115
   18        CA    1  MOL     C18    18  -0.1150000   12.0115
   19       CO4    1  MOL     C19    19   0.6250000   12.0115
   20         O    1  MOL     O20    20  -0.4300000   15.9994
   21       OES    1  MOL     O21    21  -0.0800000   15.9994
   22        CA    1  MOL     C22    22  -0.1150000   12.0115
   23        CA    1  MOL     C23    23  -0.1150000   12.0115
   24        HC    1  MOL     H24    24   0.0600000    1.0080
   25        HC    1  MOL     H25    25   0.0600000    1.0080
   26        HC    1  MOL     H26    26   0.0600000    1.0080
   27        HC    1  MOL     H27    27   0.0600000    1.0080
   28        HC    1  MOL     H28    28   0.0600000    1.0080
   29        HC    1  MOL     H29    29   0.0600000    1.0080
   30        HC    1  MOL     H30    30   0.0600000    1.0080
   31        HC    1  MOL     H31    31   0.0600000    1.0080
   32        HC    1  MOL     H32    32   0.0600000    1.0080
   33        HC    1  MOL     H33    33   0.0600000    1.0080
   34        HC    1  MOL     H34    34   0.0600000    1.0080
   35        HC    1  MOL     H35    35   0.0600000    1.0080
   36        HC    1  MOL     H36    36   0.0600000    1.0080
   37        HC    1  MOL     H37    37   0.0600000    1.0080
   38        HC    1  MOL     H38    38   0.0600000    1.0080
   39        HC    1  MOL     H39    39   0.0600000    1.0080
   40        HC    1  MOL     H40    40   0.0600000    1.0080
   41        HC    1  MOL     H41    41   0.0600000    1.0080
   42       HAE    1  MOL     H42    42   0.0300000    1.0080
   43       HAE    1  MOL     H43    43   0.0300000    1.0080
   44        HA    1  MOL     H44    44   0.1150000    1.0080
   45        HA    1  MOL     H45    45   0.1150000    1.0080
   46        HA    1  MOL     H46    46   0.1150000    1.0080
   47        HA    1  MOL     H47    47   0.1150000    1.0080
   48        HO    1  MOL     H48    48   0.4180000    1.0080
   49        OS    1  MOL     O49    49  -0.2000000   15.9994
   50        CT    1  MOL     C50    50   0.0800000   12.0115
   51        CT    1  MOL     C51    51  -0.1200000   12.0115
   52        CT    1  MOL     C52    52  -0.1200000   12.0115
   53        CT    1  MOL     C53    53  -0.1200000   12.0115
   54        CT    1  MOL     C54    54  -0.1200000   12.0115
   55        CT    1  MOL     C55    55  -0.1200000   12.0115
   56        CT    1  MOL     C56    56  -0.1200000   12.0115
   57        CT    1  MOL     C57    57  -0.1200000   12.0115
   58        CT    1  MOL     C58    58  -0.1200000   12.0115
   59        CT    1  MOL     C59    59   0.1900000   12.0115
   60       OES    1  MOL     O60    60  -0.3300000   15.9994
   61       CO4    1  MOL     C61    61   0.6250000   12.0115
   62         O    1  MOL     O62    62  -0.4300000   15.9994
   63        CA    1  MOL     C63    63  -0.1150000   12.0115
   64        CA    1  MOL     C64    64  -0.1150000   12.0115
   65        CA    1  MOL     C65    65  -0.1150000   12.0115
   66        CA    1  MOL     C66    66  -0.1150000   12.0115
   67       CO4    1  MOL     C67    67   0.6250000   12.0115
   68         O    1  MOL     O68    68  -0.4300000   15.9994
   69       OES    1  MOL     O69    69  -0.0800000   15.9994
   70        CA    1  MOL     C70    70  -0.1150000   12.0115
   71        CA    1  MOL     C71    71  -0.1150000   12.0115
   72        HC    1  MOL     H72    72   0.0600000    1.0080
   73        HC    1  MOL     H73    73   0.0600000    1.0080
   74        HC    1  MOL     H74    74   0.0600000    1.0080
   75        HC    1  MOL     H75    75   0.0600000    1.0080
   76        HC    1  MOL     H76    76   0.0600000    1.0080
   77        HC    1  MOL     H77    77   0.0600000    1.0080
   78        HC    1  MOL     H78    78   0.0600000    1.0080
   79        HC    1  MOL     H79    79   0.0600000    1.0080
   80        HC    1  MOL     H80    80   0.0600000    1.0080
   81        HC    1  MOL     H81    81   0.0600000    1.0080
   82        HC    1  MOL     H82    82   0.0600000    1.0080
   83        HC    1  MOL     H83    83   0.0600000    1.0080
   84        HC    1  MOL     H84    84   0.0600000    1.0080
   85        HC    1  MOL     H85    85   0.0600000    1.0080
   86        HC    1  MOL     H86    86   0.0600000    1.0080
   87        HC    1  MOL     H87    87   0.0600000    1.0080
   88        HC    1  MOL     H88    88   0.0600000    1.0080
   89        HC    1  MOL     H89    89   0.0600000    1.0080
   90       HAE    1  MOL     H90    90   0.0300000    1.0080
   91       HAE    1  MOL     H91    91   0.0300000    1.0080
   92        HA    1  MOL     H92    92   0.1150000    1.0080
   93        HA    1  MOL     H93    93   0.1150000    1.0080
   94        HA    1  MOL     H94    94   0.1150000    1.0080
   95        HA    1  MOL     H95    95   0.1150000    1.0080
   96        OS    1  MOL     O96    96  -0.2000000   15.9994
   97        CT    1  MOL     C97    97   0.0800000   12.0115
   98        CT    1  MOL     C98    98  -0.1200000   12.0115
   99        CT    1  MOL     C99    99  -0.1200000   12.0115
  100        CT    1  MOL    C100   100  -0.1200000   12.0115
  101        CT    1  MOL    C101   101  -0.1200000   12.0115
  102        CT    1  MOL    C102   102  -0.1200000   12.0115
  103        CT    1  MOL    C103   103  -0.1200000   12.0115
  104        CT    1  MOL    C104   104  -0.1200000   12.0115
  105        CT    1  MOL    C105   105  -0.1200000   12.0115
  106        CT    1  MOL    C106   106   0.1900000   12.0115
  107       OES    1  MOL    O107   107  -0.3300000   15.9994
  108       CO4    1  MOL    C108   108   0.6250000   12.0115
  109         O    1  MOL    O109   109  -0.4300000   15.9994
  110        CA    1  MOL    C110   110  -0.1150000   12.0115
  111        CA    1  MOL    C111   111  -0.1150000   12.0115
  112        CA    1  MOL    C112   112  -0.1150000   12.0115
  113        CA    1  MOL    C113   113  -0.1150000   12.0115
  114       CO4    1  MOL    C114   114   0.6250000   12.0115
  115         O    1  MOL    O115   115  -0.4300000   15.9994
  116       OES    1  MOL    O116   116  -0.0800000   15.9994
  117        CA    1  MOL    C117   117  -0.1150000   12.0115
  118        CA    1  MOL    C118   118  -0.1150000   12.0115
  119        HC    1  MOL    H119   119   0.0600000    1.0080
  120        HC    1  MOL    H120   120   0.0600000    1.0080
  121        HC    1  MOL    H121   121   0.0600000    1.0080
  122        HC    1  MOL    H122   122   0.0600000    1.0080
  123        HC    1  MOL    H123   123   0.0600000    1.0080
  124        HC    1  MOL    H124   124   0.0600000    1.0080
  125        HC    1  MOL    H125   125   0.0600000    1.0080
  126        HC    1  MOL    H126   126   0.0600000    1.0080
  127        HC    1  MOL    H127   127   0.0600000    1.0080
  128        HC    1  MOL    H128   128   0.0600000    1.0080
  129        HC    1  MOL    H129   129   0.0600000    1.0080
  130        HC    1  MOL    H130   130   0.0600000    1.0080
  131        HC    1  MOL    H131   131   0.0600000    1.0080
  132        HC    1  MOL    H132   132   0.0600000    1.0080
  133        HC    1  MOL    H133   133   0.0600000    1.0080
  134        HC    1  MOL    H134   134   0.0600000    1.0080
  135        HC    1  MOL    H135   135   0.0600000    1.0080
  136        HC    1  MOL    H136   136   0.0600000    1.0080
  137       HAE    1  MOL    H137   137   0.0300000    1.0080
  138       HAE    1  MOL    H138   138   0.0300000    1.0080
  139        HA    1  MOL    H139   139   0.1150000    1.0080
  140        HA    1  MOL    H140   140   0.1150000    1.0080
  141        HA    1  MOL    H141   141   0.1150000    1.0080
  142        HA    1  MOL    H142   142   0.1150000    1.0080
  143        OS    1  MOL    O143   143  -0.2000000   15.9994
  144        CT    1  MOL    C144   144   0.0800000   12.0115
  145        CT    1  MOL    C145   145  -0.1200000   12.0115
  146        CT    1  MOL    C146   146  -0.1200000   12.0115
  147        CT    1  MOL    C147   147  -0.1200000   12.0115
  148        CT    1  MOL    C148   148  -0.1200000   12.0115
  149        CT    1  MOL    C149   149  -0.1200000   12.0115
  150        CT    1  MOL    C150   150  -0.1200000   12.0115
  151        CT    1  MOL    C151   151  -0.1200000   12.0115
  152        CT    1  MOL    C152   152  -0.1200000   12.0115
  153        CT    1  MOL    C153   153   0.1900000   12.0115
  154       OES    1  MOL    O154   154  -0.3300000   15.9994
  155       CO4    1  MOL    C155   155   0.6250000   12.0115
  156         O    1  MOL    O156   156  -0.4300000   15.9994
  157        CA    1  MOL    C157   157  -0.1150000   12.0115
  158        CA    1  MOL    C158   158  -0.1150000   12.0115
  159        CA    1  MOL    C159   159  -0.1150000   12.0115
  160        CA    1  MOL    C160   160  -0.1150000   12.0115
  161       CO4    1  MOL    C161   161   0.6250000   12.0115
  162         O    1  MOL    O162   162  -0.4300000   15.9994
  163       OES    1  MOL    O163   163  -0.0800000   15.9994
  164        CA    1  MOL    C164   164  -0.1150000   12.0115
  165        CA    1  MOL    C165   165  -0.1150000   12.0115
  166        HC    1  MOL    H166   166   0.0600000    1.0080
  167        HC    1  MOL    H167   167   0.0600000    1.0080
  168        HC    1  MOL    H168   168   0.0600000    1.0080
  169        HC    1  MOL    H169   169   0.0600000    1.0080
  170        HC    1  MOL    H170   170   0.0600000    1.0080
  171        HC    1  MOL    H171   171   0.0600000    1.0080
  172        HC    1  MOL    H172   172   0.0600000    1.0080
  173        HC    1  MOL    H173   173   0.0600000    1.0080
  174        HC    1  MOL    H174   174   0.0600000    1.0080
  175        HC    1  MOL    H175   175   0.0600000    1.0080
  176        HC    1  MOL    H176   176   0.0600000    1.0080
  177        HC    1  MOL    H177   177   0.0600000    1.0080
  178        HC    1  MOL    H178   178   0.0600000    1.0080
  179        HC    1  MOL    H179   179   0.0600000    1.0080
  180        HC    1  MOL    H180   180   0.0600000    1.0080
  181        HC    1  MOL    H181   181   0.0600000    1.0080
  182        HC    1  MOL    H182   182   0.0600000    1.0080
  183        HC    1  MOL    H183   183   0.0600000    1.0080
  184       HAE    1  MOL    H184   184   0.0300000    1.0080
  185       HAE    1  MOL    H185   185   0.0300000    1.0080
  186        HA    1  MOL    H186   186   0.1150000    1.0080
  187        HA    1  MOL    H187   187   0.1150000    1.0080
  188        HA    1  MOL    H188   188   0.1150000    1.0080
  189        HA    1  MOL    H189   189   0.1150000    1.0080
  190        OS    1  MOL    O190   190  -0.2000000   15.9994
  191        CT    1  MOL    C191   191   0.0800000   12.0115
  192        CT    1  MOL    C192   192  -0.1200000   12.0115
  193        CT    1  MOL    C193   193  -0.1200000   12.0115
  194        CT    1  MOL    C194   194  -0.1200000   12.0115
  195        CT    1  MOL    C195   195  -0.1200000   12.0115
  196        CT    1  MOL    C196   196  -0.1200000   12.0115
  197        CT    1  MOL    C197   197  -0.1200000   12.0115
  198        CT    1  MOL    C198   198  -0.1200000   12.0115
  199        CT    1  MOL    C199   199  -0.1200000   12.0115
  200        CT    1  MOL    C200   200   0.1900000   12.0115
  201       OES    1  MOL    O201   201  -0.3300000   15.9994
  202       CO4    1  MOL    C202   202   0.6250000   12.0115
  203         O    1  MOL    O203   203  -0.4300000   15.9994
  204        CA    1  MOL    C204   204  -0.1150000   12.0115
  205        CA    1  MOL    C205   205  -0.1150000   12.0115
  206        CA    1  MOL    C206   206  -0.1150000   12.0115
  207        CA    1  MOL    C207   207  -0.1150000   12.0115
  208       CO4    1  MOL    C208   208   0.6250000   12.0115
  209         O    1  MOL    O209   209  -0.4300000   15.9994
  210       OES    1  MOL    O210   210  -0.0800000   15.9994
  211        CA    1  MOL    C211   211  -0.1150000   12.0115
  212        CA    1  MOL    C212   212  -0.1150000   12.0115
  213        HC    1  MOL    H213   213   0.0600000    1.0080
  214        HC    1  MOL    H214   214   0.0600000    1.0080
  215        HC    1  MOL    H215   215   0.0600000    1.0080
  216        HC    1  MOL    H216   216   0.0600000    1.0080
  217        HC    1  MOL    H217   217   0.0600000    1.0080
  218        HC    1  MOL    H218   218   0.0600000    1.0080
  219        HC    1  MOL    H219   219   0.0600000    1.0080
  220        HC    1  MOL    H220   220   0.0600000    1.0080
  221        HC    1  MOL    H221   221   0.0600000    1.0080
  222        HC    1  MOL    H222   222   0.0600000    1.0080
  223        HC    1  MOL    H223   223   0.0600000    1.0080
  224        HC    1  MOL    H224   224   0.0600000    1.0080
  225        HC    1  MOL    H225   225   0.0600000    1.0080
  226        HC    1  MOL    H226   226   0.0600000    1.0080
  227        HC    1  MOL    H227   227   0.0600000    1.0080
  228        HC    1  MOL    H228   228   0.0600000    1.0080
  229        HC    1  MOL    H229   229   0.0600000    1.0080
  230        HC    1  MOL    H230   230   0.0600000    1.0080
  231       HAE    1  MOL    H231   231   0.0300000    1.0080
  232       HAE    1  MOL    H232   232   0.0300000    1.0080
  233        HA    1  MOL    H233   233   0.1150000    1.0080
  234        HA    1  MOL    H234   234   0.1150000    1.0080
  235        HA    1  MOL    H235   235   0.1150000    1.0080
  236        HA    1  MOL    H236   236   0.1150000    1.0080
  237        OS    1  MOL    O237   237  -0.2000000   15.9994
  238        CT    1  MOL    C238   238   0.0800000   12.0115
  239        CT    1  MOL    C239   239  -0.1200000   12.0115
  240        CT    1  MOL    C240   240  -0.1200000   12.0115
  241        CT    1  MOL    C241   241  -0.1200000   12.0115
  242        CT    1  MOL    C242   242  -0.1200000   12.0115
  243        CT    1  MOL    C243   243  -0.1200000   12.0115
  244        CT    1  MOL    C244   244  -0.1200000   12.0115
  245        CT    1  MOL    C245   245  -0.1200000   12.0115
  246        CT    1  MOL    C246   246  -0.1200000   12.0115
  247        CT    1  MOL    C247   247   0.1900000   12.0115
  248       OES    1  MOL    O248   248  -0.3300000   15.9994
  249       CO4    1  MOL    C249   249   0.6250000   12.0115
  250         O    1  MOL    O250   250  -0.4300000   15.9994
  251        CA    1  MOL    C251   251  -0.1150000   12.0115
  252        CA    1  MOL    C252   252  -0.1150000   12.0115
  253        CA    1  MOL    C253   253  -0.1150000   12.0115
  254        CA    1  MOL    C254   254  -0.1150000   12.0115
  255       CO4    1  MOL    C255   255   0.6250000   12.0115
  256         O    1  MOL    O256   256  -0.4300000   15.9994
  257       OES    1  MOL    O257   257  -0.0800000   15.9994
  258        CA    1  MOL    C258   258  -0.1150000   12.0115
  259        CA    1  MOL    C259   259  -0.1150000   12.0115
  260        HC    1  MOL    H260   260   0.0600000    1.0080
  261        HC    1  MOL    H261   261   0.0600000    1.0080
  262        HC    1  MOL    H262   262   0.0600000    1.0080
  263        HC    1  MOL    H263   263   0.0600000    1.0080
  264        HC    1  MOL    H264   264   0.0600000    1.0080
  265        HC    1  MOL    H265   265   0.0600000    1.0080
  266        HC    1  MOL    H266   266   0.0600000    1.0080
  267        HC    1  MOL    H267   267   0.0600000    1.0080
  268        HC    1  MOL    H268   268   0.0600000    1.0080
  269        HC    1  MOL    H269   269   0.0600000    1.0080
  270        HC    1  MOL    H270   270   0.0600000    1.0080
  271        HC    1  MOL    H271   271   0.0600000    1.0080
  272        HC    1  MOL    H272   272   0.0600000    1.0080
  273        HC    1  MOL    H273   273   0.0600000    1.0080
  274        HC    1  MOL    H274   274   0.0600000    1.0080
  275        HC    1  MOL    H275   275   0.0600000    1.0080
  276        HC    1  MOL    H276   276   0.0600000    1.0080
  277        HC    1  MOL    H277   277   0.0600000    1.0080
  278       HAE    1  MOL    H278   278   0.0300000    1.0080
  279       HAE    1  MOL    H279   279   0.0300000    1.0080
  280        HA    1  MOL    H280   280   0.1150000    1.0080
  281        HA    1  MOL    H281   281   0.1150000    1.0080
  282        HA    1  MOL    H282   282   0.1150000    1.0080
  283        HA    1  MOL    H283   283   0.1150000    1.0080
  284        OS    1  MOL    O284   284  -0.2000000   15.9994
  285        CT    1  MOL    C285   285   0.0800000   12.0115
  286        CT    1  MOL    C286   286  -0.1200000   12.0115
  287        CT    1  MOL    C287   287  -0.1200000   12.0115
  288        CT    1  MOL    C288   288  -0.1200000   12.0115
  289        CT    1  MOL    C289   289  -0.1200000   12.0115
  290        CT    1  MOL    C290   290  -0.1200000   12.0115
  291        CT    1  MOL    C291   291  -0.1200000   12.0115
  292        CT    1  MOL    C292   292  -0.1200000   12.0115
  293        CT    1  MOL    C293   293  -0.1200000   12.0115
  294        CT    1  MOL    C294   294   0.1900000   12.0115
  295       OES    1  MOL    O295   295  -0.3300000   15.9994
  296       CO4    1  MOL    C296   296   0.6250000   12.0115
  297         O    1  MOL    O297   297  -0.4300000   15.9994
  298        CA    1  MOL    C298   298  -0.1150000   12.0115
  299        CA    1  MOL    C299   299  -0.1150000   12.0115
  300        CA    1  MOL    C300   300  -0.1150000   12.0115
  301        CA    1  MOL    C301   301  -0.1150000   12.0115
  302       CO4    1  MOL    C302   302   0.6250000   12.0115
  303         O    1  MOL    O303   303  -0.4300000   15.9994
  304       OES    1  MOL    O304   304  -0.0800000   15.9994
  305        CA    1  MOL    C305   305  -0.1150000   12.0115
  306        CA    1  MOL    C306   306  -0.1150000   12.0115
  307        HC    1  MOL    H307   307   0.0600000    1.0080
  308        HC    1  MOL    H308   308   0.0600000    1.0080
  309        HC    1  MOL    H309   309   0.0600000    1.0080
  310        HC    1  MOL    H310   310   0.0600000    1.0080
  311        HC    1  MOL    H311   311   0.0600000    1.0080
  312        HC    1  MOL    H312   312   0.0600000    1.0080
  313        HC    1  MOL    H313   313   0.0600000    1.0080
  314        HC    1  MOL    H314   314   0.0600000    1.0080
  315        HC    1  MOL    H315   315   0.0600000    1.0080
  316        HC    1  MOL    H316   316   0.0600000    1.0080
  317        HC    1  MOL    H317   317   0.0600000    1.0080
  318        HC    1  MOL    H318   318   0.0600000    1.0080
  319        HC    1  MOL    H319   319   0.0600000    1.0080
  320        HC    1  MOL    H320   320   0.0600000    1.0080
  321        HC    1  MOL    H321   321   0.0600000    1.0080
  322        HC    1  MOL    H322   322   0.0600000    1.0080
  323        HC    1  MOL    H323   323   0.0600000    1.0080
  324        HC    1  MOL    H324   324   0.0600000    1.0080
  325       HAE    1  MOL    H325   325   0.0300000    1.0080
  326       HAE    1  MOL    H326   326   0.0300000    1.0080
  327        HA    1  MOL    H327   327   0.1150000    1.0080
  328        HA    1  MOL    H328   328   0.1150000    1.0080
  329        HA    1  MOL    H329   329   0.1150000    1.0080
  330        HA    1  MOL    H330   330   0.1150000    1.0080
  331        OS    1  MOL    O331   331  -0.2000000   15.9994
  332        CT    1  MOL    C332   332   0.0800000   12.0115
  333        CT    1  MOL    C333   333  -0.1200000   12.0115
  334        CT    1  MOL    C334   334  -0.1200000   12.0115
  335        CT    1  MOL    C335   335  -0.1200000   12.0115
  336        CT    1  MOL    C336   336  -0.1200000   12.0115
  337        CT    1  MOL    C337   337  -0.1200000   12.0115
  338        CT    1  MOL    C338   338  -0.1200000   12.0115
  339        CT    1  MOL    C339   339  -0.1200000   12.0115
  340        CT    1  MOL    C340   340  -0.1200000   12.0115
  341        CT    1  MOL    C341   341   0.1900000   12.0115
  342       OES    1  MOL    O342   342  -0.3300000   15.9994
  343       CO4    1  MOL    C343   343   0.6250000   12.0115
  344         O    1  MOL    O344   344  -0.4300000   15.9994
  345        CA    1  MOL    C345   345  -0.1150000   12.0115
  346        CA    1  MOL    C346   346  -0.1150000   12.0115
  347        CA    1  MOL    C347   347  -0.1150000   12.0115
  348        CA    1  MOL    C348   348  -0.1150000   12.0115
  349       CO4    1  MOL    C349   349   0.6250000   12.0115
  350         O    1  MOL    O350   350  -0.4300000   15.9994
  351       OES    1  MOL    O351   351  -0.0800000   15.9994
  352        CA    1  MOL    C352   352  -0.1150000   12.0115
  353        CA    1  MOL    C353   353  -0.1150000   12.0115
  354        HC    1  MOL    H354   354   0.0600000    1.0080
  355        HC    1  MOL    H355   355   0.0600000    1.0080
  356        HC    1  MOL    H356   356   0.0600000    1.0080
  357        HC    1  MOL    H357   357   0.0600000    1.0080
  358        HC    1  MOL    H358   358   0.0600000    1.0080
  359        HC    1  MOL    H359   359   0.0600000    1.0080
  360        HC    1  MOL    H360   360   0.0600000    1.0080
  361        HC    1  MOL    H361   361   0.0600000    1.0080
  362        HC    1  MOL    H362   362   0.0600000    1.0080
  363        HC    1  MOL    H363   363   0.0600000    1.0080
  364        HC    1  MOL    H364   364   0.0600000    1.0080
  365        HC    1  MOL    H365   365   0.0600000    1.0080
  366        HC    1  MOL    H366   366   0.0600000    1.0080
  367        HC    1  MOL    H367   367   0.0600000    1.0080
  368        HC    1  MOL    H368   368   0.0600000    1.0080
  369        HC    1  MOL    H369   369   0.0600000    1.0080
  370        HC    1  MOL    H370   370   0.0600000    1.0080
  371        HC    1  MOL    H371   371   0.0600000    1.0080
  372       HAE    1  MOL    H372   372   0.0300000    1.0080
  373       HAE    1  MOL    H373   373   0.0300000    1.0080
  374        HA    1  MOL    H374   374   0.1150000    1.0080
  375        HA    1  MOL    H375   375   0.1150000    1.0080
  376        HA    1  MOL    H376   376   0.1150000    1.0080
  377        HA    1  MOL    H377   377   0.1150000    1.0080
  378        OS    1  MOL    O378   378  -0.2000000   15.9994
  379        CT    1  MOL    C379   379   0.0800000   12.0115
  380        CT    1  MOL    C380   380  -0.1200000   12.0115
  381        CT    1  MOL    C381   381  -0.1200000   12.0115
  382        CT    1  MOL    C382   382  -0.1200000   12.0115
  383        CT    1  MOL    C383   383  -0.1200000   12.0115
  384        CT    1  MOL    C384   384  -0.1200000   12.0115
  385        CT    1  MOL    C385   385  -0.1200000   12.0115
  386        CT    1  MOL    C386   386  -0.1200000   12.0115
  387        CT    1  MOL    C387   387  -0.1200000   12.0115
  388        CT    1  MOL    C388   388   0.1900000   12.0115
  389       OES    1  MOL    O389   389  -0.3300000   15.9994
  390       CO4    1  MOL    C390   390   0.6250000   12.0115
  391         O    1  MOL    O391   391  -0.4300000   15.9994
  392        CA    1  MOL    C392   392  -0.1150000   12.0115
  393        CA    1  MOL    C393   393  -0.1150000   12.0115
  394        CA    1  MOL    C394   394  -0.1150000   12.0115
  395        CA    1  MOL    C395   395  -0.1150000   12.0115
  396       CO4    1  MOL    C396   396   0.6250000   12.0115
  397         O    1  MOL    O397   397  -0.4300000   15.9994
  398       OES    1  MOL    O398   398  -0.0800000   15.9994
  399        CA    1  MOL    C399   399  -0.1150000   12.0115
  400        CA    1  MOL    C400   400  -0.1150000   12.0115
  401        HC    1  MOL    H401   401   0.0600000    1.0080
  402        HC    1  MOL    H402   402   0.0600000    1.0080
  403        HC    1  MOL    H403   403   0.0600000    1.0080
  404        HC    1  MOL    H404   404   0.0600000    1.0080
  405        HC    1  MOL    H405   405   0.0600000    1.0080
  406        HC    1  MOL    H406   406   0.0600000    1.0080
  407        HC    1  MOL    H407   407   0.0600000    1.0080
  408        HC    1  MOL    H408   408   0.0600000    1.0080
  409        HC    1  MOL    H409   409   0.0600000    1.0080
  410        HC    1  MOL    H410   410   0.0600000    1.0080
  411        HC    1  MOL    H411   411   0.0600000    1.0080
  412        HC    1  MOL    H412   412   0.0600000    1.0080
  413        HC    1  MOL    H413   413   0.0600000    1.0080
  414        HC    1  MOL    H414   414   0.0600000    1.0080
  415        HC    1  MOL    H415   415   0.0600000    1.0080
  416        HC    1  MOL    H416   416   0.0600000    1.0080
  417        HC    1  MOL    H417   417   0.0600000    1.0080
  418        HC    1  MOL    H418   418   0.0600000    1.0080
  419       HAE    1  MOL    H419   419   0.0300000    1.0080
  420       HAE    1  MOL    H420   420   0.0300000    1.0080
  421        HA    1  MOL    H421   421   0.1150000    1.0080
  422        HA    1  MOL    H422   422   0.1150000    1.0080
  423        HA    1  MOL    H423   423   0.1150000    1.0080
  424        HA    1  MOL    H424   424   0.1150000    1.0080
  425        OS    1  MOL    O425   425  -0.2000000   15.9994
  426        CT    1  MOL    C426   426   0.0800000   12.0115
  427        CT    1  MOL    C427   427  -0.1200000   12.0115
  428        CT    1  MOL    C428   428  -0.1200000   12.0115
  429        CT    1  MOL    C429   429  -0.1200000   12.0115
  430        CT    1  MOL    C430   430  -0.1200000   12.0115
  431        CT    1  MOL    C431   431  -0.1200000   12.0115
  432        CT    1  MOL    C432   432  -0.1200000   12.0115
  433        CT    1  MOL    C433   433  -0.1200000   12.0115
  434        CT    1  MOL    C434   434  -0.1200000   12.0115
  435        CT    1  MOL    C435   435   0.1900000   12.0115
  436       OES    1  MOL    O436   436  -0.3300000   15.9994
  437       CO4    1  MOL    C437   437   0.6250000   12.0115
  438         O    1  MOL    O438   438  -0.4300000   15.9994
  439        CA    1  MOL    C439   439  -0.1150000   12.0115
  440        CA    1  MOL    C440   440  -0.1150000   12.0115
  441        CA    1  MOL    C441   441  -0.1150000   12.0115
  442        CA    1  MOL    C442   442  -0.1150000   12.0115
  443       CO4    1  MOL    C443   443   0.6250000   12.0115
  444         O    1  MOL    O444   444  -0.4300000   15.9994
  445       OES    1  MOL    O445   445  -0.0800000   15.9994
  446        CA    1  MOL    C446   446  -0.1150000   12.0115
  447        CA    1  MOL    C447   447  -0.1150000   12.0115
  448        HC    1  MOL    H448   448   0.0600000    1.0080
  449        HC    1  MOL    H449   449   0.0600000    1.0080
  450        HC    1  MOL    H450   450   0.0600000    1.0080
  451        HC    1  MOL    H451   451   0.0600000    1.0080
  452        HC    1  MOL    H452   452   0.0600000    1.0080
  453        HC    1  MOL    H453   453   0.0600000    1.0080
  454        HC    1  MOL    H454   454   0.0600000    1.0080
  455        HC    1  MOL    H455   455   0.0600000    1.0080
  456        HC    1  MOL    H456   456   0.0600000    1.0080
  457        HC    1  MOL    H457   457   0.0600000    1.0080
  458        HC    1  MOL    H458   458   0.0600000    1.0080
  459        HC    1  MOL    H459   459   0.0600000    1.0080
  460        HC    1  MOL    H460   460   0.0600000    1.0080
  461        HC    1  MOL    H461   461   0.0600000    1.0080
  462        HC    1  MOL    H462   462   0.0600000    1.0080
  463        HC    1  MOL    H463   463   0.0600000    1.0080
  464        HC    1  MOL    H464   464   0.0600000    1.0080
  465        HC    1  MOL    H465   465   0.0600000    1.0080
  466       HAE    1  MOL    H466   466   0.0300000    1.0080
  467       HAE    1  MOL    H467   467   0.0300000    1.0080
  468        HA    1  MOL    H468   468   0.1150000    1.0080
  469        HA    1  MOL    H469   469   0.1150000    1.0080
  470        HA    1  MOL    H470   470   0.1150000    1.0080
  471        HA    1  MOL    H471   471   0.1150000    1.0080
  472        OS    1  MOL    O472   472  -0.2000000   15.9994
  473        CT    1  MOL    C473   473   0.0800000   12.0115
  474        CT    1  MOL    C474   474  -0.1200000   12.0115
  475        CT    1  MOL    C475   475  -0.1200000   12.0115
  476        CT    1  MOL    C476   476  -0.1200000   12.0115
  477        CT    1  MOL    C477   477  -0.1200000   12.0115
  478        CT    1  MOL    C478   478  -0.1200000   12.0115
  479        CT    1  MOL    C479   479  -0.1200000   12.0115
  480        CT    1  MOL    C480   480  -0.1200000   12.0115
  481        CT    1  MOL    C481   481  -0.1200000   12.0115
  482        CT    1  MOL    C482   482   0.1900000   12.0115
  483       OES    1  MOL    O483   483  -0.3300000   15.9994
  484       CO4    1  MOL    C484   484   0.6250000   12.0115
  485         O    1  MOL    O485   485  -0.4300000   15.9994
  486        CA    1  MOL    C486   486  -0.1150000   12.0115
  487        CA    1  MOL    C487   487  -0.1150000   12.0115
  488        CA    1  MOL    C488   488  -0.1150000   12.0115
  489        CA    1  MOL    C489   489  -0.1150000   12.0115
  490       CO4    1  MOL    C490   490   0.6250000   12.0115
  491         O    1  MOL    O491   491  -0.4300000   15.9994
  492       OES    1  MOL    O492   492  -0.0800000   15.9994
  493        CA    1  MOL    C493   493  -0.1150000   12.0115
  494        CA    1  MOL    C494   494  -0.1150000   12.0115
  495        HC    1  MOL    H495   495   0.0600000    1.0080
  496        HC    1  MOL    H496   496   0.0600000    1.0080
  497        HC    1  MOL    H497   497   0.0600000    1.0080
  498        HC    1  MOL    H498   498   0.0600000    1.0080
  499        HC    1  MOL    H499   499   0.0600000    1.0080
  500        HC    1  MOL    H500   500   0.0600000    1.0080
  501        HC    1  MOL    H501   501   0.0600000    1.0080
  502        HC    1  MOL    H502   502   0.0600000    1.0080
  503        HC    1  MOL    H503   503   0.0600000    1.0080
  504        HC    1  MOL    H504   504   0.0600000    1.0080
  505        HC    1  MOL    H505   505   0.0600000    1.0080
  506        HC    1  MOL    H506   506   0.0600000    1.0080
  507        HC    1  MOL    H507   507   0.0600000    1.0080
  508        HC    1  MOL    H508   508   0.0600000    1.0080
  509        HC    1  MOL    H509   509   0.0600000    1.0080
  510        HC    1  MOL    H510   510   0.0600000    1.0080
  511        HC    1  MOL    H511   511   0.0600000    1.0080
  512        HC    1  MOL    H512   512   0.0600000    1.0080
  513       HAE    1  MOL    H513   513   0.0300000    1.0080
  514       HAE    1  MOL    H514   514   0.0300000    1.0080
  515        HA    1  MOL    H515   515   0.1150000    1.0080
  516        HA    1  MOL    H516   516   0.1150000    1.0080
  517        HA    1  MOL    H517   517   0.1150000    1.0080
  518        HA    1  MOL    H518   518   0.1150000    1.0080
  519        OS    1  MOL    O519   519  -0.2000000   15.9994
  520        CT    1  MOL    C520   520   0.0800000   12.0115
  521        CT    1  MOL    C521   521  -0.1200000   12.0115
  522        CT    1  MOL    C522   522  -0.1200000   12.0115
  523        CT    1  MOL    C523   523  -0.1200000   12.0115
  524        CT    1  MOL    C524   524  -0.1200000   12.0115
  525        CT    1  MOL    C525   525  -0.1200000   12.0115
  526        CT    1  MOL    C526   526  -0.1200000   12.0115
  527        CT    1  MOL    C527   527  -0.1200000   12.0115
  528        CT    1  MOL    C528   528  -0.1200000   12.0115
  529        CT    1  MOL    C529   529   0.1900000   12.0115
  530       OES    1  MOL    O530   530  -0.3300000   15.9994
  531       CO4    1  MOL    C531   531   0.6250000   12.0115
  532         O    1  MOL    O532   532  -0.4300000   15.9994
  533        CA    1  MOL    C533   533  -0.1150000   12.0115
  534        CA    1  MOL    C534   534  -0.1150000   12.0115
  535        CA    1  MOL    C535   535  -0.1150000   12.0115
  536        CA    1  MOL    C536   536  -0.1150000   12.0115
  537       CO4    1  MOL    C537   537   0.6250000   12.0115
  538         O    1  MOL    O538   538  -0.4300000   15.9994
  539       OES    1  MOL    O539   539  -0.0800000   15.9994
  540        CA    1  MOL    C540   540  -0.1150000   12.0115
  541        CA    1  MOL    C541   541  -0.1150000   12.0115
  542        HC    1  MOL    H542   542   0.0600000    1.0080
  543        HC    1  MOL    H543   543   0.0600000    1.0080
  544        HC    1  MOL    H544   544   0.0600000    1.0080
  545        HC    1  MOL    H545   545   0.0600000    1.0080
  546        HC    1  MOL    H546   546   0.0600000    1.0080
  547        HC    1  MOL    H547   547   0.0600000    1.0080
  548        HC    1  MOL    H548   548   0.0600000    1.0080
  549        HC    1  MOL    H549   549   0.0600000    1.0080
  550        HC    1  MOL    H550   550   0.0600000    1.0080
  551        HC    1  MOL    H551   551   0.0600000    1.0080
  552        HC    1  MOL    H552   552   0.0600000    1.0080
  553        HC    1  MOL    H553   553   0.0600000    1.0080
  554        HC    1  MOL    H554   554   0.0600000    1.0080
  555        HC    1  MOL    H555   555   0.0600000    1.0080
  556        HC    1  MOL    H556   556   0.0600000    1.0080
  557        HC    1  MOL    H557   557   0.0600000    1.0080
  558        HC    1  MOL    H558   558   0.0600000    1.0080
  559        HC    1  MOL    H559   559   0.0600000    1.0080
  560       HAE    1  MOL    H560   560   0.0300000    1.0080
  561       HAE    1  MOL    H561   561   0.0300000    1.0080
  562        HA    1  MOL    H562   562   0.1150000    1.0080
  563        HA    1  MOL    H563   563   0.1150000    1.0080
  564        HA    1  MOL    H564   564   0.1150000    1.0080
  565        HA    1  MOL    H565   565   0.1150000    1.0080
  566        OS    1  MOL    O566   566  -0.2000000   15.9994
  567        CT    1  MOL    C567   567   0.0800000   12.0115
  568        CT    1  MOL    C568   568  -0.1200000   12.0115
  569        CT    1  MOL    C569   569  -0.1200000   12.0115
  570        CT    1  MOL    C570   570  -0.1200000   12.0115
  571        CT    1  MOL    C571   571  -0.1200000   12.0115
  572        CT    1  MOL    C572   572  -0.1200000   12.0115
  573        CT    1  MOL    C573   573  -0.1200000   12.0115
  574        CT    1  MOL    C574   574  -0.1200000   12.0115
  575        CT    1  MOL    C575   575  -0.1200000   12.0115
  576        CT    1  MOL    C576   576   0.1900000   12.0115
  577       OES    1  MOL    O577   577  -0.3300000   15.9994
  578       CO4    1  MOL    C578   578   0.6250000   12.0115
  579         O    1  MOL    O579   579  -0.4300000   15.9994
  580        CA    1  MOL    C580   580  -0.1150000   12.0115
  581        CA    1  MOL    C581   581  -0.1150000   12.0115
  582        CA    1  MOL    C582   582  -0.1150000   12.0115
  583        CA    1  MOL    C583   583  -0.1150000   12.0115
  584       CO4    1  MOL    C584   584   0.6250000   12.0115
  585         O    1  MOL    O585   585  -0.4300000   15.9994
  586       OES    1  MOL    O586   586  -0.0800000   15.9994
  587        CA    1  MOL    C587   587  -0.1150000   12.0115
  588        CA    1  MOL    C588   588  -0.1150000   12.0115
  589        HC    1  MOL    H589   589   0.0600000    1.0080
  590        HC    1  MOL    H590   590   0.0600000    1.0080
  591        HC    1  MOL    H591   591   0.0600000    1.0080
  592        HC    1  MOL    H592   592   0.0600000    1.0080
  593        HC    1  MOL    H593   593   0.0600000    1.0080
  594        HC    1  MOL    H594   594   0.0600000    1.0080
  595        HC    1  MOL    H595   595   0.0600000    1.0080
  596        HC    1  MOL    H596   596   0.0600000    1.0080
  597        HC    1  MOL    H597   597   0.0600000    1.0080
  598        HC    1  MOL    H598   598   0.0600000    1.0080
  599        HC    1  MOL    H599   599   0.0600000    1.0080
  600        HC    1  MOL    H600   600   0.0600000    1.0080
  601        HC    1  MOL    H601   601   0.0600000    1.0080
  602        HC    1  MOL    H602   602   0.0600000    1.0080
  603        HC    1  MOL    H603   603   0.0600000    1.0080
  604        HC    1  MOL    H604   604   0.0600000    1.0080
  605        HC    1  MOL    H605   605   0.0600000    1.0080
  606        HC    1  MOL    H606   606   0.0600000    1.0080
  607       HAE    1  MOL    H607   607   0.0300000    1.0080
  608       HAE    1  MOL    H608   608   0.0300000    1.0080
  609        HA    1  MOL    H609   609   0.1150000    1.0080
  610        HA    1  MOL    H610   610   0.1150000    1.0080
  611        HA    1  MOL    H611   611   0.1150000    1.0080
  612        HA    1  MOL    H612   612   0.1150000    1.0080
  613        OS    1  MOL    O613   613  -0.2000000   15.9994
  614        CT    1  MOL    C614   614   0.0800000   12.0115
  615        CT    1  MOL    C615   615  -0.1200000   12.0115
  616        CT    1  MOL    C616   616  -0.1200000   12.0115
  617        CT    1  MOL    C617   617  -0.1200000   12.0115
  618        CT    1  MOL    C618   618  -0.1200000   12.0115
  619        CT    1  MOL    C619   619  -0.1200000   12.0115
  620        CT    1  MOL    C620   620  -0.1200000   12.0115
  621        CT    1  MOL    C621   621  -0.1200000   12.0115
  622        CT    1  MOL    C622   622  -0.1200000   12.0115
  623        CT    1  MOL    C623   623   0.1900000   12.0115
  624       OES    1  MOL    O624   624  -0.3300000   15.9994
  625       CO4    1  MOL    C625   625   0.6250000   12.0115
  626         O    1  MOL    O626   626  -0.4300000   15.9994
  627        CA    1  MOL    C627   627  -0.1150000   12.0115
  628        CA    1  MOL    C628   628  -0.1150000   12.0115
  629        CA    1  MOL    C629   629  -0.1150000   12.0115
  630        CA    1  MOL    C630   630  -0.1150000   12.0115
  631       CO4    1  MOL    C631   631   0.6250000   12.0115
  632         O    1  MOL    O632   632  -0.4300000   15.9994
  633       OES    1  MOL    O633   633  -0.0800000   15.9994
  634        CA    1  MOL    C634   634  -0.1150000   12.0115
  635        CA    1  MOL    C635   635  -0.1150000   12.0115
  636        HC    1  MOL    H636   636   0.0600000    1.0080
  637        HC    1  MOL    H637   637   0.0600000    1.0080
  638        HC    1  MOL    H638   638   0.0600000    1.0080
  639        HC    1  MOL    H639   639   0.0600000    1.0080
  640        HC    1  MOL    H640   640   0.0600000    1.0080
  641        HC    1  MOL    H641   641   0.0600000    1.0080
  642        HC    1  MOL    H642   642   0.0600000    1.0080
  643        HC    1  MOL    H643   643   0.0600000    1.0080
  644        HC    1  MOL    H644   644   0.0600000    1.0080
  645        HC    1  MOL    H645   645   0.0600000    1.0080
  646        HC    1  MOL    H646   646   0.0600000    1.0080
  647        HC    1  MOL    H647   647   0.0600000    1.0080
  648        HC    1  MOL    H648   648   0.0600000    1.0080
  649        HC    1  MOL    H649   649   0.0600000    1.0080
  650        HC    1  MOL    H650   650   0.0600000    1.0080
  651        HC    1  MOL    H651   651   0.0600000    1.0080
  652        HC    1  MOL    H652   652   0.0600000    1.0080
  653        HC    1  MOL    H653   653   0.0600000    1.0080
  654       HAE    1  MOL    H654   654   0.0300000    1.0080
  655       HAE    1  MOL    H655   655   0.0300000    1.0080
  656        HA    1  MOL    H656   656   0.1150000    1.0080
  657        HA    1  MOL    H657   657   0.1150000    1.0080
  658        HA    1  MOL    H658   658   0.1150000    1.0080
  659        HA    1  MOL    H659   659   0.1150000    1.0080
  660        OS    1  MOL    O660   660  -0.2000000   15.9994
  661        CT    1  MOL    C661   661   0.0800000   12.0115
  662        CT    1  MOL    C662   662  -0.1200000   12.0115
  663        CT    1  MOL    C663   663  -0.1200000   12.0115
  664        CT    1  MOL    C664   664  -0.1200000   12.0115
  665        CT    1  MOL    C665   665  -0.1200000   12.0115
  666        CT    1  MOL    C666   666  -0.1200000   12.0115
  667        CT    1  MOL    C667   667  -0.1200000   12.0115
  668        CT    1  MOL    C668   668  -0.1200000   12.0115
  669        CT    1  MOL    C669   669  -0.1200000   12.0115
  670        CT    1  MOL    C670   670   0.1900000   12.0115
  671       OES    1  MOL    O671   671  -0.3300000   15.9994
  672       CO4    1  MOL    C672   672   0.6250000   12.0115
  673         O    1  MOL    O673   673  -0.4300000   15.9994
  674        CA    1  MOL    C674   674  -0.1150000   12.0115
  675        CA    1  MOL    C675   675  -0.1150000   12.0115
  676        CA    1  MOL    C676   676  -0.1150000   12.0115
  677        CA    1  MOL    C677   677  -0.1150000   12.0115
  678       CO4    1  MOL    C678   678   0.6250000   12.0115
  679         O    1  MOL    O679   679  -0.4300000   15.9994
  680       OES    1  MOL    O680   680  -0.0800000   15.9994
  681        CA    1  MOL    C681   681  -0.1150000   12.0115
  682        CA    1  MOL    C682   682  -0.1150000   12.0115
  683        HC    1  MOL    H683   683   0.0600000    1.0080
  684        HC    1  MOL    H684   684   0.0600000    1.0080
  685        HC    1  MOL    H685   685   0.0600000    1.0080
  686        HC    1  MOL    H686   686   0.0600000    1.0080
  687        HC    1  MOL    H687   687   0.0600000    1.0080
  688        HC    1  MOL    H688   688   0.0600000    1.0080
  689        HC    1  MOL    H689   689   0.0600000    1.0080
  690        HC    1  MOL    H690   690   0.0600000    1.0080
  691        HC    1  MOL    H691   691   0.0600000    1.0080
  692        HC    1  MOL    H692   692   0.0600000    1.0080
  693        HC    1  MOL    H693   693   0.0600000    1.0080
  694        HC    1  MOL    H694   694   0.0600000    1.0080
  695        HC    1  MOL    H695   695   0.0600000    1.0080
  696        HC    1  MOL    H696   696   0.0600000    1.0080
  697        HC    1  MOL    H697   697   0.0600000    1.0080
  698        HC    1  MOL    H698   698   0.0600000    1.0080
  699        HC    1  MOL    H699   699   0.0600000    1.0080
  700        HC    1  MOL    H700   700   0.0600000    1.0080
  701       HAE    1  MOL    H701   701   0.0300000    1.0080
  702       HAE    1  MOL    H702   702   0.0300000    1.0080
  703        HA    1  MOL    H703   703   0.1150000    1.0080
  704        HA    1  MOL    H704   704   0.1150000    1.0080
  705        HA    1  MOL    H705   705   0.1150000    1.0080
  706        HA    1  MOL    H706   706   0.1150000    1.0080
  707        OS    1  MOL    O707   707  -0.2000000   15.9994
  708        CT    1  MOL    C708   708   0.0800000   12.0115
  709        CT    1  MOL    C709   709  -0.1200000   12.0115
  710        CT    1  MOL    C710   710  -0.1200000   12.0115
  711        CT    1  MOL    C711   711  -0.1200000   12.0115
  712        CT    1  MOL    C712   712  -0.1200000   12.0115
  713        CT    1  MOL    C713   713  -0.1200000   12.0115
  714        CT    1  MOL    C714   714  -0.1200000   12.0115
  715        CT    1  MOL    C715   715  -0.1200000   12.0115
  716        CT    1  MOL    C716   716  -0.1200000   12.0115
  717        CT    1  MOL    C717   717   0.1900000   12.0115
  718       OES    1  MOL    O718   718  -0.3300000   15.9994
  719       CO4    1  MOL    C719   719   0.6250000   12.0115
  720         O    1  MOL    O720   720  -0.4300000   15.9994
  721        CA    1  MOL    C721   721  -0.1150000   12.0115
  722        CA    1  MOL    C722   722  -0.1150000   12.0115
  723        CA    1  MOL    C723   723  -0.1150000   12.0115
  724        CA    1  MOL    C724   724  -0.1150000   12.0115
  725       CO4    1  MOL    C725   725   0.6250000   12.0115
  726         O    1  MOL    O726   726  -0.4300000   15.9994
  727       OES    1  MOL    O727   727  -0.0800000   15.9994
  728        CA    1  MOL    C728   728  -0.1150000   12.0115
  729        CA    1  MOL    C729   729  -0.1150000   12.0115
  730        HC    1  MOL    H730   730   0.0600000    1.0080
  731        HC    1  MOL    H731   731   0.0600000    1.0080
  732        HC    1  MOL    H732   732   0.0600000    1.0080
  733        HC    1  MOL    H733   733   0.0600000    1.0080
  734        HC    1  MOL    H734   734   0.0600000    1.0080
  735        HC    1  MOL    H735   735   0.0600000    1.0080
  736        HC    1  MOL    H736   736   0.0600000    1.0080
  737        HC    1  MOL    H737   737   0.0600000    1.0080
  738        HC    1  MOL    H738   738   0.0600000    1.0080
  739        HC    1  MOL    H739   739   0.0600000    1.0080
  740        HC    1  MOL    H740   740   0.0600000    1.0080
  741        HC    1  MOL    H741   741   0.0600000    1.0080
  742        HC    1  MOL    H742   742   0.0600000    1.0080
  743        HC    1  MOL    H743   743   0.0600000    1.0080
  744        HC    1  MOL    H744   744   0.0600000    1.0080
  745        HC    1  MOL    H745   745   0.0600000    1.0080
  746        HC    1  MOL    H746   746   0.0600000    1.0080
  747        HC    1  MOL    H747   747   0.0600000    1.0080
  748       HAE    1  MOL    H748   748   0.0300000    1.0080
  749       HAE    1  MOL    H749   749   0.0300000    1.0080
  750        HA    1  MOL    H750   750   0.1150000    1.0080
  751        HA    1  MOL    H751   751   0.1150000    1.0080
  752        HA    1  MOL    H752   752   0.1150000    1.0080
  753        HA    1  MOL    H753   753   0.1150000    1.0080
  754        OS    1  MOL    O754   754  -0.2000000   15.9994
  755        CT    1  MOL    C755   755   0.0800000   12.0115
  756        CT    1  MOL    C756   756  -0.1200000   12.0115
  757        CT    1  MOL    C757   757  -0.1200000   12.0115
  758        CT    1  MOL    C758   758  -0.1200000   12.0115
  759        CT    1  MOL    C759   759  -0.1200000   12.0115
  760        CT    1  MOL    C760   760  -0.1200000   12.0115
  761        CT    1  MOL    C761   761  -0.1200000   12.0115
  762        CT    1  MOL    C762   762  -0.1200000   12.0115
  763        CT    1  MOL    C763   763  -0.1200000   12.0115
  764        CT    1  MOL    C764   764   0.1900000   12.0115
  765       OES    1  MOL    O765   765  -0.3300000   15.9994
  766       CO4    1  MOL    C766   766   0.6250000   12.0115
  767         O    1  MOL    O767   767  -0.4300000   15.9994
  768        CA    1  MOL    C768   768  -0.1150000   12.0115
  769        CA    1  MOL    C769   769  -0.1150000   12.0115
  770        CA    1  MOL    C770   770  -0.1150000   12.0115
  771        CA    1  MOL    C771   771  -0.1150000   12.0115
  772       CO4    1  MOL    C772   772   0.6250000   12.0115
  773         O    1  MOL    O773   773  -0.4300000   15.9994
  774       OES    1  MOL    O774   774  -0.0800000   15.9994
  775        CA    1  MOL    C775   775  -0.1150000   12.0115
  776        CA    1  MOL    C776   776  -0.1150000   12.0115
  777        HC    1  MOL    H777   777   0.0600000    1.0080
  778        HC    1  MOL    H778   778   0.0600000    1.0080
  779        HC    1  MOL    H779   779   0.0600000    1.0080
  780        HC    1  MOL    H780   780   0.0600000    1.0080
  781        HC    1  MOL    H781   781   0.0600000    1.0080
  782        HC    1  MOL    H782   782   0.0600000    1.0080
  783        HC    1  MOL    H783   783   0.0600000    1.0080
  784        HC    1  MOL    H784   784   0.0600000    1.0080
  785        HC    1  MOL    H785   785   0.0600000    1.0080
  786        HC    1  MOL    H786   786   0.0600000    1.0080
  787        HC    1  MOL    H787   787   0.0600000    1.0080
  788        HC    1  MOL    H788   788   0.0600000    1.0080
  789        HC    1  MOL    H789   789   0.0600000    1.0080
  790        HC    1  MOL    H790   790   0.0600000    1.0080
  791        HC    1  MOL    H791   791   0.0600000    1.0080
  792        HC    1  MOL    H792   792   0.0600000    1.0080
  793        HC    1  MOL    H793   793   0.0600000    1.0080
  794        HC    1  MOL    H794   794   0.0600000    1.0080
  795       HAE    1  MOL    H795   795   0.0300000    1.0080
  796       HAE    1  MOL    H796   796   0.0300000    1.0080
  797        HA    1  MOL    H797   797   0.1150000    1.0080
  798        HA    1  MOL    H798   798   0.1150000    1.0080
  799        HA    1  MOL    H799   799   0.1150000    1.0080
  800        HA    1  MOL    H800   800   0.1150000    1.0080
  801        OS    1  MOL    O801   801  -0.2000000   15.9994
  802        CT    1  MOL    C802   802   0.0800000   12.0115
  803        CT    1  MOL    C803   803  -0.1200000   12.0115
  804        CT    1  MOL    C804   804  -0.1200000   12.0115
  805        CT    1  MOL    C805   805  -0.1200000   12.0115
  806        CT    1  MOL    C806   806  -0.1200000   12.0115
  807        CT    1  MOL    C807   807  -0.1200000   12.0115
  808        CT    1  MOL    C808   808  -0.1200000   12.0115
  809        CT    1  MOL    C809   809  -0.1200000   12.0115
  810        CT    1  MOL    C810   810  -0.1200000   12.0115
  811        CT    1  MOL    C811   811   0.1900000   12.0115
  812       OES    1  MOL    O812   812  -0.3300000   15.9994
  813       CO4    1  MOL    C813   813   0.6250000   12.0115
  814         O    1  MOL    O814   814  -0.4300000   15.9994
  815        CA    1  MOL    C815   815  -0.1150000   12.0115
  816        CA    1  MOL    C816   816  -0.1150000   12.0115
  817        CA    1  MOL    C817   817  -0.1150000   12.0115
  818        CA    1  MOL    C818   818  -0.1150000   12.0115
  819       CO4    1  MOL    C819   819   0.6250000   12.0115
  820         O    1  MOL    O820   820  -0.4300000   15.9994
  821       OES    1  MOL    O821   821  -0.0800000   15.9994
  822        CA    1  MOL    C822   822  -0.1150000   12.0115
  823        CA    1  MOL    C823   823  -0.1150000   12.0115
  824        HC    1  MOL    H824   824   0.0600000    1.0080
  825        HC    1  MOL    H825   825   0.0600000    1.0080
  826        HC    1  MOL    H826   826   0.0600000    1.0080
  827        HC    1  MOL    H827   827   0.0600000    1.0080
  828        HC    1  MOL    H828   828   0.0600000    1.0080
  829        HC    1  MOL    H829   829   0.0600000    1.0080
  830        HC    1  MOL    H830   830   0.0600000    1.0080
  831        HC    1  MOL    H831   831   0.0600000    1.0080
  832        HC    1  MOL    H832   832   0.0600000    1.0080
  833        HC    1  MOL    H833   833   0.0600000    1.0080
  834        HC    1  MOL    H834   834   0.0600000    1.0080
  835        HC    1  MOL    H835   835   0.0600000    1.0080
  836        HC    1  MOL    H836   836   0.0600000    1.0080
  837        HC    1  MOL    H837   837   0.0600000    1.0080
  838        HC    1  MOL    H838   838   0.0600000    1.0080
  839        HC    1  MOL    H839   839   0.0600000    1.0080
  840        HC    1  MOL    H840   840   0.0600000    1.0080
  841        HC    1  MOL    H841   841   0.0600000    1.0080
  842       HAE    1  MOL    H842   842   0.0300000    1.0080
  843       HAE    1  MOL    H843   843   0.0300000    1.0080
  844        HA    1  MOL    H844   844   0.1150000    1.0080
  845        HA    1  MOL    H845   845   0.1150000    1.0080
  846        HA    1  MOL    H846   846   0.1150000    1.0080
  847        HA    1  MOL    H847   847   0.1150000    1.0080
  848        OS    1  MOL    O848   848  -0.2000000   15.9994
  849        CT    1  MOL    C849   849   0.0800000   12.0115
  850        CT    1  MOL    C850   850  -0.1200000   12.0115
  851        CT    1  MOL    C851   851  -0.1200000   12.0115
  852        CT    1  MOL    C852   852  -0.1200000   12.0115
  853        CT    1  MOL    C853   853  -0.1200000   12.0115
  854        CT    1  MOL    C854   854  -0.1200000   12.0115
  855        CT    1  MOL    C855   855  -0.1200000   12.0115
  856        CT    1  MOL    C856   856  -0.1200000   12.0115
  857        CT    1  MOL    C857   857  -0.1200000   12.0115
  858        CT    1  MOL    C858   858   0.1900000   12.0115
  859       OES    1  MOL    O859   859  -0.3300000   15.9994
  860       CO4    1  MOL    C860   860   0.6250000   12.0115
  861         O    1  MOL    O861   861  -0.4300000   15.9994
  862        CA    1  MOL    C862   862  -0.1150000   12.0115
  863        CA    1  MOL    C863   863  -0.1150000   12.0115
  864        CA    1  MOL    C864   864  -0.1150000   12.0115
  865        CA    1  MOL    C865   865  -0.1150000   12.0115
  866       CO4    1  MOL    C866   866   0.6250000   12.0115
  867         O    1  MOL    O867   867  -0.4300000   15.9994
  868       OES    1  MOL    O868   868  -0.0800000   15.9994
  869        CA    1  MOL    C869   869  -0.1150000   12.0115
  870        CA    1  MOL    C870   870  -0.1150000   12.0115
  871        HC    1  MOL    H871   871   0.0600000    1.0080
  872        HC    1  MOL    H872   872   0.0600000    1.0080
  873        HC    1  MOL    H873   873   0.0600000    1.0080
  874        HC    1  MOL    H874   874   0.0600000    1.0080
  875        HC    1  MOL    H875   875   0.0600000    1.0080
  876        HC    1  MOL    H876   876   0.0600000    1.0080
  877        HC    1  MOL    H877   877   0.0600000    1.0080
  878        HC    1  MOL    H878   878   0.0600000    1.0080
  879        HC    1  MOL    H879   879   0.0600000    1.0080
  880        HC    1  MOL    H880   880   0.0600000    1.0080
  881        HC    1  MOL    H881   881   0.0600000    1.0080
  882        HC    1  MOL    H882   882   0.0600000    1.0080
  883        HC    1  MOL    H883   883   0.0600000    1.0080
  884        HC    1  MOL    H884   884   0.0600000    1.0080
  885        HC    1  MOL    H885   885   0.0600000    1.0080
  886        HC    1  MOL    H886   886   0.0600000    1.0080
  887        HC    1  MOL    H887   887   0.0600000    1.0080
  888        HC    1  MOL    H888   888   0.0600000    1.0080
  889       HAE    1  MOL    H889   889   0.0300000    1.0080
  890       HAE    1  MOL    H890   890   0.0300000    1.0080
  891        HA    1  MOL    H891   891   0.1150000    1.0080
  892        HA    1  MOL    H892   892   0.1150000    1.0080
  893        HA    1  MOL    H893   893   0.1150000    1.0080
  894        HA    1  MOL    H894   894   0.1150000    1.0080
  895        OS    1  MOL    O895   895  -0.2000000   15.9994
  896        CT    1  MOL    C896   896   0.0800000   12.0115
  897        CT    1  MOL    C897   897  -0.1200000   12.0115
  898        CT    1  MOL    C898   898  -0.1200000   12.0115
  899        CT    1  MOL    C899   899  -0.1200000   12.0115
  900        CT    1  MOL    C900   900  -0.1200000   12.0115
  901        CT    1  MOL    C901   901  -0.1200000   12.0115
  902        CT    1  MOL    C902   902  -0.1200000   12.0115
  903        CT    1  MOL    C903   903  -0.1200000   12.0115
  904        CT    1  MOL    C904   904  -0.1200000   12.0115
  905        CT    1  MOL    C905   905   0.1900000   12.0115
  906       OES    1  MOL    O906   906  -0.3300000   15.9994
  907       CO4    1  MOL    C907   907   0.6250000   12.0115
  908         O    1  MOL    O908   908  -0.4300000   15.9994
  909        CA    1  MOL    C909   909  -0.1150000   12.0115
  910        CA    1  MOL    C910   910  -0.1150000   12.0115
  911        CA    1  MOL    C911   911  -0.1150000   12.0115
  912        CA    1  MOL    C912   912  -0.1150000   12.0115
  913         C    1  MOL    C913   913   0.6350000   12.0115
  914         O    1  MOL    O914   914  -0.4400000   15.9994
  915        OH    1  MOL    O915   915  -0.5300000   15.9994
  916        CA    1  MOL    C916   916  -0.1150000   12.0115
  917        CA    1  MOL    C917   917  -0.1150000   12.0115
  918        HC    1  MOL    H918   918   0.0600000    1.0080
  919        HC    1  MOL    H919   919   0.0600000    1.0080
  920        HC    1  MOL    H920   920   0.0600000    1.0080
  921        HC    1  MOL    H921   921   0.0600000    1.0080
  922        HC    1  MOL    H922   922   0.0600000    1.0080
  923        HC    1  MOL    H923   923   0.0600000    1.0080
  924        HC    1  MOL    H924   924   0.0600000    1.0080
  925        HC    1  MOL    H925   925   0.0600000    1.0080
  926        HC    1  MOL    H926   926   0.0600000    1.0080
  927        HC    1  MOL    H927   927   0.0600000    1.0080
  928        HC    1  MOL    H928   928   0.0600000    1.0080
  929        HC    1  MOL    H929   929   0.0600000    1.0080
  930        HC    1  MOL    H930   930   0.0600000    1.0080
  931        HC    1  MOL    H931   931   0.0600000    1.0080
  932        HC    1  MOL    H932   932   0.0600000    1.0080
  933        HC    1  MOL    H933   933   0.0600000    1.0080
  934        HC    1  MOL    H934   934   0.0600000    1.0080
  935        HC    1  MOL    H935   935   0.0600000    1.0080
  936       HAE    1  MOL    H936   936   0.0300000    1.0080
  937       HAE    1  MOL    H937   937   0.0300000    1.0080
  938        HA    1  MOL    H938   938   0.1150000    1.0080
  939        HA    1  MOL    H939   939   0.1150000    1.0080
  940        HA    1  MOL    H940   940   0.1150000    1.0080
  941        HA    1  MOL    H941   941   0.1150000    1.0080
  942        HO    1  MOL    H942   942   0.4500000    1.0080

[ bonds ]
      1      2   1      0.1410 267776.0000
      1     48   1      0.0945 462750.4000
      2      3   1      0.1529 224262.4000
      2     24   1      0.1090 284512.0000
      2     25   1      0.1090 284512.0000
      3      4   1      0.1529 224262.4000
      3     26   1      0.1090 284512.0000
      3     27   1      0.1090 284512.0000
      4      5   1      0.1529 224262.4000
      4     28   1      0.1090 284512.0000
      4     29   1      0.1090 284512.0000
      5      6   1      0.1529 224262.4000
      5     30   1      0.1090 284512.0000
      5     31   1      0.1090 284512.0000
      6      7   1      0.1529 224262.4000
      6     32   1      0.1090 284512.0000
      6     33   1      0.1090 284512.0000
      7      8   1      0.1529 224262.4000
      7     34   1      0.1090 284512.0000
      7     35   1      0.1090 284512.0000
      8      9   1      0.1529 224262.4000
      8     36   1      0.1090 284512.0000
      8     37   1      0.1090 284512.0000
      9     10   1      0.1529 224262.4000
      9     38   1      0.1090 284512.0000
      9     39   1      0.1090 284512.0000
     10     11   1      0.1529 224262.4000
     10     40   1      0.1090 284512.0000
     10     41   1      0.1090 284512.0000
     11     12   1      0.1410 267776.0000
     11     42   1      0.1090 284512.0000
     11     43   1      0.1090 284512.0000
     12     13   1      0.1327 179075.2000
     13     14   1      0.1229 476976.0000
     13     15   1      0.1470 259408.0000
     15     16   1      0.1400 392459.2000
     15     23   1      0.1400 392459.2000
     16     17   1      0.1400 392459.2000
     16     44   1      0.1080 307105.6000
     17     18   1      0.1400 392459.2000
     17     45   1      0.1080 307105.6000
     18     19   1      0.1470 259408.0000
     18     22   1      0.1400 392459.2000
     19     20   1      0.1229 476976.0000
     19     21   1      0.1327 179075.2000
     21     49   1      0.1492 205016.0000
     22     23   1      0.1400 392459.2000
     22     46   1      0.1080 307105.6000
     23     47   1      0.1080 307105.6000
     49     50   1      0.1410 267776.0000
     50     51   1      0.1529 224262.4000
     50     72   1      0.1090 284512.0000
     50     73   1      0.1090 284512.0000
     51     52   1      0.1529 224262.4000
     51     74   1      0.1090 284512.0000
     51     75   1      0.1090 284512.0000
     52     53   1      0.1529 224262.4000
     52     76   1      0.1090 284512.0000
     52     77   1      0.1090 284512.0000
     53     54   1      0.1529 224262.4000
     53     78   1      0.1090 284512.0000
     53     79   1      0.1090 284512.0000
     54     55   1      0.1529 224262.4000
     54     80   1      0.1090 284512.0000
     54     81   1      0.1090 284512.0000
     55     56   1      0.1529 224262.4000
     55     82   1      0.1090 284512.0000
     55     83   1      0.1090 284512.0000
     56     57   1      0.1529 224262.4000
     56     84   1      0.1090 284512.0000
     56     85   1      0.1090 284512.0000
     57     58   1      0.1529 224262.4000
     57     86   1      0.1090 284512.0000
     57     87   1      0.1090 284512.0000
     58     59   1      0.1529 224262.4000
     58     88   1      0.1090 284512.0000
     58     89   1      0.1090 284512.0000
     59     60   1      0.1410 267776.0000
     59     90   1      0.1090 284512.0000
     59     91   1      0.1090 284512.0000
     60     61   1      0.1327 179075.2000
     61     62   1      0.1229 476976.0000
     61     63   1      0.1470 259408.0000
     63     64   1      0.1400 392459.2000
     63     71   1      0.1400 392459.2000
     64     65   1      0.1400 392459.2000
     64     92   1      0.1080 307105.6000
     65     66   1      0.1400 392459.2000
     65     93   1      0.1080 307105.6000
     66     67   1      0.1470 259408.0000
     66     70   1      0.1400 392459.2000
     67     68   1      0.1229 476976.0000
     67     69   1      0.1327 179075.2000
     69     96   1      0.1492 205016.0000
     70     71   1      0.1400 392459.2000
     70     94   1      0.1080 307105.6000
     71     95   1      0.1080 307105.6000
     96     97   1      0.1410 267776.0000
     97     98   1      0.1529 224262.4000
     97    119   1      0.1090 284512.0000
     97    120   1      0.1090 284512.0000
     98     99   1      0.1529 224262.4000
     98    121   1      0.1090 284512.0000
     98    122   1      0.1090 284512.0000
     99    100   1      0.1529 224262.4000
     99    123   1      0.1090 284512.0000
     99    124   1      0.1090 284512.0000
    100    101   1      0.1529 224262.4000
    100    125   1      0.1090 284512.0000
    100    126   1      0.1090 284512.0000
    101    102   1      0.1529 224262.4000
    101    127   1      0.1090 284512.0000
    101    128   1      0.1090 284512.0000
    102    103   1      0.1529 224262.4000
    102    129   1      0.1090 284512.0000
    102    130   1      0.1090 284512.0000
    103    104   1      0.1529 224262.4000
    103    131   1      0.1090 284512.0000
    103    132   1      0.1090 284512.0000
    104    105   1      0.1529 224262.4000
    104    133   1      0.1090 284512.0000
    104    134   1      0.1090 284512.0000
    105    106   1      0.1529 224262.4000
    105    135   1      0.1090 284512.0000
    105    136   1      0.1090 284512.0000
    106    107   1      0.1410 267776.0000
    106    137   1      0.1090 284512.0000
    106    138   1      0.1090 284512.0000
    107    108   1      0.1327 179075.2000
    108    109   1      0.1229 476976.0000
    108    110   1      0.1470 259408.0000
    110    111   1      0.1400 392459.2000
    110    118   1      0.1400 392459.2000
    111    112   1      0.1400 392459.2000
    111    139   1      0.1080 307105.6000
    112    113   1      0.1400 392459.2000
    112    140   1      0.1080 307105.6000
    113    114   1      0.1470 259408.0000
    113    117   1      0.1400 392459.2000
    114    115   1      0.1229 476976.0000
    114    116   1      0.1327 179075.2000
    116    143   1      0.1492 205016.0000
    117    118   1      0.1400 392459.2000
    117    141   1      0.1080 307105.6000
    118    142   1      0.1080 307105.6000
    143    144   1      0.1410 267776.0000
    144    145   1      0.1529 224262.4000
    144    166   1      0.1090 284512.0000
    144    167   1      0.1090 284512.0000
    145    146   1      0.1529 224262.4000
    145    168   1      0.1090 284512.0000
    145    169   1      0.1090 284512.0000
    146    147   1      0.1529 224262.4000
    146    170   1      0.1090 284512.0000
    146    171   1      0.1090 284512.0000
    147    148   1      0.1529 224262.4000
    147    172   1      0.1090 284512.0000
    147    173   1      0.1090 284512.0000
    148    149   1      0.1529 224262.4000
    148    174   1      0.1090 284512.0000
    148    175   1      0.1090 284512.0000
    149    150   1      0.1529 224262.4000
    149    176   1      0.1090 284512.0000
    149    177   1      0.1090 284512.0000
    150    151   1      0.1529 224262.4000
    150    178   1      0.1090 284512.0000
    150    179   1      0.1090 284512.0000
    151    152   1      0.1529 224262.4000
    151    180   1      0.1090 284512.0000
    151    181   1      0.1090 284512.0000
    152    153   1      0.1529 224262.4000
    152    182   1      0.1090 284512.0000
    152    183   1      0.1090 284512.0000
    153    154   1      0.1410 267776.0000
    153    184   1      0.1090 284512.0000
    153    185   1      0.1090 284512.0000
    154    155   1      0.1327 179075.2000
    155    156   1      0.1229 476976.0000
    155    157   1      0.1470 259408.0000
    157    158   1      0.1400 392459.2000
    157    165   1      0.1400 392459.2000
    158    159   1      0.1400 392459.2000
    158    186   1      0.1080 307105.6000
    159    160   1      0.1400 392459.2000
    159    187   1      0.1080 307105.6000
    160    161   1      0.1470 259408.0000
    160    164   1      0.1400 392459.2000
    161    162   1      0.1229 476976.0000
    161    163   1      0.1327 179075.2000
    163    190   1      0.1492 205016.0000
    164    165   1      0.1400 392459.2000
    164    188   1      0.1080 307105.6000
    165    189   1      0.1080 307105.6000
    190    191   1      0.1410 267776.0000
    191    192   1      0.1529 224262.4000
    191    213   1      0.1090 284512.0000
    191    214   1      0.1090 284512.0000
    192    193   1      0.1529 224262.4000
    192    215   1      0.1090 284512.0000
    192    216   1      0.1090 284512.0000
    193    194   1      0.1529 224262.4000
    193    217   1      0.1090 284512.0000
    193    218   1      0.1090 284512.0000
    194    195   1      0.1529 224262.4000
    194    219   1      0.1090 284512.0000
    194    220   1      0.1090 284512.0000
    195    196   1      0.1529 224262.4000
    195    221   1      0.1090 284512.0000
    195    222   1      0.1090 284512.0000
    196    197   1      0.1529 224262.4000
    196    223   1      0.1090 284512.0000
    196    224   1      0.1090 284512.0000
    197    198   1      0.1529 224262.4000
    197    225   1      0.1090 284512.0000
    197    226   1      0.1090 284512.0000
    198    199   1      0.1529 224262.4000
    198    227   1      0.1090 284512.0000
    198    228   1      0.1090 284512.0000
    199    200   1      0.1529 224262.4000
    199    229   1      0.1090 284512.0000
    199    230   1      0.1090 284512.0000
    200    201   1      0.1410 267776.0000
    200    231   1      0.1090 284512.0000
    200    232   1      0.1090 284512.0000
    201    202   1      0.1327 179075.2000
    202    203   1      0.1229 476976.0000
    202    204   1      0.1470 259408.0000
    204    205   1      0.1400 392459.2000
    204    212   1      0.1400 392459.2000
    205    206   1      0.1400 392459.2000
    205    233   1      0.1080 307105.6000
    206    207   1      0.1400 392459.2000
    206    234   1      0.1080 307105.6000
    207    208   1      0.1470 259408.0000
    207    211   1      0.1400 392459.2000
    208    209   1      0.1229 476976.0000
    208    210   1      0.1327 179075.2000
    210    237   1      0.1492 205016.0000
    211    212   1      0.1400 392459.2000
    211    235   1      0.1080 307105.6000
    212    236   1      0.1080 307105.6000
    237    238   1      0.1410 267776.0000
    238    239   1      0.1529 224262.4000
    238    260   1      0.1090 284512.0000
    238    261   1      0.1090 284512.0000
    239    240   1      0.1529 224262.4000
    239    262   1      0.1090 284512.0000
    239    263   1      0.1090 284512.0000
    240    241   1      0.1529 224262.4000
    240    264   1      0.1090 284512.0000
    240    265   1      0.1090 284512.0000
    241    242   1      0.1529 224262.4000
    241    266   1      0.1090 284512.0000
    241    267   1      0.1090 284512.0000
    242    243   1      0.1529 224262.4000
    242    268   1      0.1090 284512.0000
    242    269   1      0.1090 284512.0000
    243    244   1      0.1529 224262.4000
    243    270   1      0.1090 284512.0000
    243    271   1      0.1090 284512.0000
    244    245   1      0.1529 224262.4000
    244    272   1      0.1090 284512.0000
    244    273   1      0.1090 284512.0000
    245    246   1      0.1529 224262.4000
    245    274   1      0.1090 284512.0000
    245    275   1      0.1090 284512.0000
    246    247   1      0.1529 224262.4000
    246    276   1      0.1090 284512.0000
    246    277   1      0.1090 284512.0000
    247    248   1      0.1410 267776.0000
    247    278   1      0.1090 284512.0000
    247    279   1      0.1090 284512.0000
    248    249   1      0.1327 179075.2000
    249    250   1      0.1229 476976.0000
    249    251   1      0.1470 259408.0000
    251    252   1      0.1400 392459.2000
    251    259   1      0.1400 392459.2000
    252    253   1      0.1400 392459.2000
    252    280   1      0.1080 307105.6000
    253    254   1      0.1400 392459.2000
    253    281   1      0.1080 307105.6000
    254    255   1      0.1470 259408.0000
    254    258   1      0.1400 392459.2000
    255    256   1      0.1229 476976.0000
    255    257   1      0.1327 179075.2000
    257    284   1      0.1492 205016.0000
    258    259   1      0.1400 392459.2000
    258    282   1      0.1080 307105.6000
    259    283   1      0.1080 307105.6000
    284    285   1      0.1410 267776.0000
    285    286   1      0.1529 224262.4000
    285    307   1      0.1090 284512.0000
    285    308   1      0.1090 284512.0000
    286    287   1      0.1529 224262.4000
    286    309   1      0.1090 284512.0000
    286    310   1      0.1090 284512.0000
    287    288   1      0.1529 224262.4000
    287    311   1      0.1090 284512.0000
    287    312   1      0.1090 284512.0000
    288    289   1      0.1529 224262.4000
    288    313   1      0.1090 284512.0000
    288    314   1      0.1090 284512.0000
    289    290   1      0.1529 224262.4000
    289    315   1      0.1090 284512.0000
    289    316   1      0.1090 284512.0000
    290    291   1      0.1529 224262.4000
    290    317   1      0.1090 284512.0000
    290    318   1      0.1090 284512.0000
    291    292   1      0.1529 224262.4000
    291    319   1      0.1090 284512.0000
    291    320   1      0.1090 284512.0000
    292    293   1      0.1529 224262.4000
    292    321   1      0.1090 284512.0000
    292    322   1      0.1090 284512.0000
    293    294   1      0.1529 224262.4000
    293    323   1      0.1090 284512.0000
    293    324   1      0.1090 284512.0000
    294    295   1      0.1410 267776.0000
    294    325   1      0.1090 284512.0000
    294    326   1      0.1090 284512.0000
    295    296   1      0.1327 179075.2000
    296    297   1      0.1229 476976.0000
    296    298   1      0.1470 259408.0000
    298    299   1      0.1400 392459.2000
    298    306   1      0.1400 392459.2000
    299    300   1      0.1400 392459.2000
    299    327   1      0.1080 307105.6000
    300    301   1      0.1400 392459.2000
    300    328   1      0.1080 307105.6000
    301    302   1      0.1470 259408.0000
    301    305   1      0.1400 392459.2000
    302    303   1      0.1229 476976.0000
    302    304   1      0.1327 179075.2000
    304    331   1      0.1492 205016.0000
    305    306   1      0.1400 392459.2000
    305    329   1      0.1080 307105.6000
    306    330   1      0.1080 307105.6000
    331    332   1      0.1410 267776.0000
    332    333   1      0.1529 224262.4000
    332    354   1      0.1090 284512.0000
    332    355   1      0.1090 284512.0000
    333    334   1      0.1529 224262.4000
    333    356   1      0.1090 284512.0000
    333    357   1      0.1090 284512.0000
    334    335   1      0.1529 224262.4000
    334    358   1      0.1090 284512.0000
    334    359   1      0.1090 284512.0000
    335    336   1      0.1529 224262.4000
    335    360   1      0.1090 284512.0000
    335    361   1      0.1090 284512.0000
    336    337   1      0.1529 224262.4000
    336    362   1      0.1090 284512.0000
    336    363   1      0.1090 284512.0000
    337    338   1      0.1529 224262.4000
    337    364   1      0.1090 284512.0000
    337    365   1      0.1090 284512.0000
    338    339   1      0.1529 224262.4000
    338    366   1      0.1090 284512.0000
    338    367   1      0.1090 284512.0000
    339    340   1      0.1529 224262.4000
    339    368   1      0.1090 284512.0000
    339    369   1      0.1090 284512.0000
    340    341   1      0.1529 224262.4000
    340    370   1      0.1090 284512.0000
    340    371   1      0.1090 284512.0000
    341    342   1      0.1410 267776.0000
    341    372   1      0.1090 284512.0000
    341    373   1      0.1090 284512.0000
    342    343   1      0.1327 179075.2000
    343    344   1      0.1229 476976.0000
    343    345   1      0.1470 259408.0000
    345    346   1      0.1400 392459.2000
    345    353   1      0.1400 392459.2000
    346    347   1      0.1400 392459.2000
    346    374   1      0.1080 307105.6000
    347    348   1      0.1400 392459.2000
    347    375   1      0.1080 307105.6000
    348    349   1      0.1470 259408.0000
    348    352   1      0.1400 392459.2000
    349    350   1      0.1229 476976.0000
    349    351   1      0.1327 179075.2000
    351    378   1      0.1492 205016.0000
    352    353   1      0.1400 392459.2000
    352    376   1      0.1080 307105.6000
    353    377   1      0.1080 307105.6000
    378    379   1      0.1410 267776.0000
    379    380   1      0.1529 224262.4000
    379    401   1      0.1090 284512.0000
    379    402   1      0.1090 284512.0000
    380    381   1      0.1529 224262.4000
    380    403   1      0.1090 284512.0000
    380    404   1      0.1090 284512.0000
    381    382   1      0.1529 224262.4000
    381    405   1      0.1090 284512.0000
    381    406   1      0.1090 284512.0000
    382    383   1      0.1529 224262.4000
    382    407   1      0.1090 284512.0000
    382    408   1      0.1090 284512.0000
    383    384   1      0.1529 224262.4000
    383    409   1      0.1090 284512.0000
    383    410   1      0.1090 284512.0000
    384    385   1      0.1529 224262.4000
    384    411   1      0.1090 284512.0000
    384    412   1      0.1090 284512.0000
    385    386   1      0.1529 224262.4000
    385    413   1      0.1090 284512.0000
    385    414   1      0.1090 284512.0000
    386    387   1      0.1529 224262.4000
    386    415   1      0.1090 284512.0000
    386    416   1      0.1090 284512.0000
    387    388   1      0.1529 224262.4000
    387    417   1      0.1090 284512.0000
    387    418   1      0.1090 284512.0000
    388    389   1      0.1410 267776.0000
    388    419   1      0.1090 284512.0000
    388    420   1      0.1090 284512.0000
    389    390   1      0.1327 179075.2000
    390    391   1      0.1229 476976.0000
    390    392   1      0.1470 259408.0000
    392    393   1      0.1400 392459.2000
    392    400   1      0.1400 392459.2000
    393    394   1      0.1400 392459.2000
    393    421   1      0.1080 307105.6000
    394    395   1      0.1400 392459.2000
    394    422   1      0.1080 307105.6000
    395    396   1      0.1470 259408.0000
    395    399   1      0.1400 392459.2000
    396    397   1      0.1229 476976.0000
    396    398   1      0.1327 179075.2000
    398    425   1      0.1492 205016.0000
    399    400   1      0.1400 392459.2000
    399    423   1      0.1080 307105.6000
    400    424   1      0.1080 307105.6000
    425    426   1      0.1410 267776.0000
    426    427   1      0.1529 224262.4000
    426    448   1      0.1090 284512.0000
    426    449   1      0.1090 284512.0000
    427    428   1      0.1529 224262.4000
    427    450   1      0.1090 284512.0000
    427    451   1      0.1090 284512.0000
    428    429   1      0.1529 224262.4000
    428    452   1      0.1090 284512.0000
    428    453   1      0.1090 284512.0000
    429    430   1      0.1529 224262.4000
    429    454   1      0.1090 284512.0000
    429    455   1      0.1090 284512.0000
    430    431   1      0.1529 224262.4000
    430    456   1      0.1090 284512.0000
    430    457   1      0.1090 284512.0000
    431    432   1      0.1529 224262.4000
    431    458   1      0.1090 284512.0000
    431    459   1      0.1090 284512.0000
    432    433   1      0.1529 224262.4000
    432    460   1      0.1090 284512.0000
    432    461   1      0.1090 284512.0000
    433    434   1      0.1529 224262.4000
    433    462   1      0.1090 284512.0000
    433    463   1      0.1090 284512.0000
    434    435   1      0.1529 224262.4000
    434    464   1      0.1090 284512.0000
    434    465   1      0.1090 284512.0000
    435    436   1      0.1410 267776.0000
    435    466   1      0.1090 284512.0000
    435    467   1      0.1090 284512.0000
    436    437   1      0.1327 179075.2000
    437    438   1      0.1229 476976.0000
    437    439   1      0.1470 259408.0000
    439    440   1      0.1400 392459.2000
    439    447   1      0.1400 392459.2000
    440    441   1      0.1400 392459.2000
    440    468   1      0.1080 307105.6000
    441    442   1      0.1400 392459.2000
    441    469   1      0.1080 307105.6000
    442    443   1      0.1470 259408.0000
    442    446   1      0.1400 392459.2000
    443    444   1      0.1229 476976.0000
    443    445   1      0.1327 179075.2000
    445    472   1      0.1492 205016.0000
    446    447   1      0.1400 392459.2000
    446    470   1      0.1080 307105.6000
    447    471   1      0.1080 307105.6000
    472    473   1      0.1410 267776.0000
    473    474   1      0.1529 224262.4000
    473    495   1      0.1090 284512.0000
    473    496   1      0.1090 284512.0000
    474    475   1      0.1529 224262.4000
    474    497   1      0.1090 284512.0000
    474    498   1      0.1090 284512.0000
    475    476   1      0.1529 224262.4000
    475    499   1      0.1090 284512.0000
    475    500   1      0.1090 284512.0000
    476    477   1      0.1529 224262.4000
    476    501   1      0.1090 284512.0000
    476    502   1      0.1090 284512.0000
    477    478   1      0.1529 224262.4000
    477    503   1      0.1090 284512.0000
    477    504   1      0.1090 284512.0000
    478    479   1      0.1529 224262.4000
    478    505   1      0.1090 284512.0000
    478    506   1      0.1090 284512.0000
    479    480   1      0.1529 224262.4000
    479    507   1      0.1090 284512.0000
    479    508   1      0.1090 284512.0000
    480    481   1      0.1529 224262.4000
    480    509   1      0.1090 284512.0000
    480    510   1      0.1090 284512.0000
    481    482   1      0.1529 224262.4000
    481    511   1      0.1090 284512.0000
    481    512   1      0.1090 284512.0000
    482    483   1      0.1410 267776.0000
    482    513   1      0.1090 284512.0000
    482    514   1      0.1090 284512.0000
    483    484   1      0.1327 179075.2000
    484    485   1      0.1229 476976.0000
    484    486   1      0.1470 259408.0000
    486    487   1      0.1400 392459.2000
    486    494   1      0.1400 392459.2000
    487    488   1      0.1400 392459.2000
    487    515   1      0.1080 307105.6000
    488    489   1      0.1400 392459.2000
    488    516   1      0.1080 307105.6000
    489    490   1      0.1470 259408.0000
    489    493   1      0.1400 392459.2000
    490    491   1      0.1229 476976.0000
    490    492   1      0.1327 179075.2000
    492    519   1      0.1492 205016.0000
    493    494   1      0.1400 392459.2000
    493    517   1      0.1080 307105.6000
    494    518   1      0.1080 307105.6000
    519    520   1      0.1410 267776.0000
    520    521   1      0.1529 224262.4000
    520    542   1      0.1090 284512.0000
    520    543   1      0.1090 284512.0000
    521    522   1      0.1529 224262.4000
    521    544   1      0.1090 284512.0000
    521    545   1      0.1090 284512.0000
    522    523   1      0.1529 224262.4000
    522    546   1      0.1090 284512.0000
    522    547   1      0.1090 284512.0000
    523    524   1      0.1529 224262.4000
    523    548   1      0.1090 284512.0000
    523    549   1      0.1090 284512.0000
    524    525   1      0.1529 224262.4000
    524    550   1      0.1090 284512.0000
    524    551   1      0.1090 284512.0000
    525    526   1      0.1529 224262.4000
    525    552   1      0.1090 284512.0000
    525    553   1      0.1090 284512.0000
    526    527   1      0.1529 224262.4000
    526    554   1      0.1090 284512.0000
    526    555   1      0.1090 284512.0000
    527    528   1      0.1529 224262.4000
    527    556   1      0.1090 284512.0000
    527    557   1      0.1090 284512.0000
    528    529   1      0.1529 224262.4000
    528    558   1      0.1090 284512.0000
    528    559   1      0.1090 284512.0000
    529    530   1      0.1410 267776.0000
    529    560   1      0.1090 284512.0000
    529    561   1      0.1090 284512.0000
    530    531   1      0.1327 179075.2000
    531    532   1      0.1229 476976.0000
    531    533   1      0.1470 259408.0000
    533    534   1      0.1400 392459.2000
    533    541   1      0.1400 392459.2000
    534    535   1      0.1400 392459.2000
    534    562   1      0.1080 307105.6000
    535    536   1      0.1400 392459.2000
    535    563   1      0.1080 307105.6000
    536    537   1      0.1470 259408.0000
    536    540   1      0.1400 392459.2000
    537    538   1      0.1229 476976.0000
    537    539   1      0.1327 179075.2000
    539    566   1      0.1492 205016.0000
    540    541   1      0.1400 392459.2000
    540    564   1      0.1080 307105.6000
    541    565   1      0.1080 307105.6000
    566    567   1      0.1410 267776.0000
    567    568   1      0.1529 224262.4000
    567    589   1      0.1090 284512.0000
    567    590   1      0.1090 284512.0000
    568    569   1      0.1529 224262.4000
    568    591   1      0.1090 284512.0000
    568    592   1      0.1090 284512.0000
    569    570   1      0.1529 224262.4000
    569    593   1      0.1090 284512.0000
    569    594   1      0.1090 284512.0000
    570    571   1      0.1529 224262.4000
    570    595   1      0.1090 284512.0000
    570    596   1      0.1090 284512.0000
    571    572   1      0.1529 224262.4000
    571    597   1      0.1090 284512.0000
    571    598   1      0.1090 284512.0000
    572    573   1      0.1529 224262.4000
    572    599   1      0.1090 284512.0000
    572    600   1      0.1090 284512.0000
    573    574   1      0.1529 224262.4000
    573    601   1      0.1090 284512.0000
    573    602   1      0.1090 284512.0000
    574    575   1      0.1529 224262.4000
    574    603   1      0.1090 284512.0000
    574    604   1      0.1090 284512.0000
    575    576   1      0.1529 224262.4000
    575    605   1      0.1090 284512.0000
    575    606   1      0.1090 284512.0000
    576    577   1      0.1410 267776.0000
    576    607   1      0.1090 284512.0000
    576    608   1      0.1090 284512.0000
    577    578   1      0.1327 179075.2000
    578    579   1      0.1229 476976.0000
    578    580   1      0.1470 259408.0000
    580    581   1      0.1400 392459.2000
    580    588   1      0.1400 392459.2000
    581    582   1      0.1400 392459.2000
    581    609   1      0.1080 307105.6000
    582    583   1      0.1400 392459.2000
    582    610   1      0.1080 307105.6000
    583    584   1      0.1470 259408.0000
    583    587   1      0.1400 392459.2000
    584    585   1      0.1229 476976.0000
    584    586   1      0.1327 179075.2000
    586    613   1      0.1492 205016.0000
    587    588   1      0.1400 392459.2000
    587    611   1      0.1080 307105.6000
    588    612   1      0.1080 307105.6000
    613    614   1      0.1410 267776.0000
    614    615   1      0.1529 224262.4000
    614    636   1      0.1090 284512.0000
    614    637   1      0.1090 284512.0000
    615    616   1      0.1529 224262.4000
    615    638   1      0.1090 284512.0000
    615    639   1      0.1090 284512.0000
    616    617   1      0.1529 224262.4000
    616    640   1      0.1090 284512.0000
    616    641   1      0.1090 284512.0000
    617    618   1      0.1529 224262.4000
    617    642   1      0.1090 284512.0000
    617    643   1      0.1090 284512.0000
    618    619   1      0.1529 224262.4000
    618    644   1      0.1090 284512.0000
    618    645   1      0.1090 284512.0000
    619    620   1      0.1529 224262.4000
    619    646   1      0.1090 284512.0000
    619    647   1      0.1090 284512.0000
    620    621   1      0.1529 224262.4000
    620    648   1      0.1090 284512.0000
    620    649   1      0.1090 284512.0000
    621    622   1      0.1529 224262.4000
    621    650   1      0.1090 284512.0000
    621    651   1      0.1090 284512.0000
    622    623   1      0.1529 224262.4000
    622    652   1      0.1090 284512.0000
    622    653   1      0.1090 284512.0000
    623    624   1      0.1410 267776.0000
    623    654   1      0.1090 284512.0000
    623    655   1      0.1090 284512.0000
    624    625   1      0.1327 179075.2000
    625    626   1      0.1229 476976.0000
    625    627   1      0.1470 259408.0000
    627    628   1      0.1400 392459.2000
    627    635   1      0.1400 392459.2000
    628    629   1      0.1400 392459.2000
    628    656   1      0.1080 307105.6000
    629    630   1      0.1400 392459.2000
    629    657   1      0.1080 307105.6000
    630    631   1      0.1470 259408.0000
    630    634   1      0.1400 392459.2000
    631    632   1      0.1229 476976.0000
    631    633   1      0.1327 179075.2000
    633    660   1      0.1492 205016.0000
    634    635   1      0.1400 392459.2000
    634    658   1      0.1080 307105.6000
    635    659   1      0.1080 307105.6000
    660    661   1      0.1410 267776.0000
    661    662   1      0.1529 224262.4000
    661    683   1      0.1090 284512.0000
    661    684   1      0.1090 284512.0000
    662    663   1      0.1529 224262.4000
    662    685   1      0.1090 284512.0000
    662    686   1      0.1090 284512.0000
    663    664   1      0.1529 224262.4000
    663    687   1      0.1090 284512.0000
    663    688   1      0.1090 284512.0000
    664    665   1      0.1529 224262.4000
    664    689   1      0.1090 284512.0000
    664    690   1      0.1090 284512.0000
    665    666   1      0.1529 224262.4000
    665    691   1      0.1090 284512.0000
    665    692   1      0.1090 284512.0000
    666    667   1      0.1529 224262.4000
    666    693   1      0.1090 284512.0000
    666    694   1      0.1090 284512.0000
    667    668   1      0.1529 224262.4000
    667    695   1      0.1090 284512.0000
    667    696   1      0.1090 284512.0000
    668    669   1      0.1529 224262.4000
    668    697   1      0.1090 284512.0000
    668    698   1      0.1090 284512.0000
    669    670   1      0.1529 224262.4000
    669    699   1      0.1090 284512.0000
    669    700   1      0.1090 284512.0000
    670    671   1      0.1410 267776.0000
    670    701   1      0.1090 284512.0000
    670    702   1      0.1090 284512.0000
    671    672   1      0.1327 179075.2000
    672    673   1      0.1229 476976.0000
    672    674   1      0.1470 259408.0000
    674    675   1      0.1400 392459.2000
    674    682   1      0.1400 392459.2000
    675    676   1      0.1400 392459.2000
    675    703   1      0.1080 307105.6000
    676    677   1      0.1400 392459.2000
    676    704   1      0.1080 307105.6000
    677    678   1      0.1470 259408.0000
    677    681   1      0.1400 392459.2000
    678    679   1      0.1229 476976.0000
    678    680   1      0.1327 179075.2000
    680    707   1      0.1492 205016.0000
    681    682   1      0.1400 392459.2000
    681    705   1      0.1080 307105.6000
    682    706   1      0.1080 307105.6000
    707    708   1      0.1410 267776.0000
    708    709   1      0.1529 224262.4000
    708    730   1      0.1090 284512.0000
    708    731   1      0.1090 284512.0000
    709    710   1      0.1529 224262.4000
    709    732   1      0.1090 284512.0000
    709    733   1      0.1090 284512.0000
    710    711   1      0.1529 224262.4000
    710    734   1      0.1090 284512.0000
    710    735   1      0.1090 284512.0000
    711    712   1      0.1529 224262.4000
    711    736   1      0.1090 284512.0000
    711    737   1      0.1090 284512.0000
    712    713   1      0.1529 224262.4000
    712    738   1      0.1090 284512.0000
    712    739   1      0.1090 284512.0000
    713    714   1      0.1529 224262.4000
    713    740   1      0.1090 284512.0000
    713    741   1      0.1090 284512.0000
    714    715   1      0.1529 224262.4000
    714    742   1      0.1090 284512.0000
    714    743   1      0.1090 284512.0000
    715    716   1      0.1529 224262.4000
    715    744   1      0.1090 284512.0000
    715    745   1      0.1090 284512.0000
    716    717   1      0.1529 224262.4000
    716    746   1      0.1090 284512.0000
    716    747   1      0.1090 284512.0000
    717    718   1      0.1410 267776.0000
    717    748   1      0.1090 284512.0000
    717    749   1      0.1090 284512.0000
    718    719   1      0.1327 179075.2000
    719    720   1      0.1229 476976.0000
    719    721   1      0.1470 259408.0000
    721    722   1      0.1400 392459.2000
    721    729   1      0.1400 392459.2000
    722    723   1      0.1400 392459.2000
    722    750   1      0.1080 307105.6000
    723    724   1      0.1400 392459.2000
    723    751   1      0.1080 307105.6000
    724    725   1      0.1470 259408.0000
    724    728   1      0.1400 392459.2000
    725    726   1      0.1229 476976.0000
    725    727   1      0.1327 179075.2000
    727    754   1      0.1492 205016.0000
    728    729   1      0.1400 392459.2000
    728    752   1      0.1080 307105.6000
    729    753   1      0.1080 307105.6000
    754    755   1      0.1410 267776.0000
    755    756   1      0.1529 224262.4000
    755    777   1      0.1090 284512.0000
    755    778   1      0.1090 284512.0000
    756    757   1      0.1529 224262.4000
    756    779   1      0.1090 284512.0000
    756    780   1      0.1090 284512.0000
    757    758   1      0.1529 224262.4000
    757    781   1      0.1090 284512.0000
    757    782   1      0.1090 284512.0000
    758    759   1      0.1529 224262.4000
    758    783   1      0.1090 284512.0000
    758    784   1      0.1090 284512.0000
    759    760   1      0.1529 224262.4000
    759    785   1      0.1090 284512.0000
    759    786   1      0.1090 284512.0000
    760    761   1      0.1529 224262.4000
    760    787   1      0.1090 284512.0000
    760    788   1      0.1090 284512.0000
    761    762   1      0.1529 224262.4000
    761    789   1      0.1090 284512.0000
    761    790   1      0.1090 284512.0000
    762    763   1      0.1529 224262.4000
    762    791   1      0.1090 284512.0000
    762    792   1      0.1090 284512.0000
    763    764   1      0.1529 224262.4000
    763    793   1      0.1090 284512.0000
    763    794   1      0.1090 284512.0000
    764    765   1      0.1410 267776.0000
    764    795   1      0.1090 284512.0000
    764    796   1      0.1090 284512.0000
    765    766   1      0.1327 179075.2000
    766    767   1      0.1229 476976.0000
    766    768   1      0.1470 259408.0000
    768    769   1      0.1400 392459.2000
    768    776   1      0.1400 392459.2000
    769    770   1      0.1400 392459.2000
    769    797   1      0.1080 307105.6000
    770    771   1      0.1400 392459.2000
    770    798   1      0.1080 307105.6000
    771    772   1      0.1470 259408.0000
    771    775   1      0.1400 392459.2000
    772    773   1      0.1229 476976.0000
    772    774   1      0.1327 179075.2000
    774    801   1      0.1492 205016.0000
    775    776   1      0.1400 392459.2000
    775    799   1      0.1080 307105.6000
    776    800   1      0.1080 307105.6000
    801    802   1      0.1410 267776.0000
    802    803   1      0.1529 224262.4000
    802    824   1      0.1090 284512.0000
    802    825   1      0.1090 284512.0000
    803    804   1      0.1529 224262.4000
    803    826   1      0.1090 284512.0000
    803    827   1      0.1090 284512.0000
    804    805   1      0.1529 224262.4000
    804    828   1      0.1090 284512.0000
    804    829   1      0.1090 284512.0000
    805    806   1      0.1529 224262.4000
    805    830   1      0.1090 284512.0000
    805    831   1      0.1090 284512.0000
    806    807   1      0.1529 224262.4000
    806    832   1      0.1090 284512.0000
    806    833   1      0.1090 284512.0000
    807    808   1      0.1529 224262.4000
    807    834   1      0.1090 284512.0000
    807    835   1      0.1090 284512.0000
    808    809   1      0.1529 224262.4000
    808    836   1      0.1090 284512.0000
    808    837   1      0.1090 284512.0000
    809    810   1      0.1529 224262.4000
    809    838   1      0.1090 284512.0000
    809    839   1      0.1090 284512.0000
    810    811   1      0.1529 224262.4000
    810    840   1      0.1090 284512.0000
    810    841   1      0.1090 284512.0000
    811    812   1      0.1410 267776.0000
    811    842   1      0.1090 284512.0000
    811    843   1      0.1090 284512.0000
    812    813   1      0.1327 179075.2000
    813    814   1      0.1229 476976.0000
    813    815   1      0.1470 259408.0000
    815    816   1      0.1400 392459.2000
    815    823   1      0.1400 392459.2000
    816    817   1      0.1400 392459.2000
    816    844   1      0.1080 307105.6000
    817    818   1      0.1400 392459.2000
    817    845   1      0.1080 307105.6000
    818    819   1      0.1470 259408.0000
    818    822   1      0.1400 392459.2000
    819    820   1      0.1229 476976.0000
    819    821   1      0.1327 179075.2000
    821    848   1      0.1492 205016.0000
    822    823   1      0.1400 392459.2000
    822    846   1      0.1080 307105.6000
    823    847   1      0.1080 307105.6000
    848    849   1      0.1410 267776.0000
    849    850   1      0.1529 224262.4000
    849    871   1      0.1090 284512.0000
    849    872   1      0.1090 284512.0000
    850    851   1      0.1529 224262.4000
    850    873   1      0.1090 284512.0000
    850    874   1      0.1090 284512.0000
    851    852   1      0.1529 224262.4000
    851    875   1      0.1090 284512.0000
    851    876   1      0.1090 284512.0000
    852    853   1      0.1529 224262.4000
    852    877   1      0.1090 284512.0000
    852    878   1      0.1090 284512.0000
    853    854   1      0.1529 224262.4000
    853    879   1      0.1090 284512.0000
    853    880   1      0.1090 284512.0000
    854    855   1      0.1529 224262.4000
    854    881   1      0.1090 284512.0000
    854    882   1      0.1090 284512.0000
    855    856   1      0.1529 224262.4000
    855    883   1      0.1090 284512.0000
    855    884   1      0.1090 284512.0000
    856    857   1      0.1529 224262.4000
    856    885   1      0.1090 284512.0000
    856    886   1      0.1090 284512.0000
    857    858   1      0.1529 224262.4000
    857    887   1      0.1090 284512.0000
    857    888   1      0.1090 284512.0000
    858    859   1      0.1410 267776.0000
    858    889   1      0.1090 284512.0000
    858    890   1      0.1090 284512.0000
    859    860   1      0.1327 179075.2000
    860    861   1      0.1229 476976.0000
    860    862   1      0.1470 259408.0000
    862    863   1      0.1400 392459.2000
    862    870   1      0.1400 392459.2000
    863    864   1      0.1400 392459.2000
    863    891   1      0.1080 307105.6000
    864    865   1      0.1400 392459.2000
    864    892   1      0.1080 307105.6000
    865    866   1      0.1470 259408.0000
    865    869   1      0.1400 392459.2000
    866    867   1      0.1229 476976.0000
    866    868   1      0.1327 179075.2000
    868    895   1      0.1492 205016.0000
    869    870   1      0.1400 392459.2000
    869    893   1      0.1080 307105.6000
    870    894   1      0.1080 307105.6000
    895    896   1      0.1410 267776.0000
    896    897   1      0.1529 224262.4000
    896    918   1      0.1090 284512.0000
    896    919   1      0.1090 284512.0000
    897    898   1      0.1529 224262.4000
    897    920   1      0.1090 284512.0000
    897    921   1      0.1090 284512.0000
    898    899   1      0.1529 224262.4000
    898    922   1      0.1090 284512.0000
    898    923   1      0.1090 284512.0000
    899    900   1      0.1529 224262.4000
    899    924   1      0.1090 284512.0000
    899    925   1      0.1090 284512.0000
    900    901   1      0.1529 224262.4000
    900    926   1      0.1090 284512.0000
    900    927   1      0.1090 284512.0000
    901    902   1      0.1529 224262.4000
    901    928   1      0.1090 284512.0000
    901    929   1      0.1090 284512.0000
    902    903   1      0.1529 224262.4000
    902    930   1      0.1090 284512.0000
    902    931   1      0.1090 284512.0000
    903    904   1      0.1529 224262.4000
    903    932   1      0.1090 284512.0000
    903    933   1      0.1090 284512.0000
    904    905   1      0.1529 224262.4000
    904    934   1      0.1090 284512.0000
    904    935   1      0.1090 284512.0000
    905    906   1      0.1410 267776.0000
    905    936   1      0.1090 284512.0000
    905    937   1      0.1090 284512.0000
    906    907   1      0.1327 179075.2000
    907    908   1      0.1229 476976.0000
    907    909   1      0.1470 259408.0000
    909    910   1      0.1400 392459.2000
    909    917   1      0.1400 392459.2000
    910    911   1      0.1400 392459.2000
    910    938   1      0.1080 307105.6000
    911    912   1      0.1400 392459.2000
    911    939   1      0.1080 307105.6000
    912    913   1      0.1490 334720.0000
    912    916   1      0.1400 392459.2000
    913    914   1      0.1229 476976.0000
    913    915   1      0.1364 376560.0000
    915    942   1      0.0945 462750.4000
    916    917   1      0.1400 392459.2000
    916    940   1      0.1080 307105.6000
    917    941   1      0.1080 307105.6000

[ pairs ]
; ai   aj   funct   fudge_QQ  charge_i   charge_j   c6    c12
     48      3   2   0.50000     0.4180000   -0.1200000   1.995577e-06  1.069504e-11
     48     24   2   0.50000     0.4180000    0.0600000   4.903125e-07  9.576416e-13
     48     25   2   0.50000     0.4180000    0.0600000   4.903125e-07  9.576416e-13
      1      4   2   0.50000    -0.6830000   -0.1200000   1.154213e-03  1.502983e-06
      1     26   2   0.50000    -0.6830000    0.0600000   2.835898e-04  1.345781e-07
      1     27   2   0.50000    -0.6830000    0.0600000   2.835898e-04  1.345781e-07
     24      4   2   0.50000     0.0600000   -0.1200000   2.494471e-04  1.671101e-07
     24     26   2   0.50000     0.0600000    0.0600000   6.128906e-05  1.496315e-08
     24     27   2   0.50000     0.0600000    0.0600000   6.128906e-05  1.496315e-08
     25      4   2   0.50000     0.0600000   -0.1200000   2.494471e-04  1.671101e-07
     25     26   2   0.50000     0.0600000    0.0600000   6.128906e-05  1.496315e-08
     25     27   2   0.50000     0.0600000    0.0600000   6.128906e-05  1.496315e-08
      2      5   2   0.50000     0.1450000   -0.1200000   1.015252e-03  1.866303e-06
      2     28   2   0.50000     0.1450000    0.0600000   2.494471e-04  1.671101e-07
      2     29   2   0.50000     0.1450000    0.0600000   2.494471e-04  1.671101e-07
     26      5   2   0.50000     0.0600000   -0.1200000   2.494471e-04  1.671101e-07
     26     28   2   0.50000     0.0600000    0.0600000   6.128906e-05  1.496315e-08
     26     29   2   0.50000     0.0600000    0.0600000   6.128906e-05  1.496315e-08
     27      5   2   0.50000     0.0600000   -0.1200000   2.494471e-04  1.671101e-07
     27     28   2   0.50000     0.0600000    0.0600000   6.128906e-05  1.496315e-08
     27     29   2   0.50000     0.0600000    0.0600000   6.128906e-05  1.496315e-08
      3      6   2   0.50000    -0.1200000   -0.1200000   1.015252e-03  1.866303e-06
      3     30   2   0.50000    -0.1200000    0.0600000   2.494471e-04  1.671101e-07
      3     31   2   0.50000    -0.1200000    0.0600000   2.494471e-04  1.671101e-07
     28      6   2   0.50000     0.0600000   -0.1200000   2.494471e-04  1.671101e-07
     28     30   2   0.50000     0.0600000    0.0600000   6.128906e-05  1.496315e-08
     28     31   2   0.50000     0.0600000    0.0600000   6.128906e-05  1.496315e-08
     29      6   2   0.50000     0.0600000   -0.1200000   2.494471e-04  1.671101e-07
     29     30   2   0.50000     0.0600000    0.0600000   6.128906e-05  1.496315e-08
     29     31   2   0.50000     0.0600000    0.0600000   6.128906e-05  1.496315e-08
      4      7   2   0.50000    -0.1200000   -0.1200000   1.015252e-03  1.866303e-06
      4     32   2   0.50000    -0.1200000    0.0600000   2.494471e-04  1.671101e-07
      4     33   2   0.50000    -0.1200000    0.0600000   2.494471e-04  1.671101e-07
     30      7   2   0.50000     0.0600000   -0.1200000   2.494471e-04  1.671101e-07
     30     32   2   0.50000     0.0600000    0.0600000   6.128906e-05  1.496315e-08
     30     33   2   0.50000     0.0600000    0.0600000   6.128906e-05  1.496315e-08
     31      7   2   0.50000     0.0600000   -0.1200000   2.494471e-04  1.671101e-07
     31     32   2   0.50000     0.0600000    0.0600000   6.128906e-05  1.496315e-08
     31     33   2   0.50000     0.0600000    0.0600000   6.128906e-05  1.496315e-08
      5      8   2   0.50000    -0.1200000   -0.1200000   1.015252e-03  1.866303e-06
      5     34   2   0.50000    -0.1200000    0.0600000   2.494471e-04  1.671101e-07
      5     35   2   0.50000    -0.1200000    0.0600000   2.494471e-04  1.671101e-07
     32      8   2   0.50000     0.0600000   -0.1200000   2.494471e-04  1.671101e-07
     32     34   2   0.50000     0.0600000    0.0600000   6.128906e-05  1.496315e-08
     32     35   2   0.50000     0.0600000    0.0600000   6.128906e-05  1.496315e-08
     33      8   2   0.50000     0.0600000   -0.1200000   2.494471e-04  1.671101e-07
     33     34   2   0.50000     0.0600000    0.0600000   6.128906e-05  1.496315e-08
     33     35   2   0.50000     0.0600000    0.0600000   6.128906e-05  1.496315e-08
      6      9   2   0.50000    -0.1200000   -0.1200000   1.015252e-03  1.866303e-06
      6     36   2   0.50000    -0.1200000    0.0600000   2.494471e-04  1.671101e-07
      6     37   2   0.50000    -0.1200000    0.0600000   2.494471e-04  1.671101e-07
     34      9   2   0.50000     0.0600000   -0.1200000   2.494471e-04  1.671101e-07
     34     36   2   0.50000     0.0600000    0.0600000   6.128906e-05  1.496315e-08
     34     37   2   0.50000     0.0600000    0.0600000   6.128906e-05  1.496315e-08
     35      9   2   0.50000     0.0600000   -0.1200000   2.494471e-04  1.671101e-07
     35     36   2   0.50000     0.0600000    0.0600000   6.128906e-05  1.496315e-08
     35     37   2   0.50000     0.0600000    0.0600000   6.128906e-05  1.496315e-08
      7     10   2   0.50000    -0.1200000   -0.1200000   1.015252e-03  1.866303e-06
      7     38   2   0.50000    -0.1200000    0.0600000   2.494471e-04  1.671101e-07
      7     39   2   0.50000    -0.1200000    0.0600000   2.494471e-04  1.671101e-07
     36     10   2   0.50000     0.0600000   -0.1200000   2.494471e-04  1.671101e-07
     36     38   2   0.50000     0.0600000    0.0600000   6.128906e-05  1.496315e-08
     36     39   2   0.50000     0.0600000    0.0600000   6.128906e-05  1.496315e-08
     37     10   2   0.50000     0.0600000   -0.1200000   2.494471e-04  1.671101e-07
     37     38   2   0.50000     0.0600000    0.0600000   6.128906e-05  1.496315e-08
     37     39   2   0.50000     0.0600000    0.0600000   6.128906e-05  1.496315e-08
      8     11   2   0.50000    -0.1200000    0.1900000   1.015252e-03  1.866303e-06
      8     40   2   0.50000    -0.1200000    0.0600000   2.494471e-04  1.671101e-07
      8     41   2   0.50000    -0.1200000    0.0600000   2.494471e-04  1.671101e-07
     38     11   2   0.50000     0.0600000    0.1900000   2.494471e-04  1.671101e-07
     38     40   2   0.50000     0.0600000    0.0600000   6.128906e-05  1.496315e-08
     38     41   2   0.50000     0.0600000    0.0600000   6.128906e-05  1.496315e-08
     39     11   2   0.50000     0.0600000    0.1900000   2.494471e-04  1.671101e-07
     39     40   2   0.50000     0.0600000    0.0600000   6.128906e-05  1.496315e-08
     39     41   2   0.50000     0.0600000    0.0600000   6.128906e-05  1.496315e-08
      9     12   2   0.50000    -0.1200000   -0.3300000   1.026091e-03  1.187829e-06
      9     42   2   0.50000    -0.1200000    0.0300000   1.599888e-04  9.721644e-08
      9     43   2   0.50000    -0.1200000    0.0300000   1.599888e-04  9.721644e-08
     40     12   2   0.50000     0.0600000   -0.3300000   2.521103e-04  1.063590e-07
     40     42   2   0.50000     0.0600000    0.0300000   3.930919e-05  8.704828e-09
     40     43   2   0.50000     0.0600000    0.0300000   3.930919e-05  8.704828e-09
     41     12   2   0.50000     0.0600000   -0.3300000   2.521103e-04  1.063590e-07
     41     42   2   0.50000     0.0600000    0.0300000   3.930919e-05  8.704828e-09
     41     43   2   0.50000     0.0600000    0.0300000   3.930919e-05  8.704828e-09
     10     13   2   0.50000    -0.1200000    0.6250000   1.575021e-03  3.561100e-06
     42     13   2   0.50000     0.0300000    0.6250000   2.482000e-04  1.854991e-07
     43     13   2   0.50000     0.0300000    0.6250000   2.482000e-04  1.854991e-07
     11     14   2   0.50000     0.1900000   -0.4300000   1.095425e-03  1.218041e-06
     11     15   2   0.50000     0.1900000   -0.1150000   1.091018e-03  2.092768e-06
     12     16   2   0.50000    -0.3300000   -0.1150000   1.102666e-03  1.331965e-06
     12     23   2   0.50000    -0.3300000   -0.1150000   1.102666e-03  1.331965e-06
     14     16   2   0.50000    -0.4300000   -0.1150000   1.177174e-03  1.365843e-06
     14     23   2   0.50000    -0.4300000   -0.1150000   1.177174e-03  1.365843e-06
     13     17   2   0.50000     0.6250000   -0.1150000   1.692561e-03  3.993218e-06
     13     44   2   0.50000     0.6250000    0.1150000   3.510079e-04  2.623353e-07
     23     17   2   0.50000    -0.1150000   -0.1150000   1.172438e-03  2.346713e-06
     23     44   2   0.50000    -0.1150000    0.1150000   2.431434e-04  1.541678e-07
     13     22   2   0.50000     0.6250000   -0.1150000   1.692561e-03  3.993218e-06
     13     47   2   0.50000     0.6250000    0.1150000   3.510079e-04  2.623353e-07
     16     22   2   0.50000    -0.1150000   -0.1150000   1.172438e-03  2.346713e-06
     16     47   2   0.50000    -0.1150000    0.1150000   2.431434e-04  1.541678e-07
     15     18   2   0.50000    -0.1150000   -0.1150000   1.172438e-03  2.346713e-06
     15     45   2   0.50000    -0.1150000    0.1150000   2.431434e-04  1.541678e-07
     44     18   2   0.50000     0.1150000   -0.1150000   2.431434e-04  1.541678e-07
     44     45   2   0.50000     0.1150000    0.1150000   5.042375e-05  1.012808e-08
     16     19   2   0.50000    -0.1150000    0.6250000   1.692561e-03  3.993218e-06
     45     19   2   0.50000     0.1150000    0.6250000   3.510079e-04  2.623353e-07
     45     22   2   0.50000     0.1150000   -0.1150000   2.431434e-04  1.541678e-07
     17     20   2   0.50000    -0.1150000   -0.4300000   1.177174e-03  1.365843e-06
     17     21   2   0.50000    -0.1150000   -0.0800000   1.102666e-03  1.331965e-06
     22     20   2   0.50000    -0.1150000   -0.4300000   1.177174e-03  1.365843e-06
     22     21   2   0.50000    -0.1150000   -0.0800000   1.102666e-03  1.331965e-06
     17     46   2   0.50000    -0.1150000    0.1150000   2.431434e-04  1.541678e-07
     19     23   2   0.50000     0.6250000   -0.1150000   1.692561e-03  3.993218e-06
     19     46   2   0.50000     0.6250000    0.1150000   3.510079e-04  2.623353e-07
     18     49   2   0.50000    -0.1150000   -0.2000000   9.038862e-04  9.862632e-07
     20     49   2   0.50000    -0.4300000   -0.2000000   9.075373e-04  5.740287e-07
     19     50   2   0.50000     0.6250000    0.0800000   1.575021e-03  3.561100e-06
     18     47   2   0.50000    -0.1150000    0.1150000   2.431434e-04  1.541678e-07
     46     15   2   0.50000     0.1150000   -0.1150000   2.431434e-04  1.541678e-07
     46     47   2   0.50000     0.1150000    0.1150000   5.042375e-05  1.012808e-08
     21     51   2   0.50000    -0.0800000   -0.1200000   1.026091e-03  1.187829e-06
     21     72   2   0.50000    -0.0800000    0.0600000   2.521103e-04  1.063590e-07
     21     73   2   0.50000    -0.0800000    0.0600000   2.521103e-04  1.063590e-07
     49     52   2   0.50000    -0.2000000   -0.1200000   8.411158e-04  8.795366e-07
     49     74   2   0.50000    -0.2000000    0.0600000   2.066619e-04  7.875431e-08
     49     75   2   0.50000    -0.2000000    0.0600000   2.066619e-04  7.875431e-08
     72     52   2   0.50000     0.0600000   -0.1200000   2.494471e-04  1.671101e-07
     72     74   2   0.50000     0.0600000    0.0600000   6.128906e-05  1.496315e-08
     72     75   2   0.50000     0.0600000    0.0600000   6.128906e-05  1.496315e-08
     73     52   2   0.50000     0.0600000   -0.1200000   2.494471e-04  1.671101e-07
     73     74   2   0.50000     0.0600000    0.0600000   6.128906e-05  1.496315e-08
     73     75   2   0.50000     0.0600000    0.0600000   6.128906e-05  1.496315e-08
     50     53   2   0.50000     0.0800000   -0.1200000   1.015252e-03  1.866303e-06
     50     76   2   0.50000     0.0800000    0.0600000   2.494471e-04  1.671101e-07
     50     77   2   0.50000     0.0800000    0.0600000   2.494471e-04  1.671101e-07
     74     53   2   0.50000     0.0600000   -0.1200000   2.494471e-04  1.671101e-07
     74     76   2   0.50000     0.0600000    0.0600000   6.128906e-05  1.496315e-08
     74     77   2   0.50000     0.0600000    0.0600000   6.128906e-05  1.496315e-08
     75     53   2   0.50000     0.0600000   -0.1200000   2.494471e-04  1.671101e-07
     75     76   2   0.50000     0.0600000    0.0600000   6.128906e-05  1.496315e-08
     75     77   2   0.50000     0.0600000    0.0600000   6.128906e-05  1.496315e-08
     51     54   2   0.50000    -0.1200000   -0.1200000   1.015252e-03  1.866303e-06
     51     78   2   0.50000    -0.1200000    0.0600000   2.494471e-04  1.671101e-07
     51     79   2   0.50000    -0.1200000    0.0600000   2.494471e-04  1.671101e-07
     76     54   2   0.50000     0.0600000   -0.1200000   2.494471e-04  1.671101e-07
     76     78   2   0.50000     0.0600000    0.0600000   6.128906e-05  1.496315e-08
     76     79   2   0.50000     0.0600000    0.0600000   6.128906e-05  1.496315e-08
     77     54   2   0.50000     0.0600000   -0.1200000   2.494471e-04  1.671101e-07
     77     78   2   0.50000     0.0600000    0.0600000   6.128906e-05  1.496315e-08
     77     79   2   0.50000     0.0600000    0.0600000   6.128906e-05  1.496315e-08
     52     55   2   0.50000    -0.1200000   -0.1200000   1.015252e-03  1.866303e-06
     52     80   2   0.50000    -0.1200000    0.0600000   2.494471e-04  1.671101e-07
     52     81   2   0.50000    -0.1200000    0.0600000   2.494471e-04  1.671101e-07
     78     55   2   0.50000     0.0600000   -0.1200000   2.494471e-04  1.671101e-07
     78     80   2   0.50000     0.0600000    0.0600000   6.128906e-05  1.496315e-08
     78     81   2   0.50000     0.0600000    0.0600000   6.128906e-05  1.496315e-08
     79     55   2   0.50000     0.0600000   -0.1200000   2.494471e-04  1.671101e-07
     79     80   2   0.50000     0.0600000    0.0600000   6.128906e-05  1.496315e-08
     79     81   2   0.50000     0.0600000    0.0600000   6.128906e-05  1.496315e-08
     53     56   2   0.50000    -0.1200000   -0.1200000   1.015252e-03  1.866303e-06
     53     82   2   0.50000    -0.1200000    0.0600000   2.494471e-04  1.671101e-07
     53     83   2   0.50000    -0.1200000    0.0600000   2.494471e-04  1.671101e-07
     80     56   2   0.50000     0.0600000   -0.1200000   2.494471e-04  1.671101e-07
     80     82   2   0.50000     0.0600000    0.0600000   6.128906e-05  1.496315e-08
     80     83   2   0.50000     0.0600000    0.0600000   6.128906e-05  1.496315e-08
     81     56   2   0.50000     0.0600000   -0.1200000   2.494471e-04  1.671101e-07
     81     82   2   0.50000     0.0600000    0.0600000   6.128906e-05  1.496315e-08
     81     83   2   0.50000     0.0600000    0.0600000   6.128906e-05  1.496315e-08
     54     57   2   0.50000    -0.1200000   -0.1200000   1.015252e-03  1.866303e-06
     54     84   2   0.50000    -0.1200000    0.0600000   2.494471e-04  1.671101e-07
     54     85   2   0.50000    -0.1200000    0.0600000   2.494471e-04  1.671101e-07
     82     57   2   0.50000     0.0600000   -0.1200000   2.494471e-04  1.671101e-07
     82     84   2   0.50000     0.0600000    0.0600000   6.128906e-05  1.496315e-08
     82     85   2   0.50000     0.0600000    0.0600000   6.128906e-05  1.496315e-08
     83     57   2   0.50000     0.0600000   -0.1200000   2.494471e-04  1.671101e-07
     83     84   2   0.50000     0.0600000    0.0600000   6.128906e-05  1.496315e-08
     83     85   2   0.50000     0.0600000    0.0600000   6.128906e-05  1.496315e-08
     55     58   2   0.50000    -0.1200000   -0.1200000   1.015252e-03  1.866303e-06
     55     86   2   0.50000    -0.1200000    0.0600000   2.494471e-04  1.671101e-07
     55     87   2   0.50000    -0.1200000    0.0600000   2.494471e-04  1.671101e-07
     84     58   2   0.50000     0.0600000   -0.1200000   2.494471e-04  1.671101e-07
     84     86   2   0.50000     0.0600000    0.0600000   6.128906e-05  1.496315e-08
     84     87   2   0.50000     0.0600000    0.0600000   6.128906e-05  1.496315e-08
     85     58   2   0.50000     0.0600000   -0.1200000   2.494471e-04  1.671101e-07
     85     86   2   0.50000     0.0600000    0.0600000   6.128906e-05  1.496315e-08
     85     87   2   0.50000     0.0600000    0.0600000   6.128906e-05  1.496315e-08
     56     59   2   0.50000    -0.1200000    0.1900000   1.015252e-03  1.866303e-06
     56     88   2   0.50000    -0.1200000    0.0600000   2.494471e-04  1.671101e-07
     56     89   2   0.50000    -0.1200000    0.0600000   2.494471e-04  1.671101e-07
     86     59   2   0.50000     0.0600000    0.1900000   2.494471e-04  1.671101e-07
     86     88   2   0.50000     0.0600000    0.0600000   6.128906e-05  1.496315e-08
     86     89   2   0.50000     0.0600000    0.0600000   6.128906e-05  1.496315e-08
     87     59   2   0.50000     0.0600000    0.1900000   2.494471e-04  1.671101e-07
     87     88   2   0.50000     0.0600000    0.0600000   6.128906e-05  1.496315e-08
     87     89   2   0.50000     0.0600000    0.0600000   6.128906e-05  1.496315e-08
     57     60   2   0.50000    -0.1200000   -0.3300000   1.026091e-03  1.187829e-06
     57     90   2   0.50000    -0.1200000    0.0300000   1.599888e-04  9.721644e-08
     57     91   2   0.50000    -0.1200000    0.0300000   1.599888e-04  9.721644e-08
     88     60   2   0.50000     0.0600000   -0.3300000   2.521103e-04  1.063590e-07
     88     90   2   0.50000     0.0600000    0.0300000   3.930919e-05  8.704828e-09
     88     91   2   0.50000     0.0600000    0.0300000   3.930919e-05  8.704828e-09
     89     60   2   0.50000     0.0600000   -0.3300000   2.521103e-04  1.063590e-07
     89     90   2   0.50000     0.0600000    0.0300000   3.930919e-05  8.704828e-09
     89     91   2   0.50000     0.0600000    0.0300000   3.930919e-05  8.704828e-09
     58     61   2   0.50000    -0.1200000    0.6250000   1.575021e-03  3.561100e-06
     90     61   2   0.50000     0.0300000    0.6250000   2.482000e-04  1.854991e-07
     91     61   2   0.50000     0.0300000    0.6250000   2.482000e-04  1.854991e-07
     59     62   2   0.50000     0.1900000   -0.4300000   1.095425e-03  1.218041e-06
     59     63   2   0.50000     0.1900000   -0.1150000   1.091018e-03  2.092768e-06
     60     64   2   0.50000    -0.3300000   -0.1150000   1.102666e-03  1.331965e-06
     60     71   2   0.50000    -0.3300000   -0.1150000   1.102666e-03  1.331965e-06
     62     64   2   0.50000    -0.4300000   -0.1150000   1.177174e-03  1.365843e-06
     62     71   2   0.50000    -0.4300000   -0.1150000   1.177174e-03  1.365843e-06
     61     65   2   0.50000     0.6250000   -0.1150000   1.692561e-03  3.993218e-06
     61     92   2   0.50000     0.6250000    0.1150000   3.510079e-04  2.623353e-07
     71     65   2   0.50000    -0.1150000   -0.1150000   1.172438e-03  2.346713e-06
     71     92   2   0.50000    -0.1150000    0.1150000   2.431434e-04  1.541678e-07
     61     70   2   0.50000     0.6250000   -0.1150000   1.692561e-03  3.993218e-06
     61     95   2   0.50000     0.6250000    0.1150000   3.510079e-04  2.623353e-07
     64     70   2   0.50000    -0.1150000   -0.1150000   1.172438e-03  2.346713e-06
     64     95   2   0.50000    -0.1150000    0.1150000   2.431434e-04  1.541678e-07
     63     66   2   0.50000    -0.1150000   -0.1150000   1.172438e-03  2.346713e-06
     63     93   2   0.50000    -0.1150000    0.1150000   2.431434e-04  1.541678e-07
     92     66   2   0.50000     0.1150000   -0.1150000   2.431434e-04  1.541678e-07
     92     93   2   0.50000     0.1150000    0.1150000   5.042375e-05  1.012808e-08
     64     67   2   0.50000    -0.1150000    0.6250000   1.692561e-03  3.993218e-06
     93     67   2   0.50000     0.1150000    0.6250000   3.510079e-04  2.623353e-07
     93     70   2   0.50000     0.1150000   -0.1150000   2.431434e-04  1.541678e-07
     65     68   2   0.50000    -0.1150000   -0.4300000   1.177174e-03  1.365843e-06
     65     69   2   0.50000    -0.1150000   -0.0800000   1.102666e-03  1.331965e-06
     70     68   2   0.50000    -0.1150000   -0.4300000   1.177174e-03  1.365843e-06
     70     69   2   0.50000    -0.1150000   -0.0800000   1.102666e-03  1.331965e-06
     65     94   2   0.50000    -0.1150000    0.1150000   2.431434e-04  1.541678e-07
     67     71   2   0.50000     0.6250000   -0.1150000   1.692561e-03  3.993218e-06
     67     94   2   0.50000     0.6250000    0.1150000   3.510079e-04  2.623353e-07
     66     96   2   0.50000    -0.1150000   -0.2000000   9.038862e-04  9.862632e-07
     68     96   2   0.50000    -0.4300000   -0.2000000   9.075373e-04  5.740287e-07
     67     97   2   0.50000     0.6250000    0.0800000   1.575021e-03  3.561100e-06
     66     95   2   0.50000    -0.1150000    0.1150000   2.431434e-04  1.541678e-07
     94     63   2   0.50000     0.1150000   -0.1150000   2.431434e-04  1.541678e-07
     94     95   2   0.50000     0.1150000    0.1150000   5.042375e-05  1.012808e-08
     69     98   2   0.50000    -0.0800000   -0.1200000   1.026091e-03  1.187829e-06
     69    119   2   0.50000    -0.0800000    0.0600000   2.521103e-04  1.063590e-07
     69    120   2   0.50000    -0.0800000    0.0600000   2.521103e-04  1.063590e-07
     96     99   2   0.50000    -0.2000000   -0.1200000   8.411158e-04  8.795366e-07
     96    121   2   0.50000    -0.2000000    0.0600000   2.066619e-04  7.875431e-08
     96    122   2   0.50000    -0.2000000    0.0600000   2.066619e-04  7.875431e-08
    119     99   2   0.50000     0.0600000   -0.1200000   2.494471e-04  1.671101e-07
    119    121   2   0.50000     0.0600000    0.0600000   6.128906e-05  1.496315e-08
    119    122   2   0.50000     0.0600000    0.0600000   6.128906e-05  1.496315e-08
    120     99   2   0.50000     0.0600000   -0.1200000   2.494471e-04  1.671101e-07
    120    121   2   0.50000     0.0600000    0.0600000   6.128906e-05  1.496315e-08
    120    122   2   0.50000     0.0600000    0.0600000   6.128906e-05  1.496315e-08
     97    100   2   0.50000     0.0800000   -0.1200000   1.015252e-03  1.866303e-06
     97    123   2   0.50000     0.0800000    0.0600000   2.494471e-04  1.671101e-07
     97    124   2   0.50000     0.0800000    0.0600000   2.494471e-04  1.671101e-07
    121    100   2   0.50000     0.0600000   -0.1200000   2.494471e-04  1.671101e-07
    121    123   2   0.50000     0.0600000    0.0600000   6.128906e-05  1.496315e-08
    121    124   2   0.50000     0.0600000    0.0600000   6.128906e-05  1.496315e-08
    122    100   2   0.50000     0.0600000   -0.1200000   2.494471e-04  1.671101e-07
    122    123   2   0.50000     0.0600000    0.0600000   6.128906e-05  1.496315e-08
    122    124   2   0.50000     0.0600000    0.0600000   6.128906e-05  1.496315e-08
     98    101   2   0.50000    -0.1200000   -0.1200000   1.015252e-03  1.866303e-06
     98    125   2   0.50000    -0.1200000    0.0600000   2.494471e-04  1.671101e-07
     98    126   2   0.50000    -0.1200000    0.0600000   2.494471e-04  1.671101e-07
    123    101   2   0.50000     0.0600000   -0.1200000   2.494471e-04  1.671101e-07
    123    125   2   0.50000     0.0600000    0.0600000   6.128906e-05  1.496315e-08
    123    126   2   0.50000     0.0600000    0.0600000   6.128906e-05  1.496315e-08
    124    101   2   0.50000     0.0600000   -0.1200000   2.494471e-04  1.671101e-07
    124    125   2   0.50000     0.0600000    0.0600000   6.128906e-05  1.496315e-08
    124    126   2   0.50000     0.0600000    0.0600000   6.128906e-05  1.496315e-08
     99    102   2   0.50000    -0.1200000   -0.1200000   1.015252e-03  1.866303e-06
     99    127   2   0.50000    -0.1200000    0.0600000   2.494471e-04  1.671101e-07
     99    128   2   0.50000    -0.1200000    0.0600000   2.494471e-04  1.671101e-07
    125    102   2   0.50000     0.0600000   -0.1200000   2.494471e-04  1.671101e-07
    125    127   2   0.50000     0.0600000    0.0600000   6.128906e-05  1.496315e-08
    125    128   2   0.50000     0.0600000    0.0600000   6.128906e-05  1.496315e-08
    126    102   2   0.50000     0.0600000   -0.1200000   2.494471e-04  1.671101e-07
    126    127   2   0.50000     0.0600000    0.0600000   6.128906e-05  1.496315e-08
    126    128   2   0.50000     0.0600000    0.0600000   6.128906e-05  1.496315e-08
    100    103   2   0.50000    -0.1200000   -0.1200000   1.015252e-03  1.866303e-06
    100    129   2   0.50000    -0.1200000    0.0600000   2.494471e-04  1.671101e-07
    100    130   2   0.50000    -0.1200000    0.0600000   2.494471e-04  1.671101e-07
    127    103   2   0.50000     0.0600000   -0.1200000   2.494471e-04  1.671101e-07
    127    129   2   0.50000     0.0600000    0.0600000   6.128906e-05  1.496315e-08
    127    130   2   0.50000     0.0600000    0.0600000   6.128906e-05  1.496315e-08
    128    103   2   0.50000     0.0600000   -0.1200000   2.494471e-04  1.671101e-07
    128    129   2   0.50000     0.0600000    0.0600000   6.128906e-05  1.496315e-08
    128    130   2   0.50000     0.0600000    0.0600000   6.128906e-05  1.496315e-08
    101    104   2   0.50000    -0.1200000   -0.1200000   1.015252e-03  1.866303e-06
    101    131   2   0.50000    -0.1200000    0.0600000   2.494471e-04  1.671101e-07
    101    132   2   0.50000    -0.1200000    0.0600000   2.494471e-04  1.671101e-07
    129    104   2   0.50000     0.0600000   -0.1200000   2.494471e-04  1.671101e-07
    129    131   2   0.50000     0.0600000    0.0600000   6.128906e-05  1.496315e-08
    129    132   2   0.50000     0.0600000    0.0600000   6.128906e-05  1.496315e-08
    130    104   2   0.50000     0.0600000   -0.1200000   2.494471e-04  1.671101e-07
    130    131   2   0.50000     0.0600000    0.0600000   6.128906e-05  1.496315e-08
    130    132   2   0.50000     0.0600000    0.0600000   6.128906e-05  1.496315e-08
    102    105   2   0.50000    -0.1200000   -0.1200000   1.015252e-03  1.866303e-06
    102    133   2   0.50000    -0.1200000    0.0600000   2.494471e-04  1.671101e-07
    102    134   2   0.50000    -0.1200000    0.0600000   2.494471e-04  1.671101e-07
    131    105   2   0.50000     0.0600000   -0.1200000   2.494471e-04  1.671101e-07
    131    133   2   0.50000     0.0600000    0.0600000   6.128906e-05  1.496315e-08
    131    134   2   0.50000     0.0600000    0.0600000   6.128906e-05  1.496315e-08
    132    105   2   0.50000     0.0600000   -0.1200000   2.494471e-04  1.671101e-07
    132    133   2   0.50000     0.0600000    0.0600000   6.128906e-05  1.496315e-08
    132    134   2   0.50000     0.0600000    0.0600000   6.128906e-05  1.496315e-08
    103    106   2   0.50000    -0.1200000    0.1900000   1.015252e-03  1.866303e-06
    103    135   2   0.50000    -0.1200000    0.0600000   2.494471e-04  1.671101e-07
    103    136   2   0.50000    -0.1200000    0.0600000   2.494471e-04  1.671101e-07
    133    106   2   0.50000     0.0600000    0.1900000   2.494471e-04  1.671101e-07
    133    135   2   0.50000     0.0600000    0.0600000   6.128906e-05  1.496315e-08
    133    136   2   0.50000     0.0600000    0.0600000   6.128906e-05  1.496315e-08
    134    106   2   0.50000     0.0600000    0.1900000   2.494471e-04  1.671101e-07
    134    135   2   0.50000     0.0600000    0.0600000   6.128906e-05  1.496315e-08
    134    136   2   0.50000     0.0600000    0.0600000   6.128906e-05  1.496315e-08
    104    107   2   0.50000    -0.1200000   -0.3300000   1.026091e-03  1.187829e-06
    104    137   2   0.50000    -0.1200000    0.0300000   1.599888e-04  9.721644e-08
    104    138   2   0.50000    -0.1200000    0.0300000   1.599888e-04  9.721644e-08
    135    107   2   0.50000     0.0600000   -0.3300000   2.521103e-04  1.063590e-07
    135    137   2   0.50000     0.0600000    0.0300000   3.930919e-05  8.704828e-09
    135    138   2   0.50000     0.0600000    0.0300000   3.930919e-05  8.704828e-09
    136    107   2   0.50000     0.0600000   -0.3300000   2.521103e-04  1.063590e-07
    136    137   2   0.50000     0.0600000    0.0300000   3.930919e-05  8.704828e-09
    136    138   2   0.50000     0.0600000    0.0300000   3.930919e-05  8.704828e-09
    105    108   2   0.50000    -0.1200000    0.6250000   1.575021e-03  3.561100e-06
    137    108   2   0.50000     0.0300000    0.6250000   2.482000e-04  1.854991e-07
    138    108   2   0.50000     0.0300000    0.6250000   2.482000e-04  1.854991e-07
    106    109   2   0.50000     0.1900000   -0.4300000   1.095425e-03  1.218041e-06
    106    110   2   0.50000     0.1900000   -0.1150000   1.091018e-03  2.092768e-06
    107    111   2   0.50000    -0.3300000   -0.1150000   1.102666e-03  1.331965e-06
    107    118   2   0.50000    -0.3300000   -0.1150000   1.102666e-03  1.331965e-06
    109    111   2   0.50000    -0.4300000   -0.1150000   1.177174e-03  1.365843e-06
    109    118   2   0.50000    -0.4300000   -0.1150000   1.177174e-03  1.365843e-06
    108    112   2   0.50000     0.6250000   -0.1150000   1.692561e-03  3.993218e-06
    108    139   2   0.50000     0.6250000    0.1150000   3.510079e-04  2.623353e-07
    118    112   2   0.50000    -0.1150000   -0.1150000   1.172438e-03  2.346713e-06
    118    139   2   0.50000    -0.1150000    0.1150000   2.431434e-04  1.541678e-07
    108    117   2   0.50000     0.6250000   -0.1150000   1.692561e-03  3.993218e-06
    108    142   2   0.50000     0.6250000    0.1150000   3.510079e-04  2.623353e-07
    111    117   2   0.50000    -0.1150000   -0.1150000   1.172438e-03  2.346713e-06
    111    142   2   0.50000    -0.1150000    0.1150000   2.431434e-04  1.541678e-07
    110    113   2   0.50000    -0.1150000   -0.1150000   1.172438e-03  2.346713e-06
    110    140   2   0.50000    -0.1150000    0.1150000   2.431434e-04  1.541678e-07
    139    113   2   0.50000     0.1150000   -0.1150000   2.431434e-04  1.541678e-07
    139    140   2   0.50000     0.1150000    0.1150000   5.042375e-05  1.012808e-08
    111    114   2   0.50000    -0.1150000    0.6250000   1.692561e-03  3.993218e-06
    140    114   2   0.50000     0.1150000    0.6250000   3.510079e-04  2.623353e-07
    140    117   2   0.50000     0.1150000   -0.1150000   2.431434e-04  1.541678e-07
    112    115   2   0.50000    -0.1150000   -0.4300000   1.177174e-03  1.365843e-06
    112    116   2   0.50000    -0.1150000   -0.0800000   1.102666e-03  1.331965e-06
    117    115   2   0.50000    -0.1150000   -0.4300000   1.177174e-03  1.365843e-06
    117    116   2   0.50000    -0.1150000   -0.0800000   1.102666e-03  1.331965e-06
    112    141   2   0.50000    -0.1150000    0.1150000   2.431434e-04  1.541678e-07
    114    118   2   0.50000     0.6250000   -0.1150000   1.692561e-03  3.993218e-06
    114    141   2   0.50000     0.6250000    0.1150000   3.510079e-04  2.623353e-07
    113    143   2   0.50000    -0.1150000   -0.2000000   9.038862e-04  9.862632e-07
    115    143   2   0.50000    -0.4300000   -0.2000000   9.075373e-04  5.740287e-07
    114    144   2   0.50000     0.6250000    0.0800000   1.575021e-03  3.561100e-06
    113    142   2   0.50000    -0.1150000    0.1150000   2.431434e-04  1.541678e-07
    141    110   2   0.50000     0.1150000   -0.1150000   2.431434e-04  1.541678e-07
    141    142   2   0.50000     0.1150000    0.1150000   5.042375e-05  1.012808e-08
    116    145   2   0.50000    -0.0800000   -0.1200000   1.026091e-03  1.187829e-06
    116    166   2   0.50000    -0.0800000    0.0600000   2.521103e-04  1.063590e-07
    116    167   2   0.50000    -0.0800000    0.0600000   2.521103e-04  1.063590e-07
    143    146   2   0.50000    -0.2000000   -0.1200000   8.411158e-04  8.795366e-07
    143    168   2   0.50000    -0.2000000    0.0600000   2.066619e-04  7.875431e-08
    143    169   2   0.50000    -0.2000000    0.0600000   2.066619e-04  7.875431e-08
    166    146   2   0.50000     0.0600000   -0.1200000   2.494471e-04  1.671101e-07
    166    168   2   0.50000     0.0600000    0.0600000   6.128906e-05  1.496315e-08
    166    169   2   0.50000     0.0600000    0.0600000   6.128906e-05  1.496315e-08
    167    146   2   0.50000     0.0600000   -0.1200000   2.494471e-04  1.671101e-07
    167    168   2   0.50000     0.0600000    0.0600000   6.128906e-05  1.496315e-08
    167    169   2   0.50000     0.0600000    0.0600000   6.128906e-05  1.496315e-08
    144    147   2   0.50000     0.0800000   -0.1200000   1.015252e-03  1.866303e-06
    144    170   2   0.50000     0.0800000    0.0600000   2.494471e-04  1.671101e-07
    144    171   2   0.50000     0.0800000    0.0600000   2.494471e-04  1.671101e-07
    168    147   2   0.50000     0.0600000   -0.1200000   2.494471e-04  1.671101e-07
    168    170   2   0.50000     0.0600000    0.0600000   6.128906e-05  1.496315e-08
    168    171   2   0.50000     0.0600000    0.0600000   6.128906e-05  1.496315e-08
    169    147   2   0.50000     0.0600000   -0.1200000   2.494471e-04  1.671101e-07
    169    170   2   0.50000     0.0600000    0.0600000   6.128906e-05  1.496315e-08
    169    171   2   0.50000     0.0600000    0.0600000   6.128906e-05  1.496315e-08
    145    148   2   0.50000    -0.1200000   -0.1200000   1.015252e-03  1.866303e-06
    145    172   2   0.50000    -0.1200000    0.0600000   2.494471e-04  1.671101e-07
    145    173   2   0.50000    -0.1200000    0.0600000   2.494471e-04  1.671101e-07
    170    148   2   0.50000     0.0600000   -0.1200000   2.494471e-04  1.671101e-07
    170    172   2   0.50000     0.0600000    0.0600000   6.128906e-05  1.496315e-08
    170    173   2   0.50000     0.0600000    0.0600000   6.128906e-05  1.496315e-08
    171    148   2   0.50000     0.0600000   -0.1200000   2.494471e-04  1.671101e-07
    171    172   2   0.50000     0.0600000    0.0600000   6.128906e-05  1.496315e-08
    171    173   2   0.50000     0.0600000    0.0600000   6.128906e-05  1.496315e-08
    146    149   2   0.50000    -0.1200000   -0.1200000   1.015252e-03  1.866303e-06
    146    174   2   0.50000    -0.1200000    0.0600000   2.494471e-04  1.671101e-07
    146    175   2   0.50000    -0.1200000    0.0600000   2.494471e-04  1.671101e-07
    172    149   2   0.50000     0.0600000   -0.1200000   2.494471e-04  1.671101e-07
    172    174   2   0.50000     0.0600000    0.0600000   6.128906e-05  1.496315e-08
    172    175   2   0.50000     0.0600000    0.0600000   6.128906e-05  1.496315e-08
    173    149   2   0.50000     0.0600000   -0.1200000   2.494471e-04  1.671101e-07
    173    174   2   0.50000     0.0600000    0.0600000   6.128906e-05  1.496315e-08
    173    175   2   0.50000     0.0600000    0.0600000   6.128906e-05  1.496315e-08
    147    150   2   0.50000    -0.1200000   -0.1200000   1.015252e-03  1.866303e-06
    147    176   2   0.50000    -0.1200000    0.0600000   2.494471e-04  1.671101e-07
    147    177   2   0.50000    -0.1200000    0.0600000   2.494471e-04  1.671101e-07
    174    150   2   0.50000     0.0600000   -0.1200000   2.494471e-04  1.671101e-07
    174    176   2   0.50000     0.0600000    0.0600000   6.128906e-05  1.496315e-08
    174    177   2   0.50000     0.0600000    0.0600000   6.128906e-05  1.496315e-08
    175    150   2   0.50000     0.0600000   -0.1200000   2.494471e-04  1.671101e-07
    175    176   2   0.50000     0.0600000    0.0600000   6.128906e-05  1.496315e-08
    175    177   2   0.50000     0.0600000    0.0600000   6.128906e-05  1.496315e-08
    148    151   2   0.50000    -0.1200000   -0.1200000   1.015252e-03  1.866303e-06
    148    178   2   0.50000    -0.1200000    0.0600000   2.494471e-04  1.671101e-07
    148    179   2   0.50000    -0.1200000    0.0600000   2.494471e-04  1.671101e-07
    176    151   2   0.50000     0.0600000   -0.1200000   2.494471e-04  1.671101e-07
    176    178   2   0.50000     0.0600000    0.0600000   6.128906e-05  1.496315e-08
    176    179   2   0.50000     0.0600000    0.0600000   6.128906e-05  1.496315e-08
    177    151   2   0.50000     0.0600000   -0.1200000   2.494471e-04  1.671101e-07
    177    178   2   0.50000     0.0600000    0.0600000   6.128906e-05  1.496315e-08
    177    179   2   0.50000     0.0600000    0.0600000   6.128906e-05  1.496315e-08
    149    152   2   0.50000    -0.1200000   -0.1200000   1.015252e-03  1.866303e-06
    149    180   2   0.50000    -0.1200000    0.0600000   2.494471e-04  1.671101e-07
    149    181   2   0.50000    -0.1200000    0.0600000   2.494471e-04  1.671101e-07
    178    152   2   0.50000     0.0600000   -0.1200000   2.494471e-04  1.671101e-07
    178    180   2   0.50000     0.0600000    0.0600000   6.128906e-05  1.496315e-08
    178    181   2   0.50000     0.0600000    0.0600000   6.128906e-05  1.496315e-08
    179    152   2   0.50000     0.0600000   -0.1200000   2.494471e-04  1.671101e-07
    179    180   2   0.50000     0.0600000    0.0600000   6.128906e-05  1.496315e-08
    179    181   2   0.50000     0.0600000    0.0600000   6.128906e-05  1.496315e-08
    150    153   2   0.50000    -0.1200000    0.1900000   1.015252e-03  1.866303e-06
    150    182   2   0.50000    -0.1200000    0.0600000   2.494471e-04  1.671101e-07
    150    183   2   0.50000    -0.1200000    0.0600000   2.494471e-04  1.671101e-07
    180    153   2   0.50000     0.0600000    0.1900000   2.494471e-04  1.671101e-07
    180    182   2   0.50000     0.0600000    0.0600000   6.128906e-05  1.496315e-08
    180    183   2   0.50000     0.0600000    0.0600000   6.128906e-05  1.496315e-08
    181    153   2   0.50000     0.0600000    0.1900000   2.494471e-04  1.671101e-07
    181    182   2   0.50000     0.0600000    0.0600000   6.128906e-05  1.496315e-08
    181    183   2   0.50000     0.0600000    0.0600000   6.128906e-05  1.496315e-08
    151    154   2   0.50000    -0.1200000   -0.3300000   1.026091e-03  1.187829e-06
    151    184   2   0.50000    -0.1200000    0.0300000   1.599888e-04  9.721644e-08
    151    185   2   0.50000    -0.1200000    0.0300000   1.599888e-04  9.721644e-08
    182    154   2   0.50000     0.0600000   -0.3300000   2.521103e-04  1.063590e-07
    182    184   2   0.50000     0.0600000    0.0300000   3.930919e-05  8.704828e-09
    182    185   2   0.50000     0.0600000    0.0300000   3.930919e-05  8.704828e-09
    183    154   2   0.50000     0.0600000   -0.3300000   2.521103e-04  1.063590e-07
    183    184   2   0.50000     0.0600000    0.0300000   3.930919e-05  8.704828e-09
    183    185   2   0.50000     0.0600000    0.0300000   3.930919e-05  8.704828e-09
    152    155   2   0.50000    -0.1200000    0.6250000   1.575021e-03  3.561100e-06
    184    155   2   0.50000     0.0300000    0.6250000   2.482000e-04  1.854991e-07
    185    155   2   0.50000     0.0300000    0.6250000   2.482000e-04  1.854991e-07
    153    156   2   0.50000     0.1900000   -0.4300000   1.095425e-03  1.218041e-06
    153    157   2   0.50000     0.1900000   -0.1150000   1.091018e-03  2.092768e-06
    154    158   2   0.50000    -0.3300000   -0.1150000   1.102666e-03  1.331965e-06
    154    165   2   0.50000    -0.3300000   -0.1150000   1.102666e-03  1.331965e-06
    156    158   2   0.50000    -0.4300000   -0.1150000   1.177174e-03  1.365843e-06
    156    165   2   0.50000    -0.4300000   -0.1150000   1.177174e-03  1.365843e-06
    155    159   2   0.50000     0.6250000   -0.1150000   1.692561e-03  3.993218e-06
    155    186   2   0.50000     0.6250000    0.1150000   3.510079e-04  2.623353e-07
    165    159   2   0.50000    -0.1150000   -0.1150000   1.172438e-03  2.346713e-06
    165    186   2   0.50000    -0.1150000    0.1150000   2.431434e-04  1.541678e-07
    155    164   2   0.50000     0.6250000   -0.1150000   1.692561e-03  3.993218e-06
    155    189   2   0.50000     0.6250000    0.1150000   3.510079e-04  2.623353e-07
    158    164   2   0.50000    -0.1150000   -0.1150000   1.172438e-03  2.346713e-06
    158    189   2   0.50000    -0.1150000    0.1150000   2.431434e-04  1.541678e-07
    157    160   2   0.50000    -0.1150000   -0.1150000   1.172438e-03  2.346713e-06
    157    187   2   0.50000    -0.1150000    0.1150000   2.431434e-04  1.541678e-07
    186    160   2   0.50000     0.1150000   -0.1150000   2.431434e-04  1.541678e-07
    186    187   2   0.50000     0.1150000    0.1150000   5.042375e-05  1.012808e-08
    158    161   2   0.50000    -0.1150000    0.6250000   1.692561e-03  3.993218e-06
    187    161   2   0.50000     0.1150000    0.6250000   3.510079e-04  2.623353e-07
    187    164   2   0.50000     0.1150000   -0.1150000   2.431434e-04  1.541678e-07
    159    162   2   0.50000    -0.1150000   -0.4300000   1.177174e-03  1.365843e-06
    159    163   2   0.50000    -0.1150000   -0.0800000   1.102666e-03  1.331965e-06
    164    162   2   0.50000    -0.1150000   -0.4300000   1.177174e-03  1.365843e-06
    164    163   2   0.50000    -0.1150000   -0.0800000   1.102666e-03  1.331965e-06
    159    188   2   0.50000    -0.1150000    0.1150000   2.431434e-04  1.541678e-07
    161    165   2   0.50000     0.6250000   -0.1150000   1.692561e-03  3.993218e-06
    161    188   2   0.50000     0.6250000    0.1150000   3.510079e-04  2.623353e-07
    160    190   2   0.50000    -0.1150000   -0.2000000   9.038862e-04  9.862632e-07
    162    190   2   0.50000    -0.4300000   -0.2000000   9.075373e-04  5.740287e-07
    161    191   2   0.50000     0.6250000    0.0800000   1.575021e-03  3.561100e-06
    160    189   2   0.50000    -0.1150000    0.1150000   2.431434e-04  1.541678e-07
    188    157   2   0.50000     0.1150000   -0.1150000   2.431434e-04  1.541678e-07
    188    189   2   0.50000     0.1150000    0.1150000   5.042375e-05  1.012808e-08
    163    192   2   0.50000    -0.0800000   -0.1200000   1.026091e-03  1.187829e-06
    163    213   2   0.50000    -0.0800000    0.0600000   2.521103e-04  1.063590e-07
    163    214   2   0.50000    -0.0800000    0.0600000   2.521103e-04  1.063590e-07
    190    193   2   0.50000    -0.2000000   -0.1200000   8.411158e-04  8.795366e-07
    190    215   2   0.50000    -0.2000000    0.0600000   2.066619e-04  7.875431e-08
    190    216   2   0.50000    -0.2000000    0.0600000   2.066619e-04  7.875431e-08
    213    193   2   0.50000     0.0600000   -0.1200000   2.494471e-04  1.671101e-07
    213    215   2   0.50000     0.0600000    0.0600000   6.128906e-05  1.496315e-08
    213    216   2   0.50000     0.0600000    0.0600000   6.128906e-05  1.496315e-08
    214    193   2   0.50000     0.0600000   -0.1200000   2.494471e-04  1.671101e-07
    214    215   2   0.50000     0.0600000    0.0600000   6.128906e-05  1.496315e-08
    214    216   2   0.50000     0.0600000    0.0600000   6.128906e-05  1.496315e-08
    191    194   2   0.50000     0.0800000   -0.1200000   1.015252e-03  1.866303e-06
    191    217   2   0.50000     0.0800000    0.0600000   2.494471e-04  1.671101e-07
    191    218   2   0.50000     0.0800000    0.0600000   2.494471e-04  1.671101e-07
    215    194   2   0.50000     0.0600000   -0.1200000   2.494471e-04  1.671101e-07
    215    217   2   0.50000     0.0600000    0.0600000   6.128906e-05  1.496315e-08
    215    218   2   0.50000     0.0600000    0.0600000   6.128906e-05  1.496315e-08
    216    194   2   0.50000     0.0600000   -0.1200000   2.494471e-04  1.671101e-07
    216    217   2   0.50000     0.0600000    0.0600000   6.128906e-05  1.496315e-08
    216    218   2   0.50000     0.0600000    0.0600000   6.128906e-05  1.496315e-08
    192    195   2   0.50000    -0.1200000   -0.1200000   1.015252e-03  1.866303e-06
    192    219   2   0.50000    -0.1200000    0.0600000   2.494471e-04  1.671101e-07
    192    220   2   0.50000    -0.1200000    0.0600000   2.494471e-04  1.671101e-07
    217    195   2   0.50000     0.0600000   -0.1200000   2.494471e-04  1.671101e-07
    217    219   2   0.50000     0.0600000    0.0600000   6.128906e-05  1.496315e-08
    217    220   2   0.50000     0.0600000    0.0600000   6.128906e-05  1.496315e-08
    218    195   2   0.50000     0.0600000   -0.1200000   2.494471e-04  1.671101e-07
    218    219   2   0.50000     0.0600000    0.0600000   6.128906e-05  1.496315e-08
    218    220   2   0.50000     0.0600000    0.0600000   6.128906e-05  1.496315e-08
    193    196   2   0.50000    -0.1200000   -0.1200000   1.015252e-03  1.866303e-06
    193    221   2   0.50000    -0.1200000    0.0600000   2.494471e-04  1.671101e-07
    193    222   2   0.50000    -0.1200000    0.0600000   2.494471e-04  1.671101e-07
    219    196   2   0.50000     0.0600000   -0.1200000   2.494471e-04  1.671101e-07
    219    221   2   0.50000     0.0600000    0.0600000   6.128906e-05  1.496315e-08
    219    222   2   0.50000     0.0600000    0.0600000   6.128906e-05  1.496315e-08
    220    196   2   0.50000     0.0600000   -0.1200000   2.494471e-04  1.671101e-07
    220    221   2   0.50000     0.0600000    0.0600000   6.128906e-05  1.496315e-08
    220    222   2   0.50000     0.0600000    0.0600000   6.128906e-05  1.496315e-08
    194    197   2   0.50000    -0.1200000   -0.1200000   1.015252e-03  1.866303e-06
    194    223   2   0.50000    -0.1200000    0.0600000   2.494471e-04  1.671101e-07
    194    224   2   0.50000    -0.1200000    0.0600000   2.494471e-04  1.671101e-07
    221    197   2   0.50000     0.0600000   -0.1200000   2.494471e-04  1.671101e-07
    221    223   2   0.50000     0.0600000    0.0600000   6.128906e-05  1.496315e-08
    221    224   2   0.50000     0.0600000    0.0600000   6.128906e-05  1.496315e-08
    222    197   2   0.50000     0.0600000   -0.1200000   2.494471e-04  1.671101e-07
    222    223   2   0.50000     0.0600000    0.0600000   6.128906e-05  1.496315e-08
    222    224   2   0.50000     0.0600000    0.0600000   6.128906e-05  1.496315e-08
    195    198   2   0.50000    -0.1200000   -0.1200000   1.015252e-03  1.866303e-06
    195    225   2   0.50000    -0.1200000    0.0600000   2.494471e-04  1.671101e-07
    195    226   2   0.50000    -0.1200000    0.0600000   2.494471e-04  1.671101e-07
    223    198   2   0.50000     0.0600000   -0.1200000   2.494471e-04  1.671101e-07
    223    225   2   0.50000     0.0600000    0.0600000   6.128906e-05  1.496315e-08
    223    226   2   0.50000     0.0600000    0.0600000   6.128906e-05  1.496315e-08
    224    198   2   0.50000     0.0600000   -0.1200000   2.494471e-04  1.671101e-07
    224    225   2   0.50000     0.0600000    0.0600000   6.128906e-05  1.496315e-08
    224    226   2   0.50000     0.0600000    0.0600000   6.128906e-05  1.496315e-08
    196    199   2   0.50000    -0.1200000   -0.1200000   1.015252e-03  1.866303e-06
    196    227   2   0.50000    -0.1200000    0.0600000   2.494471e-04  1.671101e-07
    196    228   2   0.50000    -0.1200000    0.0600000   2.494471e-04  1.671101e-07
    225    199   2   0.50000     0.0600000   -0.1200000   2.494471e-04  1.671101e-07
    225    227   2   0.50000     0.0600000    0.0600000   6.128906e-05  1.496315e-08
    225    228   2   0.50000     0.0600000    0.0600000   6.128906e-05  1.496315e-08
    226    199   2   0.50000     0.0600000   -0.1200000   2.494471e-04  1.671101e-07
    226    227   2   0.50000     0.0600000    0.0600000   6.128906e-05  1.496315e-08
    226    228   2   0.50000     0.0600000    0.0600000   6.128906e-05  1.496315e-08
    197    200   2   0.50000    -0.1200000    0.1900000   1.015252e-03  1.866303e-06
    197    229   2   0.50000    -0.1200000    0.0600000   2.494471e-04  1.671101e-07
    197    230   2   0.50000    -0.1200000    0.0600000   2.494471e-04  1.671101e-07
    227    200   2   0.50000     0.0600000    0.1900000   2.494471e-04  1.671101e-07
    227    229   2   0.50000     0.0600000    0.0600000   6.128906e-05  1.496315e-08
    227    230   2   0.50000     0.0600000    0.0600000   6.128906e-05  1.496315e-08
    228    200   2   0.50000     0.0600000    0.1900000   2.494471e-04  1.671101e-07
    228    229   2   0.50000     0.0600000    0.0600000   6.128906e-05  1.496315e-08
    228    230   2   0.50000     0.0600000    0.0600000   6.128906e-05  1.496315e-08
    198    201   2   0.50000    -0.1200000   -0.3300000   1.026091e-03  1.187829e-06
    198    231   2   0.50000    -0.1200000    0.0300000   1.599888e-04  9.721644e-08
    198    232   2   0.50000    -0.1200000    0.0300000   1.599888e-04  9.721644e-08
    229    201   2   0.50000     0.0600000   -0.3300000   2.521103e-04  1.063590e-07
    229    231   2   0.50000     0.0600000    0.0300000   3.930919e-05  8.704828e-09
    229    232   2   0.50000     0.0600000    0.0300000   3.930919e-05  8.704828e-09
    230    201   2   0.50000     0.0600000   -0.3300000   2.521103e-04  1.063590e-07
    230    231   2   0.50000     0.0600000    0.0300000   3.930919e-05  8.704828e-09
    230    232   2   0.50000     0.0600000    0.0300000   3.930919e-05  8.704828e-09
    199    202   2   0.50000    -0.1200000    0.6250000   1.575021e-03  3.561100e-06
    231    202   2   0.50000     0.0300000    0.6250000   2.482000e-04  1.854991e-07
    232    202   2   0.50000     0.0300000    0.6250000   2.482000e-04  1.854991e-07
    200    203   2   0.50000     0.1900000   -0.4300000   1.095425e-03  1.218041e-06
    200    204   2   0.50000     0.1900000   -0.1150000   1.091018e-03  2.092768e-06
    201    205   2   0.50000    -0.3300000   -0.1150000   1.102666e-03  1.331965e-06
    201    212   2   0.50000    -0.3300000   -0.1150000   1.102666e-03  1.331965e-06
    203    205   2   0.50000    -0.4300000   -0.1150000   1.177174e-03  1.365843e-06
    203    212   2   0.50000    -0.4300000   -0.1150000   1.177174e-03  1.365843e-06
    202    206   2   0.50000     0.6250000   -0.1150000   1.692561e-03  3.993218e-06
    202    233   2   0.50000     0.6250000    0.1150000   3.510079e-04  2.623353e-07
    212    206   2   0.50000    -0.1150000   -0.1150000   1.172438e-03  2.346713e-06
    212    233   2   0.50000    -0.1150000    0.1150000   2.431434e-04  1.541678e-07
    202    211   2   0.50000     0.6250000   -0.1150000   1.692561e-03  3.993218e-06
    202    236   2   0.50000     0.6250000    0.1150000   3.510079e-04  2.623353e-07
    205    211   2   0.50000    -0.1150000   -0.1150000   1.172438e-03  2.346713e-06
    205    236   2   0.50000    -0.1150000    0.1150000   2.431434e-04  1.541678e-07
    204    207   2   0.50000    -0.1150000   -0.1150000   1.172438e-03  2.346713e-06
    204    234   2   0.50000    -0.1150000    0.1150000   2.431434e-04  1.541678e-07
    233    207   2   0.50000     0.1150000   -0.1150000   2.431434e-04  1.541678e-07
    233    234   2   0.50000     0.1150000    0.1150000   5.042375e-05  1.012808e-08
    205    208   2   0.50000    -0.1150000    0.6250000   1.692561e-03  3.993218e-06
    234    208   2   0.50000     0.1150000    0.6250000   3.510079e-04  2.623353e-07
    234    211   2   0.50000     0.1150000   -0.1150000   2.431434e-04  1.541678e-07
    206    209   2   0.50000    -0.1150000   -0.4300000   1.177174e-03  1.365843e-06
    206    210   2   0.50000    -0.1150000   -0.0800000   1.102666e-03  1.331965e-06
    211    209   2   0.50000    -0.1150000   -0.4300000   1.177174e-03  1.365843e-06
    211    210   2   0.50000    -0.1150000   -0.0800000   1.102666e-03  1.331965e-06
    206    235   2   0.50000    -0.1150000    0.1150000   2.431434e-04  1.541678e-07
    208    212   2   0.50000     0.6250000   -0.1150000   1.692561e-03  3.993218e-06
    208    235   2   0.50000     0.6250000    0.1150000   3.510079e-04  2.623353e-07
    207    237   2   0.50000    -0.1150000   -0.2000000   9.038862e-04  9.862632e-07
    209    237   2   0.50000    -0.4300000   -0.2000000   9.075373e-04  5.740287e-07
    208    238   2   0.50000     0.6250000    0.0800000   1.575021e-03  3.561100e-06
    207    236   2   0.50000    -0.1150000    0.1150000   2.431434e-04  1.541678e-07
    235    204   2   0.50000     0.1150000   -0.1150000   2.431434e-04  1.541678e-07
    235    236   2   0.50000     0.1150000    0.1150000   5.042375e-05  1.012808e-08
    210    239   2   0.50000    -0.0800000   -0.1200000   1.026091e-03  1.187829e-06
    210    260   2   0.50000    -0.0800000    0.0600000   2.521103e-04  1.063590e-07
    210    261   2   0.50000    -0.0800000    0.0600000   2.521103e-04  1.063590e-07
    237    240   2   0.50000    -0.2000000   -0.1200000   8.411158e-04  8.795366e-07
    237    262   2   0.50000    -0.2000000    0.0600000   2.066619e-04  7.875431e-08
    237    263   2   0.50000    -0.2000000    0.0600000   2.066619e-04  7.875431e-08
    260    240   2   0.50000     0.0600000   -0.1200000   2.494471e-04  1.671101e-07
    260    262   2   0.50000     0.0600000    0.0600000   6.128906e-05  1.496315e-08
    260    263   2   0.50000     0.0600000    0.0600000   6.128906e-05  1.496315e-08
    261    240   2   0.50000     0.0600000   -0.1200000   2.494471e-04  1.671101e-07
    261    262   2   0.50000     0.0600000    0.0600000   6.128906e-05  1.496315e-08
    261    263   2   0.50000     0.0600000    0.0600000   6.128906e-05  1.496315e-08
    238    241   2   0.50000     0.0800000   -0.1200000   1.015252e-03  1.866303e-06
    238    264   2   0.50000     0.0800000    0.0600000   2.494471e-04  1.671101e-07
    238    265   2   0.50000     0.0800000    0.0600000   2.494471e-04  1.671101e-07
    262    241   2   0.50000     0.0600000   -0.1200000   2.494471e-04  1.671101e-07
    262    264   2   0.50000     0.0600000    0.0600000   6.128906e-05  1.496315e-08
    262    265   2   0.50000     0.0600000    0.0600000   6.128906e-05  1.496315e-08
    263    241   2   0.50000     0.0600000   -0.1200000   2.494471e-04  1.671101e-07
    263    264   2   0.50000     0.0600000    0.0600000   6.128906e-05  1.496315e-08
    263    265   2   0.50000     0.0600000    0.0600000   6.128906e-05  1.496315e-08
    239    242   2   0.50000    -0.1200000   -0.1200000   1.015252e-03  1.866303e-06
    239    266   2   0.50000    -0.1200000    0.0600000   2.494471e-04  1.671101e-07
    239    267   2   0.50000    -0.1200000    0.0600000   2.494471e-04  1.671101e-07
    264    242   2   0.50000     0.0600000   -0.1200000   2.494471e-04  1.671101e-07
    264    266   2   0.50000     0.0600000    0.0600000   6.128906e-05  1.496315e-08
    264    267   2   0.50000     0.0600000    0.0600000   6.128906e-05  1.496315e-08
    265    242   2   0.50000     0.0600000   -0.1200000   2.494471e-04  1.671101e-07
    265    266   2   0.50000     0.0600000    0.0600000   6.128906e-05  1.496315e-08
    265    267   2   0.50000     0.0600000    0.0600000   6.128906e-05  1.496315e-08
    240    243   2   0.50000    -0.1200000   -0.1200000   1.015252e-03  1.866303e-06
    240    268   2   0.50000    -0.1200000    0.0600000   2.494471e-04  1.671101e-07
    240    269   2   0.50000    -0.1200000    0.0600000   2.494471e-04  1.671101e-07
    266    243   2   0.50000     0.0600000   -0.1200000   2.494471e-04  1.671101e-07
    266    268   2   0.50000     0.0600000    0.0600000   6.128906e-05  1.496315e-08
    266    269   2   0.50000     0.0600000    0.0600000   6.128906e-05  1.496315e-08
    267    243   2   0.50000     0.0600000   -0.1200000   2.494471e-04  1.671101e-07
    267    268   2   0.50000     0.0600000    0.0600000   6.128906e-05  1.496315e-08
    267    269   2   0.50000     0.0600000    0.0600000   6.128906e-05  1.496315e-08
    241    244   2   0.50000    -0.1200000   -0.1200000   1.015252e-03  1.866303e-06
    241    270   2   0.50000    -0.1200000    0.0600000   2.494471e-04  1.671101e-07
    241    271   2   0.50000    -0.1200000    0.0600000   2.494471e-04  1.671101e-07
    268    244   2   0.50000     0.0600000   -0.1200000   2.494471e-04  1.671101e-07
    268    270   2   0.50000     0.0600000    0.0600000   6.128906e-05  1.496315e-08
    268    271   2   0.50000     0.0600000    0.0600000   6.128906e-05  1.496315e-08
    269    244   2   0.50000     0.0600000   -0.1200000   2.494471e-04  1.671101e-07
    269    270   2   0.50000     0.0600000    0.0600000   6.128906e-05  1.496315e-08
    269    271   2   0.50000     0.0600000    0.0600000   6.128906e-05  1.496315e-08
    242    245   2   0.50000    -0.1200000   -0.1200000   1.015252e-03  1.866303e-06
    242    272   2   0.50000    -0.1200000    0.0600000   2.494471e-04  1.671101e-07
    242    273   2   0.50000    -0.1200000    0.0600000   2.494471e-04  1.671101e-07
    270    245   2   0.50000     0.0600000   -0.1200000   2.494471e-04  1.671101e-07
    270    272   2   0.50000     0.0600000    0.0600000   6.128906e-05  1.496315e-08
    270    273   2   0.50000     0.0600000    0.0600000   6.128906e-05  1.496315e-08
    271    245   2   0.50000     0.0600000   -0.1200000   2.494471e-04  1.671101e-07
    271    272   2   0.50000     0.0600000    0.0600000   6.128906e-05  1.496315e-08
    271    273   2   0.50000     0.0600000    0.0600000   6.128906e-05  1.496315e-08
    243    246   2   0.50000    -0.1200000   -0.1200000   1.015252e-03  1.866303e-06
    243    274   2   0.50000    -0.1200000    0.0600000   2.494471e-04  1.671101e-07
    243    275   2   0.50000    -0.1200000    0.0600000   2.494471e-04  1.671101e-07
    272    246   2   0.50000     0.0600000   -0.1200000   2.494471e-04  1.671101e-07
    272    274   2   0.50000     0.0600000    0.0600000   6.128906e-05  1.496315e-08
    272    275   2   0.50000     0.0600000    0.0600000   6.128906e-05  1.496315e-08
    273    246   2   0.50000     0.0600000   -0.1200000   2.494471e-04  1.671101e-07
    273    274   2   0.50000     0.0600000    0.0600000   6.128906e-05  1.496315e-08
    273    275   2   0.50000     0.0600000    0.0600000   6.128906e-05  1.496315e-08
    244    247   2   0.50000    -0.1200000    0.1900000   1.015252e-03  1.866303e-06
    244    276   2   0.50000    -0.1200000    0.0600000   2.494471e-04  1.671101e-07
    244    277   2   0.50000    -0.1200000    0.0600000   2.494471e-04  1.671101e-07
    274    247   2   0.50000     0.0600000    0.1900000   2.494471e-04  1.671101e-07
    274    276   2   0.50000     0.0600000    0.0600000   6.128906e-05  1.496315e-08
    274    277   2   0.50000     0.0600000    0.0600000   6.128906e-05  1.496315e-08
    275    247   2   0.50000     0.0600000    0.1900000   2.494471e-04  1.671101e-07
    275    276   2   0.50000     0.0600000    0.0600000   6.128906e-05  1.496315e-08
    275    277   2   0.50000     0.0600000    0.0600000   6.128906e-05  1.496315e-08
    245    248   2   0.50000    -0.1200000   -0.3300000   1.026091e-03  1.187829e-06
    245    278   2   0.50000    -0.1200000    0.0300000   1.599888e-04  9.721644e-08
    245    279   2   0.50000    -0.1200000    0.0300000   1.599888e-04  9.721644e-08
    276    248   2   0.50000     0.0600000   -0.3300000   2.521103e-04  1.063590e-07
    276    278   2   0.50000     0.0600000    0.0300000   3.930919e-05  8.704828e-09
    276    279   2   0.50000     0.0600000    0.0300000   3.930919e-05  8.704828e-09
    277    248   2   0.50000     0.0600000   -0.3300000   2.521103e-04  1.063590e-07
    277    278   2   0.50000     0.0600000    0.0300000   3.930919e-05  8.704828e-09
    277    279   2   0.50000     0.0600000    0.0300000   3.930919e-05  8.704828e-09
    246    249   2   0.50000    -0.1200000    0.6250000   1.575021e-03  3.561100e-06
    278    249   2   0.50000     0.0300000    0.6250000   2.482000e-04  1.854991e-07
    279    249   2   0.50000     0.0300000    0.6250000   2.482000e-04  1.854991e-07
    247    250   2   0.50000     0.1900000   -0.4300000   1.095425e-03  1.218041e-06
    247    251   2   0.50000     0.1900000   -0.1150000   1.091018e-03  2.092768e-06
    248    252   2   0.50000    -0.3300000   -0.1150000   1.102666e-03  1.331965e-06
    248    259   2   0.50000    -0.3300000   -0.1150000   1.102666e-03  1.331965e-06
    250    252   2   0.50000    -0.4300000   -0.1150000   1.177174e-03  1.365843e-06
    250    259   2   0.50000    -0.4300000   -0.1150000   1.177174e-03  1.365843e-06
    249    253   2   0.50000     0.6250000   -0.1150000   1.692561e-03  3.993218e-06
    249    280   2   0.50000     0.6250000    0.1150000   3.510079e-04  2.623353e-07
    259    253   2   0.50000    -0.1150000   -0.1150000   1.172438e-03  2.346713e-06
    259    280   2   0.50000    -0.1150000    0.1150000   2.431434e-04  1.541678e-07
    249    258   2   0.50000     0.6250000   -0.1150000   1.692561e-03  3.993218e-06
    249    283   2   0.50000     0.6250000    0.1150000   3.510079e-04  2.623353e-07
    252    258   2   0.50000    -0.1150000   -0.1150000   1.172438e-03  2.346713e-06
    252    283   2   0.50000    -0.1150000    0.1150000   2.431434e-04  1.541678e-07
    251    254   2   0.50000    -0.1150000   -0.1150000   1.172438e-03  2.346713e-06
    251    281   2   0.50000    -0.1150000    0.1150000   2.431434e-04  1.541678e-07
    280    254   2   0.50000     0.1150000   -0.1150000   2.431434e-04  1.541678e-07
    280    281   2   0.50000     0.1150000    0.1150000   5.042375e-05  1.012808e-08
    252    255   2   0.50000    -0.1150000    0.6250000   1.692561e-03  3.993218e-06
    281    255   2   0.50000     0.1150000    0.6250000   3.510079e-04  2.623353e-07
    281    258   2   0.50000     0.1150000   -0.1150000   2.431434e-04  1.541678e-07
    253    256   2   0.50000    -0.1150000   -0.4300000   1.177174e-03  1.365843e-06
    253    257   2   0.50000    -0.1150000   -0.0800000   1.102666e-03  1.331965e-06
    258    256   2   0.50000    -0.1150000   -0.4300000   1.177174e-03  1.365843e-06
    258    257   2   0.50000    -0.1150000   -0.0800000   1.102666e-03  1.331965e-06
    253    282   2   0.50000    -0.1150000    0.1150000   2.431434e-04  1.541678e-07
    255    259   2   0.50000     0.6250000   -0.1150000   1.692561e-03  3.993218e-06
    255    282   2   0.50000     0.6250000    0.1150000   3.510079e-04  2.623353e-07
    254    284   2   0.50000    -0.1150000   -0.2000000   9.038862e-04  9.862632e-07
    256    284   2   0.50000    -0.4300000   -0.2000000   9.075373e-04  5.740287e-07
    255    285   2   0.50000     0.6250000    0.0800000   1.575021e-03  3.561100e-06
    254    283   2   0.50000    -0.1150000    0.1150000   2.431434e-04  1.541678e-07
    282    251   2   0.50000     0.1150000   -0.1150000   2.431434e-04  1.541678e-07
    282    283   2   0.50000     0.1150000    0.1150000   5.042375e-05  1.012808e-08
    257    286   2   0.50000    -0.0800000   -0.1200000   1.026091e-03  1.187829e-06
    257    307   2   0.50000    -0.0800000    0.0600000   2.521103e-04  1.063590e-07
    257    308   2   0.50000    -0.0800000    0.0600000   2.521103e-04  1.063590e-07
    284    287   2   0.50000    -0.2000000   -0.1200000   8.411158e-04  8.795366e-07
    284    309   2   0.50000    -0.2000000    0.0600000   2.066619e-04  7.875431e-08
    284    310   2   0.50000    -0.2000000    0.0600000   2.066619e-04  7.875431e-08
    307    287   2   0.50000     0.0600000   -0.1200000   2.494471e-04  1.671101e-07
    307    309   2   0.50000     0.0600000    0.0600000   6.128906e-05  1.496315e-08
    307    310   2   0.50000     0.0600000    0.0600000   6.128906e-05  1.496315e-08
    308    287   2   0.50000     0.0600000   -0.1200000   2.494471e-04  1.671101e-07
    308    309   2   0.50000     0.0600000    0.0600000   6.128906e-05  1.496315e-08
    308    310   2   0.50000     0.0600000    0.0600000   6.128906e-05  1.496315e-08
    285    288   2   0.50000     0.0800000   -0.1200000   1.015252e-03  1.866303e-06
    285    311   2   0.50000     0.0800000    0.0600000   2.494471e-04  1.671101e-07
    285    312   2   0.50000     0.0800000    0.0600000   2.494471e-04  1.671101e-07
    309    288   2   0.50000     0.0600000   -0.1200000   2.494471e-04  1.671101e-07
    309    311   2   0.50000     0.0600000    0.0600000   6.128906e-05  1.496315e-08
    309    312   2   0.50000     0.0600000    0.0600000   6.128906e-05  1.496315e-08
    310    288   2   0.50000     0.0600000   -0.1200000   2.494471e-04  1.671101e-07
    310    311   2   0.50000     0.0600000    0.0600000   6.128906e-05  1.496315e-08
    310    312   2   0.50000     0.0600000    0.0600000   6.128906e-05  1.496315e-08
    286    289   2   0.50000    -0.1200000   -0.1200000   1.015252e-03  1.866303e-06
    286    313   2   0.50000    -0.1200000    0.0600000   2.494471e-04  1.671101e-07
    286    314   2   0.50000    -0.1200000    0.0600000   2.494471e-04  1.671101e-07
    311    289   2   0.50000     0.0600000   -0.1200000   2.494471e-04  1.671101e-07
    311    313   2   0.50000     0.0600000    0.0600000   6.128906e-05  1.496315e-08
    311    314   2   0.50000     0.0600000    0.0600000   6.128906e-05  1.496315e-08
    312    289   2   0.50000     0.0600000   -0.1200000   2.494471e-04  1.671101e-07
    312    313   2   0.50000     0.0600000    0.0600000   6.128906e-05  1.496315e-08
    312    314   2   0.50000     0.0600000    0.0600000   6.128906e-05  1.496315e-08
    287    290   2   0.50000    -0.1200000   -0.1200000   1.015252e-03  1.866303e-06
    287    315   2   0.50000    -0.1200000    0.0600000   2.494471e-04  1.671101e-07
    287    316   2   0.50000    -0.1200000    0.0600000   2.494471e-04  1.671101e-07
    313    290   2   0.50000     0.0600000   -0.1200000   2.494471e-04  1.671101e-07
    313    315   2   0.50000     0.0600000    0.0600000   6.128906e-05  1.496315e-08
    313    316   2   0.50000     0.0600000    0.0600000   6.128906e-05  1.496315e-08
    314    290   2   0.50000     0.0600000   -0.1200000   2.494471e-04  1.671101e-07
    314    315   2   0.50000     0.0600000    0.0600000   6.128906e-05  1.496315e-08
    314    316   2   0.50000     0.0600000    0.0600000   6.128906e-05  1.496315e-08
    288    291   2   0.50000    -0.1200000   -0.1200000   1.015252e-03  1.866303e-06
    288    317   2   0.50000    -0.1200000    0.0600000   2.494471e-04  1.671101e-07
    288    318   2   0.50000    -0.1200000    0.0600000   2.494471e-04  1.671101e-07
    315    291   2   0.50000     0.0600000   -0.1200000   2.494471e-04  1.671101e-07
    315    317   2   0.50000     0.0600000    0.0600000   6.128906e-05  1.496315e-08
    315    318   2   0.50000     0.0600000    0.0600000   6.128906e-05  1.496315e-08
    316    291   2   0.50000     0.0600000   -0.1200000   2.494471e-04  1.671101e-07
    316    317   2   0.50000     0.0600000    0.0600000   6.128906e-05  1.496315e-08
    316    318   2   0.50000     0.0600000    0.0600000   6.128906e-05  1.496315e-08
    289    292   2   0.50000    -0.1200000   -0.1200000   1.015252e-03  1.866303e-06
    289    319   2   0.50000    -0.1200000    0.0600000   2.494471e-04  1.671101e-07
    289    320   2   0.50000    -0.1200000    0.0600000   2.494471e-04  1.671101e-07
    317    292   2   0.50000     0.0600000   -0.1200000   2.494471e-04  1.671101e-07
    317    319   2   0.50000     0.0600000    0.0600000   6.128906e-05  1.496315e-08
    317    320   2   0.50000     0.0600000    0.0600000   6.128906e-05  1.496315e-08
    318    292   2   0.50000     0.0600000   -0.1200000   2.494471e-04  1.671101e-07
    318    319   2   0.50000     0.0600000    0.0600000   6.128906e-05  1.496315e-08
    318    320   2   0.50000     0.0600000    0.0600000   6.128906e-05  1.496315e-08
    290    293   2   0.50000    -0.1200000   -0.1200000   1.015252e-03  1.866303e-06
    290    321   2   0.50000    -0.1200000    0.0600000   2.494471e-04  1.671101e-07
    290    322   2   0.50000    -0.1200000    0.0600000   2.494471e-04  1.671101e-07
    319    293   2   0.50000     0.0600000   -0.1200000   2.494471e-04  1.671101e-07
    319    321   2   0.50000     0.0600000    0.0600000   6.128906e-05  1.496315e-08
    319    322   2   0.50000     0.0600000    0.0600000   6.128906e-05  1.496315e-08
    320    293   2   0.50000     0.0600000   -0.1200000   2.494471e-04  1.671101e-07
    320    321   2   0.50000     0.0600000    0.0600000   6.128906e-05  1.496315e-08
    320    322   2   0.50000     0.0600000    0.0600000   6.128906e-05  1.496315e-08
    291    294   2   0.50000    -0.1200000    0.1900000   1.015252e-03  1.866303e-06
    291    323   2   0.50000    -0.1200000    0.0600000   2.494471e-04  1.671101e-07
    291    324   2   0.50000    -0.1200000    0.0600000   2.494471e-04  1.671101e-07
    321    294   2   0.50000     0.0600000    0.1900000   2.494471e-04  1.671101e-07
    321    323   2   0.50000     0.0600000    0.0600000   6.128906e-05  1.496315e-08
    321    324   2   0.50000     0.0600000    0.0600000   6.128906e-05  1.496315e-08
    322    294   2   0.50000     0.0600000    0.1900000   2.494471e-04  1.671101e-07
    322    323   2   0.50000     0.0600000    0.0600000   6.128906e-05  1.496315e-08
    322    324   2   0.50000     0.0600000    0.0600000   6.128906e-05  1.496315e-08
    292    295   2   0.50000    -0.1200000   -0.3300000   1.026091e-03  1.187829e-06
    292    325   2   0.50000    -0.1200000    0.0300000   1.599888e-04  9.721644e-08
    292    326   2   0.50000    -0.1200000    0.0300000   1.599888e-04  9.721644e-08
    323    295   2   0.50000     0.0600000   -0.3300000   2.521103e-04  1.063590e-07
    323    325   2   0.50000     0.0600000    0.0300000   3.930919e-05  8.704828e-09
    323    326   2   0.50000     0.0600000    0.0300000   3.930919e-05  8.704828e-09
    324    295   2   0.50000     0.0600000   -0.3300000   2.521103e-04  1.063590e-07
    324    325   2   0.50000     0.0600000    0.0300000   3.930919e-05  8.704828e-09
    324    326   2   0.50000     0.0600000    0.0300000   3.930919e-05  8.704828e-09
    293    296   2   0.50000    -0.1200000    0.6250000   1.575021e-03  3.561100e-06
    325    296   2   0.50000     0.0300000    0.6250000   2.482000e-04  1.854991e-07
    326    296   2   0.50000     0.0300000    0.6250000   2.482000e-04  1.854991e-07
    294    297   2   0.50000     0.1900000   -0.4300000   1.095425e-03  1.218041e-06
    294    298   2   0.50000     0.1900000   -0.1150000   1.091018e-03  2.092768e-06
    295    299   2   0.50000    -0.3300000   -0.1150000   1.102666e-03  1.331965e-06
    295    306   2   0.50000    -0.3300000   -0.1150000   1.102666e-03  1.331965e-06
    297    299   2   0.50000    -0.4300000   -0.1150000   1.177174e-03  1.365843e-06
    297    306   2   0.50000    -0.4300000   -0.1150000   1.177174e-03  1.365843e-06
    296    300   2   0.50000     0.6250000   -0.1150000   1.692561e-03  3.993218e-06
    296    327   2   0.50000     0.6250000    0.1150000   3.510079e-04  2.623353e-07
    306    300   2   0.50000    -0.1150000   -0.1150000   1.172438e-03  2.346713e-06
    306    327   2   0.50000    -0.1150000    0.1150000   2.431434e-04  1.541678e-07
    296    305   2   0.50000     0.6250000   -0.1150000   1.692561e-03  3.993218e-06
    296    330   2   0.50000     0.6250000    0.1150000   3.510079e-04  2.623353e-07
    299    305   2   0.50000    -0.1150000   -0.1150000   1.172438e-03  2.346713e-06
    299    330   2   0.50000    -0.1150000    0.1150000   2.431434e-04  1.541678e-07
    298    301   2   0.50000    -0.1150000   -0.1150000   1.172438e-03  2.346713e-06
    298    328   2   0.50000    -0.1150000    0.1150000   2.431434e-04  1.541678e-07
    327    301   2   0.50000     0.1150000   -0.1150000   2.431434e-04  1.541678e-07
    327    328   2   0.50000     0.1150000    0.1150000   5.042375e-05  1.012808e-08
    299    302   2   0.50000    -0.1150000    0.6250000   1.692561e-03  3.993218e-06
    328    302   2   0.50000     0.1150000    0.6250000   3.510079e-04  2.623353e-07
    328    305   2   0.50000     0.1150000   -0.1150000   2.431434e-04  1.541678e-07
    300    303   2   0.50000    -0.1150000   -0.4300000   1.177174e-03  1.365843e-06
    300    304   2   0.50000    -0.1150000   -0.0800000   1.102666e-03  1.331965e-06
    305    303   2   0.50000    -0.1150000   -0.4300000   1.177174e-03  1.365843e-06
    305    304   2   0.50000    -0.1150000   -0.0800000   1.102666e-03  1.331965e-06
    300    329   2   0.50000    -0.1150000    0.1150000   2.431434e-04  1.541678e-07
    302    306   2   0.50000     0.6250000   -0.1150000   1.692561e-03  3.993218e-06
    302    329   2   0.50000     0.6250000    0.1150000   3.510079e-04  2.623353e-07
    301    331   2   0.50000    -0.1150000   -0.2000000   9.038862e-04  9.862632e-07
    303    331   2   0.50000    -0.4300000   -0.2000000   9.075373e-04  5.740287e-07
    302    332   2   0.50000     0.6250000    0.0800000   1.575021e-03  3.561100e-06
    301    330   2   0.50000    -0.1150000    0.1150000   2.431434e-04  1.541678e-07
    329    298   2   0.50000     0.1150000   -0.1150000   2.431434e-04  1.541678e-07
    329    330   2   0.50000     0.1150000    0.1150000   5.042375e-05  1.012808e-08
    304    333   2   0.50000    -0.0800000   -0.1200000   1.026091e-03  1.187829e-06
    304    354   2   0.50000    -0.0800000    0.0600000   2.521103e-04  1.063590e-07
    304    355   2   0.50000    -0.0800000    0.0600000   2.521103e-04  1.063590e-07
    331    334   2   0.50000    -0.2000000   -0.1200000   8.411158e-04  8.795366e-07
    331    356   2   0.50000    -0.2000000    0.0600000   2.066619e-04  7.875431e-08
    331    357   2   0.50000    -0.2000000    0.0600000   2.066619e-04  7.875431e-08
    354    334   2   0.50000     0.0600000   -0.1200000   2.494471e-04  1.671101e-07
    354    356   2   0.50000     0.0600000    0.0600000   6.128906e-05  1.496315e-08
    354    357   2   0.50000     0.0600000    0.0600000   6.128906e-05  1.496315e-08
    355    334   2   0.50000     0.0600000   -0.1200000   2.494471e-04  1.671101e-07
    355    356   2   0.50000     0.0600000    0.0600000   6.128906e-05  1.496315e-08
    355    357   2   0.50000     0.0600000    0.0600000   6.128906e-05  1.496315e-08
    332    335   2   0.50000     0.0800000   -0.1200000   1.015252e-03  1.866303e-06
    332    358   2   0.50000     0.0800000    0.0600000   2.494471e-04  1.671101e-07
    332    359   2   0.50000     0.0800000    0.0600000   2.494471e-04  1.671101e-07
    356    335   2   0.50000     0.0600000   -0.1200000   2.494471e-04  1.671101e-07
    356    358   2   0.50000     0.0600000    0.0600000   6.128906e-05  1.496315e-08
    356    359   2   0.50000     0.0600000    0.0600000   6.128906e-05  1.496315e-08
    357    335   2   0.50000     0.0600000   -0.1200000   2.494471e-04  1.671101e-07
    357    358   2   0.50000     0.0600000    0.0600000   6.128906e-05  1.496315e-08
    357    359   2   0.50000     0.0600000    0.0600000   6.128906e-05  1.496315e-08
    333    336   2   0.50000    -0.1200000   -0.1200000   1.015252e-03  1.866303e-06
    333    360   2   0.50000    -0.1200000    0.0600000   2.494471e-04  1.671101e-07
    333    361   2   0.50000    -0.1200000    0.0600000   2.494471e-04  1.671101e-07
    358    336   2   0.50000     0.0600000   -0.1200000   2.494471e-04  1.671101e-07
    358    360   2   0.50000     0.0600000    0.0600000   6.128906e-05  1.496315e-08
    358    361   2   0.50000     0.0600000    0.0600000   6.128906e-05  1.496315e-08
    359    336   2   0.50000     0.0600000   -0.1200000   2.494471e-04  1.671101e-07
    359    360   2   0.50000     0.0600000    0.0600000   6.128906e-05  1.496315e-08
    359    361   2   0.50000     0.0600000    0.0600000   6.128906e-05  1.496315e-08
    334    337   2   0.50000    -0.1200000   -0.1200000   1.015252e-03  1.866303e-06
    334    362   2   0.50000    -0.1200000    0.0600000   2.494471e-04  1.671101e-07
    334    363   2   0.50000    -0.1200000    0.0600000   2.494471e-04  1.671101e-07
    360    337   2   0.50000     0.0600000   -0.1200000   2.494471e-04  1.671101e-07
    360    362   2   0.50000     0.0600000    0.0600000   6.128906e-05  1.496315e-08
    360    363   2   0.50000     0.0600000    0.0600000   6.128906e-05  1.496315e-08
    361    337   2   0.50000     0.0600000   -0.1200000   2.494471e-04  1.671101e-07
    361    362   2   0.50000     0.0600000    0.0600000   6.128906e-05  1.496315e-08
    361    363   2   0.50000     0.0600000    0.0600000   6.128906e-05  1.496315e-08
    335    338   2   0.50000    -0.1200000   -0.1200000   1.015252e-03  1.866303e-06
    335    364   2   0.50000    -0.1200000    0.0600000   2.494471e-04  1.671101e-07
    335    365   2   0.50000    -0.1200000    0.0600000   2.494471e-04  1.671101e-07
    362    338   2   0.50000     0.0600000   -0.1200000   2.494471e-04  1.671101e-07
    362    364   2   0.50000     0.0600000    0.0600000   6.128906e-05  1.496315e-08
    362    365   2   0.50000     0.0600000    0.0600000   6.128906e-05  1.496315e-08
    363    338   2   0.50000     0.0600000   -0.1200000   2.494471e-04  1.671101e-07
    363    364   2   0.50000     0.0600000    0.0600000   6.128906e-05  1.496315e-08
    363    365   2   0.50000     0.0600000    0.0600000   6.128906e-05  1.496315e-08
    336    339   2   0.50000    -0.1200000   -0.1200000   1.015252e-03  1.866303e-06
    336    366   2   0.50000    -0.1200000    0.0600000   2.494471e-04  1.671101e-07
    336    367   2   0.50000    -0.1200000    0.0600000   2.494471e-04  1.671101e-07
    364    339   2   0.50000     0.0600000   -0.1200000   2.494471e-04  1.671101e-07
    364    366   2   0.50000     0.0600000    0.0600000   6.128906e-05  1.496315e-08
    364    367   2   0.50000     0.0600000    0.0600000   6.128906e-05  1.496315e-08
    365    339   2   0.50000     0.0600000   -0.1200000   2.494471e-04  1.671101e-07
    365    366   2   0.50000     0.0600000    0.0600000   6.128906e-05  1.496315e-08
    365    367   2   0.50000     0.0600000    0.0600000   6.128906e-05  1.496315e-08
    337    340   2   0.50000    -0.1200000   -0.1200000   1.015252e-03  1.866303e-06
    337    368   2   0.50000    -0.1200000    0.0600000   2.494471e-04  1.671101e-07
    337    369   2   0.50000    -0.1200000    0.0600000   2.494471e-04  1.671101e-07
    366    340   2   0.50000     0.0600000   -0.1200000   2.494471e-04  1.671101e-07
    366    368   2   0.50000     0.0600000    0.0600000   6.128906e-05  1.496315e-08
    366    369   2   0.50000     0.0600000    0.0600000   6.128906e-05  1.496315e-08
    367    340   2   0.50000     0.0600000   -0.1200000   2.494471e-04  1.671101e-07
    367    368   2   0.50000     0.0600000    0.0600000   6.128906e-05  1.496315e-08
    367    369   2   0.50000     0.0600000    0.0600000   6.128906e-05  1.496315e-08
    338    341   2   0.50000    -0.1200000    0.1900000   1.015252e-03  1.866303e-06
    338    370   2   0.50000    -0.1200000    0.0600000   2.494471e-04  1.671101e-07
    338    371   2   0.50000    -0.1200000    0.0600000   2.494471e-04  1.671101e-07
    368    341   2   0.50000     0.0600000    0.1900000   2.494471e-04  1.671101e-07
    368    370   2   0.50000     0.0600000    0.0600000   6.128906e-05  1.496315e-08
    368    371   2   0.50000     0.0600000    0.0600000   6.128906e-05  1.496315e-08
    369    341   2   0.50000     0.0600000    0.1900000   2.494471e-04  1.671101e-07
    369    370   2   0.50000     0.0600000    0.0600000   6.128906e-05  1.496315e-08
    369    371   2   0.50000     0.0600000    0.0600000   6.128906e-05  1.496315e-08
    339    342   2   0.50000    -0.1200000   -0.3300000   1.026091e-03  1.187829e-06
    339    372   2   0.50000    -0.1200000    0.0300000   1.599888e-04  9.721644e-08
    339    373   2   0.50000    -0.1200000    0.0300000   1.599888e-04  9.721644e-08
    370    342   2   0.50000     0.0600000   -0.3300000   2.521103e-04  1.063590e-07
    370    372   2   0.50000     0.0600000    0.0300000   3.930919e-05  8.704828e-09
    370    373   2   0.50000     0.0600000    0.0300000   3.930919e-05  8.704828e-09
    371    342   2   0.50000     0.0600000   -0.3300000   2.521103e-04  1.063590e-07
    371    372   2   0.50000     0.0600000    0.0300000   3.930919e-05  8.704828e-09
    371    373   2   0.50000     0.0600000    0.0300000   3.930919e-05  8.704828e-09
    340    343   2   0.50000    -0.1200000    0.6250000   1.575021e-03  3.561100e-06
    372    343   2   0.50000     0.0300000    0.6250000   2.482000e-04  1.854991e-07
    373    343   2   0.50000     0.0300000    0.6250000   2.482000e-04  1.854991e-07
    341    344   2   0.50000     0.1900000   -0.4300000   1.095425e-03  1.218041e-06
    341    345   2   0.50000     0.1900000   -0.1150000   1.091018e-03  2.092768e-06
    342    346   2   0.50000    -0.3300000   -0.1150000   1.102666e-03  1.331965e-06
    342    353   2   0.50000    -0.3300000   -0.1150000   1.102666e-03  1.331965e-06
    344    346   2   0.50000    -0.4300000   -0.1150000   1.177174e-03  1.365843e-06
    344    353   2   0.50000    -0.4300000   -0.1150000   1.177174e-03  1.365843e-06
    343    347   2   0.50000     0.6250000   -0.1150000   1.692561e-03  3.993218e-06
    343    374   2   0.50000     0.6250000    0.1150000   3.510079e-04  2.623353e-07
    353    347   2   0.50000    -0.1150000   -0.1150000   1.172438e-03  2.346713e-06
    353    374   2   0.50000    -0.1150000    0.1150000   2.431434e-04  1.541678e-07
    343    352   2   0.50000     0.6250000   -0.1150000   1.692561e-03  3.993218e-06
    343    377   2   0.50000     0.6250000    0.1150000   3.510079e-04  2.623353e-07
    346    352   2   0.50000    -0.1150000   -0.1150000   1.172438e-03  2.346713e-06
    346    377   2   0.50000    -0.1150000    0.1150000   2.431434e-04  1.541678e-07
    345    348   2   0.50000    -0.1150000   -0.1150000   1.172438e-03  2.346713e-06
    345    375   2   0.50000    -0.1150000    0.1150000   2.431434e-04  1.541678e-07
    374    348   2   0.50000     0.1150000   -0.1150000   2.431434e-04  1.541678e-07
    374    375   2   0.50000     0.1150000    0.1150000   5.042375e-05  1.012808e-08
    346    349   2   0.50000    -0.1150000    0.6250000   1.692561e-03  3.993218e-06
    375    349   2   0.50000     0.1150000    0.6250000   3.510079e-04  2.623353e-07
    375    352   2   0.50000     0.1150000   -0.1150000   2.431434e-04  1.541678e-07
    347    350   2   0.50000    -0.1150000   -0.4300000   1.177174e-03  1.365843e-06
    347    351   2   0.50000    -0.1150000   -0.0800000   1.102666e-03  1.331965e-06
    352    350   2   0.50000    -0.1150000   -0.4300000   1.177174e-03  1.365843e-06
    352    351   2   0.50000    -0.1150000   -0.0800000   1.102666e-03  1.331965e-06
    347    376   2   0.50000    -0.1150000    0.1150000   2.431434e-04  1.541678e-07
    349    353   2   0.50000     0.6250000   -0.1150000   1.692561e-03  3.993218e-06
    349    376   2   0.50000     0.6250000    0.1150000   3.510079e-04  2.623353e-07
    348    378   2   0.50000    -0.1150000   -0.2000000   9.038862e-04  9.862632e-07
    350    378   2   0.50000    -0.4300000   -0.2000000   9.075373e-04  5.740287e-07
    349    379   2   0.50000     0.6250000    0.0800000   1.575021e-03  3.561100e-06
    348    377   2   0.50000    -0.1150000    0.1150000   2.431434e-04  1.541678e-07
    376    345   2   0.50000     0.1150000   -0.1150000   2.431434e-04  1.541678e-07
    376    377   2   0.50000     0.1150000    0.1150000   5.042375e-05  1.012808e-08
    351    380   2   0.50000    -0.0800000   -0.1200000   1.026091e-03  1.187829e-06
    351    401   2   0.50000    -0.0800000    0.0600000   2.521103e-04  1.063590e-07
    351    402   2   0.50000    -0.0800000    0.0600000   2.521103e-04  1.063590e-07
    378    381   2   0.50000    -0.2000000   -0.1200000   8.411158e-04  8.795366e-07
    378    403   2   0.50000    -0.2000000    0.0600000   2.066619e-04  7.875431e-08
    378    404   2   0.50000    -0.2000000    0.0600000   2.066619e-04  7.875431e-08
    401    381   2   0.50000     0.0600000   -0.1200000   2.494471e-04  1.671101e-07
    401    403   2   0.50000     0.0600000    0.0600000   6.128906e-05  1.496315e-08
    401    404   2   0.50000     0.0600000    0.0600000   6.128906e-05  1.496315e-08
    402    381   2   0.50000     0.0600000   -0.1200000   2.494471e-04  1.671101e-07
    402    403   2   0.50000     0.0600000    0.0600000   6.128906e-05  1.496315e-08
    402    404   2   0.50000     0.0600000    0.0600000   6.128906e-05  1.496315e-08
    379    382   2   0.50000     0.0800000   -0.1200000   1.015252e-03  1.866303e-06
    379    405   2   0.50000     0.0800000    0.0600000   2.494471e-04  1.671101e-07
    379    406   2   0.50000     0.0800000    0.0600000   2.494471e-04  1.671101e-07
    403    382   2   0.50000     0.0600000   -0.1200000   2.494471e-04  1.671101e-07
    403    405   2   0.50000     0.0600000    0.0600000   6.128906e-05  1.496315e-08
    403    406   2   0.50000     0.0600000    0.0600000   6.128906e-05  1.496315e-08
    404    382   2   0.50000     0.0600000   -0.1200000   2.494471e-04  1.671101e-07
    404    405   2   0.50000     0.0600000    0.0600000   6.128906e-05  1.496315e-08
    404    406   2   0.50000     0.0600000    0.0600000   6.128906e-05  1.496315e-08
    380    383   2   0.50000    -0.1200000   -0.1200000   1.015252e-03  1.866303e-06
    380    407   2   0.50000    -0.1200000    0.0600000   2.494471e-04  1.671101e-07
    380    408   2   0.50000    -0.1200000    0.0600000   2.494471e-04  1.671101e-07
    405    383   2   0.50000     0.0600000   -0.1200000   2.494471e-04  1.671101e-07
    405    407   2   0.50000     0.0600000    0.0600000   6.128906e-05  1.496315e-08
    405    408   2   0.50000     0.0600000    0.0600000   6.128906e-05  1.496315e-08
    406    383   2   0.50000     0.0600000   -0.1200000   2.494471e-04  1.671101e-07
    406    407   2   0.50000     0.0600000    0.0600000   6.128906e-05  1.496315e-08
    406    408   2   0.50000     0.0600000    0.0600000   6.128906e-05  1.496315e-08
    381    384   2   0.50000    -0.1200000   -0.1200000   1.015252e-03  1.866303e-06
    381    409   2   0.50000    -0.1200000    0.0600000   2.494471e-04  1.671101e-07
    381    410   2   0.50000    -0.1200000    0.0600000   2.494471e-04  1.671101e-07
    407    384   2   0.50000     0.0600000   -0.1200000   2.494471e-04  1.671101e-07
    407    409   2   0.50000     0.0600000    0.0600000   6.128906e-05  1.496315e-08
    407    410   2   0.50000     0.0600000    0.0600000   6.128906e-05  1.496315e-08
    408    384   2   0.50000     0.0600000   -0.1200000   2.494471e-04  1.671101e-07
    408    409   2   0.50000     0.0600000    0.0600000   6.128906e-05  1.496315e-08
    408    410   2   0.50000     0.0600000    0.0600000   6.128906e-05  1.496315e-08
    382    385   2   0.50000    -0.1200000   -0.1200000   1.015252e-03  1.866303e-06
    382    411   2   0.50000    -0.1200000    0.0600000   2.494471e-04  1.671101e-07
    382    412   2   0.50000    -0.1200000    0.0600000   2.494471e-04  1.671101e-07
    409    385   2   0.50000     0.0600000   -0.1200000   2.494471e-04  1.671101e-07
    409    411   2   0.50000     0.0600000    0.0600000   6.128906e-05  1.496315e-08
    409    412   2   0.50000     0.0600000    0.0600000   6.128906e-05  1.496315e-08
    410    385   2   0.50000     0.0600000   -0.1200000   2.494471e-04  1.671101e-07
    410    411   2   0.50000     0.0600000    0.0600000   6.128906e-05  1.496315e-08
    410    412   2   0.50000     0.0600000    0.0600000   6.128906e-05  1.496315e-08
    383    386   2   0.50000    -0.1200000   -0.1200000   1.015252e-03  1.866303e-06
    383    413   2   0.50000    -0.1200000    0.0600000   2.494471e-04  1.671101e-07
    383    414   2   0.50000    -0.1200000    0.0600000   2.494471e-04  1.671101e-07
    411    386   2   0.50000     0.0600000   -0.1200000   2.494471e-04  1.671101e-07
    411    413   2   0.50000     0.0600000    0.0600000   6.128906e-05  1.496315e-08
    411    414   2   0.50000     0.0600000    0.0600000   6.128906e-05  1.496315e-08
    412    386   2   0.50000     0.0600000   -0.1200000   2.494471e-04  1.671101e-07
    412    413   2   0.50000     0.0600000    0.0600000   6.128906e-05  1.496315e-08
    412    414   2   0.50000     0.0600000    0.0600000   6.128906e-05  1.496315e-08
    384    387   2   0.50000    -0.1200000   -0.1200000   1.015252e-03  1.866303e-06
    384    415   2   0.50000    -0.1200000    0.0600000   2.494471e-04  1.671101e-07
    384    416   2   0.50000    -0.1200000    0.0600000   2.494471e-04  1.671101e-07
    413    387   2   0.50000     0.0600000   -0.1200000   2.494471e-04  1.671101e-07
    413    415   2   0.50000     0.0600000    0.0600000   6.128906e-05  1.496315e-08
    413    416   2   0.50000     0.0600000    0.0600000   6.128906e-05  1.496315e-08
    414    387   2   0.50000     0.0600000   -0.1200000   2.494471e-04  1.671101e-07
    414    415   2   0.50000     0.0600000    0.0600000   6.128906e-05  1.496315e-08
    414    416   2   0.50000     0.0600000    0.0600000   6.128906e-05  1.496315e-08
    385    388   2   0.50000    -0.1200000    0.1900000   1.015252e-03  1.866303e-06
    385    417   2   0.50000    -0.1200000    0.0600000   2.494471e-04  1.671101e-07
    385    418   2   0.50000    -0.1200000    0.0600000   2.494471e-04  1.671101e-07
    415    388   2   0.50000     0.0600000    0.1900000   2.494471e-04  1.671101e-07
    415    417   2   0.50000     0.0600000    0.0600000   6.128906e-05  1.496315e-08
    415    418   2   0.50000     0.0600000    0.0600000   6.128906e-05  1.496315e-08
    416    388   2   0.50000     0.0600000    0.1900000   2.494471e-04  1.671101e-07
    416    417   2   0.50000     0.0600000    0.0600000   6.128906e-05  1.496315e-08
    416    418   2   0.50000     0.0600000    0.0600000   6.128906e-05  1.496315e-08
    386    389   2   0.50000    -0.1200000   -0.3300000   1.026091e-03  1.187829e-06
    386    419   2   0.50000    -0.1200000    0.0300000   1.599888e-04  9.721644e-08
    386    420   2   0.50000    -0.1200000    0.0300000   1.599888e-04  9.721644e-08
    417    389   2   0.50000     0.0600000   -0.3300000   2.521103e-04  1.063590e-07
    417    419   2   0.50000     0.0600000    0.0300000   3.930919e-05  8.704828e-09
    417    420   2   0.50000     0.0600000    0.0300000   3.930919e-05  8.704828e-09
    418    389   2   0.50000     0.0600000   -0.3300000   2.521103e-04  1.063590e-07
    418    419   2   0.50000     0.0600000    0.0300000   3.930919e-05  8.704828e-09
    418    420   2   0.50000     0.0600000    0.0300000   3.930919e-05  8.704828e-09
    387    390   2   0.50000    -0.1200000    0.6250000   1.575021e-03  3.561100e-06
    419    390   2   0.50000     0.0300000    0.6250000   2.482000e-04  1.854991e-07
    420    390   2   0.50000     0.0300000    0.6250000   2.482000e-04  1.854991e-07
    388    391   2   0.50000     0.1900000   -0.4300000   1.095425e-03  1.218041e-06
    388    392   2   0.50000     0.1900000   -0.1150000   1.091018e-03  2.092768e-06
    389    393   2   0.50000    -0.3300000   -0.1150000   1.102666e-03  1.331965e-06
    389    400   2   0.50000    -0.3300000   -0.1150000   1.102666e-03  1.331965e-06
    391    393   2   0.50000    -0.4300000   -0.1150000   1.177174e-03  1.365843e-06
    391    400   2   0.50000    -0.4300000   -0.1150000   1.177174e-03  1.365843e-06
    390    394   2   0.50000     0.6250000   -0.1150000   1.692561e-03  3.993218e-06
    390    421   2   0.50000     0.6250000    0.1150000   3.510079e-04  2.623353e-07
    400    394   2   0.50000    -0.1150000   -0.1150000   1.172438e-03  2.346713e-06
    400    421   2   0.50000    -0.1150000    0.1150000   2.431434e-04  1.541678e-07
    390    399   2   0.50000     0.6250000   -0.1150000   1.692561e-03  3.993218e-06
    390    424   2   0.50000     0.6250000    0.1150000   3.510079e-04  2.623353e-07
    393    399   2   0.50000    -0.1150000   -0.1150000   1.172438e-03  2.346713e-06
    393    424   2   0.50000    -0.1150000    0.1150000   2.431434e-04  1.541678e-07
    392    395   2   0.50000    -0.1150000   -0.1150000   1.172438e-03  2.346713e-06
    392    422   2   0.50000    -0.1150000    0.1150000   2.431434e-04  1.541678e-07
    421    395   2   0.50000     0.1150000   -0.1150000   2.431434e-04  1.541678e-07
    421    422   2   0.50000     0.1150000    0.1150000   5.042375e-05  1.012808e-08
    393    396   2   0.50000    -0.1150000    0.6250000   1.692561e-03  3.993218e-06
    422    396   2   0.50000     0.1150000    0.6250000   3.510079e-04  2.623353e-07
    422    399   2   0.50000     0.1150000   -0.1150000   2.431434e-04  1.541678e-07
    394    397   2   0.50000    -0.1150000   -0.4300000   1.177174e-03  1.365843e-06
    394    398   2   0.50000    -0.1150000   -0.0800000   1.102666e-03  1.331965e-06
    399    397   2   0.50000    -0.1150000   -0.4300000   1.177174e-03  1.365843e-06
    399    398   2   0.50000    -0.1150000   -0.0800000   1.102666e-03  1.331965e-06
    394    423   2   0.50000    -0.1150000    0.1150000   2.431434e-04  1.541678e-07
    396    400   2   0.50000     0.6250000   -0.1150000   1.692561e-03  3.993218e-06
    396    423   2   0.50000     0.6250000    0.1150000   3.510079e-04  2.623353e-07
    395    425   2   0.50000    -0.1150000   -0.2000000   9.038862e-04  9.862632e-07
    397    425   2   0.50000    -0.4300000   -0.2000000   9.075373e-04  5.740287e-07
    396    426   2   0.50000     0.6250000    0.0800000   1.575021e-03  3.561100e-06
    395    424   2   0.50000    -0.1150000    0.1150000   2.431434e-04  1.541678e-07
    423    392   2   0.50000     0.1150000   -0.1150000   2.431434e-04  1.541678e-07
    423    424   2   0.50000     0.1150000    0.1150000   5.042375e-05  1.012808e-08
    398    427   2   0.50000    -0.0800000   -0.1200000   1.026091e-03  1.187829e-06
    398    448   2   0.50000    -0.0800000    0.0600000   2.521103e-04  1.063590e-07
    398    449   2   0.50000    -0.0800000    0.0600000   2.521103e-04  1.063590e-07
    425    428   2   0.50000    -0.2000000   -0.1200000   8.411158e-04  8.795366e-07
    425    450   2   0.50000    -0.2000000    0.0600000   2.066619e-04  7.875431e-08
    425    451   2   0.50000    -0.2000000    0.0600000   2.066619e-04  7.875431e-08
    448    428   2   0.50000     0.0600000   -0.1200000   2.494471e-04  1.671101e-07
    448    450   2   0.50000     0.0600000    0.0600000   6.128906e-05  1.496315e-08
    448    451   2   0.50000     0.0600000    0.0600000   6.128906e-05  1.496315e-08
    449    428   2   0.50000     0.0600000   -0.1200000   2.494471e-04  1.671101e-07
    449    450   2   0.50000     0.0600000    0.0600000   6.128906e-05  1.496315e-08
    449    451   2   0.50000     0.0600000    0.0600000   6.128906e-05  1.496315e-08
    426    429   2   0.50000     0.0800000   -0.1200000   1.015252e-03  1.866303e-06
    426    452   2   0.50000     0.0800000    0.0600000   2.494471e-04  1.671101e-07
    426    453   2   0.50000     0.0800000    0.0600000   2.494471e-04  1.671101e-07
    450    429   2   0.50000     0.0600000   -0.1200000   2.494471e-04  1.671101e-07
    450    452   2   0.50000     0.0600000    0.0600000   6.128906e-05  1.496315e-08
    450    453   2   0.50000     0.0600000    0.0600000   6.128906e-05  1.496315e-08
    451    429   2   0.50000     0.0600000   -0.1200000   2.494471e-04  1.671101e-07
    451    452   2   0.50000     0.0600000    0.0600000   6.128906e-05  1.496315e-08
    451    453   2   0.50000     0.0600000    0.0600000   6.128906e-05  1.496315e-08
    427    430   2   0.50000    -0.1200000   -0.1200000   1.015252e-03  1.866303e-06
    427    454   2   0.50000    -0.1200000    0.0600000   2.494471e-04  1.671101e-07
    427    455   2   0.50000    -0.1200000    0.0600000   2.494471e-04  1.671101e-07
    452    430   2   0.50000     0.0600000   -0.1200000   2.494471e-04  1.671101e-07
    452    454   2   0.50000     0.0600000    0.0600000   6.128906e-05  1.496315e-08
    452    455   2   0.50000     0.0600000    0.0600000   6.128906e-05  1.496315e-08
    453    430   2   0.50000     0.0600000   -0.1200000   2.494471e-04  1.671101e-07
    453    454   2   0.50000     0.0600000    0.0600000   6.128906e-05  1.496315e-08
    453    455   2   0.50000     0.0600000    0.0600000   6.128906e-05  1.496315e-08
    428    431   2   0.50000    -0.1200000   -0.1200000   1.015252e-03  1.866303e-06
    428    456   2   0.50000    -0.1200000    0.0600000   2.494471e-04  1.671101e-07
    428    457   2   0.50000    -0.1200000    0.0600000   2.494471e-04  1.671101e-07
    454    431   2   0.50000     0.0600000   -0.1200000   2.494471e-04  1.671101e-07
    454    456   2   0.50000     0.0600000    0.0600000   6.128906e-05  1.496315e-08
    454    457   2   0.50000     0.0600000    0.0600000   6.128906e-05  1.496315e-08
    455    431   2   0.50000     0.0600000   -0.1200000   2.494471e-04  1.671101e-07
    455    456   2   0.50000     0.0600000    0.0600000   6.128906e-05  1.496315e-08
    455    457   2   0.50000     0.0600000    0.0600000   6.128906e-05  1.496315e-08
    429    432   2   0.50000    -0.1200000   -0.1200000   1.015252e-03  1.866303e-06
    429    458   2   0.50000    -0.1200000    0.0600000   2.494471e-04  1.671101e-07
    429    459   2   0.50000    -0.1200000    0.0600000   2.494471e-04  1.671101e-07
    456    432   2   0.50000     0.0600000   -0.1200000   2.494471e-04  1.671101e-07
    456    458   2   0.50000     0.0600000    0.0600000   6.128906e-05  1.496315e-08
    456    459   2   0.50000     0.0600000    0.0600000   6.128906e-05  1.496315e-08
    457    432   2   0.50000     0.0600000   -0.1200000   2.494471e-04  1.671101e-07
    457    458   2   0.50000     0.0600000    0.0600000   6.128906e-05  1.496315e-08
    457    459   2   0.50000     0.0600000    0.0600000   6.128906e-05  1.496315e-08
    430    433   2   0.50000    -0.1200000   -0.1200000   1.015252e-03  1.866303e-06
    430    460   2   0.50000    -0.1200000    0.0600000   2.494471e-04  1.671101e-07
    430    461   2   0.50000    -0.1200000    0.0600000   2.494471e-04  1.671101e-07
    458    433   2   0.50000     0.0600000   -0.1200000   2.494471e-04  1.671101e-07
    458    460   2   0.50000     0.0600000    0.0600000   6.128906e-05  1.496315e-08
    458    461   2   0.50000     0.0600000    0.0600000   6.128906e-05  1.496315e-08
    459    433   2   0.50000     0.0600000   -0.1200000   2.494471e-04  1.671101e-07
    459    460   2   0.50000     0.0600000    0.0600000   6.128906e-05  1.496315e-08
    459    461   2   0.50000     0.0600000    0.0600000   6.128906e-05  1.496315e-08
    431    434   2   0.50000    -0.1200000   -0.1200000   1.015252e-03  1.866303e-06
    431    462   2   0.50000    -0.1200000    0.0600000   2.494471e-04  1.671101e-07
    431    463   2   0.50000    -0.1200000    0.0600000   2.494471e-04  1.671101e-07
    460    434   2   0.50000     0.0600000   -0.1200000   2.494471e-04  1.671101e-07
    460    462   2   0.50000     0.0600000    0.0600000   6.128906e-05  1.496315e-08
    460    463   2   0.50000     0.0600000    0.0600000   6.128906e-05  1.496315e-08
    461    434   2   0.50000     0.0600000   -0.1200000   2.494471e-04  1.671101e-07
    461    462   2   0.50000     0.0600000    0.0600000   6.128906e-05  1.496315e-08
    461    463   2   0.50000     0.0600000    0.0600000   6.128906e-05  1.496315e-08
    432    435   2   0.50000    -0.1200000    0.1900000   1.015252e-03  1.866303e-06
    432    464   2   0.50000    -0.1200000    0.0600000   2.494471e-04  1.671101e-07
    432    465   2   0.50000    -0.1200000    0.0600000   2.494471e-04  1.671101e-07
    462    435   2   0.50000     0.0600000    0.1900000   2.494471e-04  1.671101e-07
    462    464   2   0.50000     0.0600000    0.0600000   6.128906e-05  1.496315e-08
    462    465   2   0.50000     0.0600000    0.0600000   6.128906e-05  1.496315e-08
    463    435   2   0.50000     0.0600000    0.1900000   2.494471e-04  1.671101e-07
    463    464   2   0.50000     0.0600000    0.0600000   6.128906e-05  1.496315e-08
    463    465   2   0.50000     0.0600000    0.0600000   6.128906e-05  1.496315e-08
    433    436   2   0.50000    -0.1200000   -0.3300000   1.026091e-03  1.187829e-06
    433    466   2   0.50000    -0.1200000    0.0300000   1.599888e-04  9.721644e-08
    433    467   2   0.50000    -0.1200000    0.0300000   1.599888e-04  9.721644e-08
    464    436   2   0.50000     0.0600000   -0.3300000   2.521103e-04  1.063590e-07
    464    466   2   0.50000     0.0600000    0.0300000   3.930919e-05  8.704828e-09
    464    467   2   0.50000     0.0600000    0.0300000   3.930919e-05  8.704828e-09
    465    436   2   0.50000     0.0600000   -0.3300000   2.521103e-04  1.063590e-07
    465    466   2   0.50000     0.0600000    0.0300000   3.930919e-05  8.704828e-09
    465    467   2   0.50000     0.0600000    0.0300000   3.930919e-05  8.704828e-09
    434    437   2   0.50000    -0.1200000    0.6250000   1.575021e-03  3.561100e-06
    466    437   2   0.50000     0.0300000    0.6250000   2.482000e-04  1.854991e-07
    467    437   2   0.50000     0.0300000    0.6250000   2.482000e-04  1.854991e-07
    435    438   2   0.50000     0.1900000   -0.4300000   1.095425e-03  1.218041e-06
    435    439   2   0.50000     0.1900000   -0.1150000   1.091018e-03  2.092768e-06
    436    440   2   0.50000    -0.3300000   -0.1150000   1.102666e-03  1.331965e-06
    436    447   2   0.50000    -0.3300000   -0.1150000   1.102666e-03  1.331965e-06
    438    440   2   0.50000    -0.4300000   -0.1150000   1.177174e-03  1.365843e-06
    438    447   2   0.50000    -0.4300000   -0.1150000   1.177174e-03  1.365843e-06
    437    441   2   0.50000     0.6250000   -0.1150000   1.692561e-03  3.993218e-06
    437    468   2   0.50000     0.6250000    0.1150000   3.510079e-04  2.623353e-07
    447    441   2   0.50000    -0.1150000   -0.1150000   1.172438e-03  2.346713e-06
    447    468   2   0.50000    -0.1150000    0.1150000   2.431434e-04  1.541678e-07
    437    446   2   0.50000     0.6250000   -0.1150000   1.692561e-03  3.993218e-06
    437    471   2   0.50000     0.6250000    0.1150000   3.510079e-04  2.623353e-07
    440    446   2   0.50000    -0.1150000   -0.1150000   1.172438e-03  2.346713e-06
    440    471   2   0.50000    -0.1150000    0.1150000   2.431434e-04  1.541678e-07
    439    442   2   0.50000    -0.1150000   -0.1150000   1.172438e-03  2.346713e-06
    439    469   2   0.50000    -0.1150000    0.1150000   2.431434e-04  1.541678e-07
    468    442   2   0.50000     0.1150000   -0.1150000   2.431434e-04  1.541678e-07
    468    469   2   0.50000     0.1150000    0.1150000   5.042375e-05  1.012808e-08
    440    443   2   0.50000    -0.1150000    0.6250000   1.692561e-03  3.993218e-06
    469    443   2   0.50000     0.1150000    0.6250000   3.510079e-04  2.623353e-07
    469    446   2   0.50000     0.1150000   -0.1150000   2.431434e-04  1.541678e-07
    441    444   2   0.50000    -0.1150000   -0.4300000   1.177174e-03  1.365843e-06
    441    445   2   0.50000    -0.1150000   -0.0800000   1.102666e-03  1.331965e-06
    446    444   2   0.50000    -0.1150000   -0.4300000   1.177174e-03  1.365843e-06
    446    445   2   0.50000    -0.1150000   -0.0800000   1.102666e-03  1.331965e-06
    441    470   2   0.50000    -0.1150000    0.1150000   2.431434e-04  1.541678e-07
    443    447   2   0.50000     0.6250000   -0.1150000   1.692561e-03  3.993218e-06
    443    470   2   0.50000     0.6250000    0.1150000   3.510079e-04  2.623353e-07
    442    472   2   0.50000    -0.1150000   -0.2000000   9.038862e-04  9.862632e-07
    444    472   2   0.50000    -0.4300000   -0.2000000   9.075373e-04  5.740287e-07
    443    473   2   0.50000     0.6250000    0.0800000   1.575021e-03  3.561100e-06
    442    471   2   0.50000    -0.1150000    0.1150000   2.431434e-04  1.541678e-07
    470    439   2   0.50000     0.1150000   -0.1150000   2.431434e-04  1.541678e-07
    470    471   2   0.50000     0.1150000    0.1150000   5.042375e-05  1.012808e-08
    445    474   2   0.50000    -0.0800000   -0.1200000   1.026091e-03  1.187829e-06
    445    495   2   0.50000    -0.0800000    0.0600000   2.521103e-04  1.063590e-07
    445    496   2   0.50000    -0.0800000    0.0600000   2.521103e-04  1.063590e-07
    472    475   2   0.50000    -0.2000000   -0.1200000   8.411158e-04  8.795366e-07
    472    497   2   0.50000    -0.2000000    0.0600000   2.066619e-04  7.875431e-08
    472    498   2   0.50000    -0.2000000    0.0600000   2.066619e-04  7.875431e-08
    495    475   2   0.50000     0.0600000   -0.1200000   2.494471e-04  1.671101e-07
    495    497   2   0.50000     0.0600000    0.0600000   6.128906e-05  1.496315e-08
    495    498   2   0.50000     0.0600000    0.0600000   6.128906e-05  1.496315e-08
    496    475   2   0.50000     0.0600000   -0.1200000   2.494471e-04  1.671101e-07
    496    497   2   0.50000     0.0600000    0.0600000   6.128906e-05  1.496315e-08
    496    498   2   0.50000     0.0600000    0.0600000   6.128906e-05  1.496315e-08
    473    476   2   0.50000     0.0800000   -0.1200000   1.015252e-03  1.866303e-06
    473    499   2   0.50000     0.0800000    0.0600000   2.494471e-04  1.671101e-07
    473    500   2   0.50000     0.0800000    0.0600000   2.494471e-04  1.671101e-07
    497    476   2   0.50000     0.0600000   -0.1200000   2.494471e-04  1.671101e-07
    497    499   2   0.50000     0.0600000    0.0600000   6.128906e-05  1.496315e-08
    497    500   2   0.50000     0.0600000    0.0600000   6.128906e-05  1.496315e-08
    498    476   2   0.50000     0.0600000   -0.1200000   2.494471e-04  1.671101e-07
    498    499   2   0.50000     0.0600000    0.0600000   6.128906e-05  1.496315e-08
    498    500   2   0.50000     0.0600000    0.0600000   6.128906e-05  1.496315e-08
    474    477   2   0.50000    -0.1200000   -0.1200000   1.015252e-03  1.866303e-06
    474    501   2   0.50000    -0.1200000    0.0600000   2.494471e-04  1.671101e-07
    474    502   2   0.50000    -0.1200000    0.0600000   2.494471e-04  1.671101e-07
    499    477   2   0.50000     0.0600000   -0.1200000   2.494471e-04  1.671101e-07
    499    501   2   0.50000     0.0600000    0.0600000   6.128906e-05  1.496315e-08
    499    502   2   0.50000     0.0600000    0.0600000   6.128906e-05  1.496315e-08
    500    477   2   0.50000     0.0600000   -0.1200000   2.494471e-04  1.671101e-07
    500    501   2   0.50000     0.0600000    0.0600000   6.128906e-05  1.496315e-08
    500    502   2   0.50000     0.0600000    0.0600000   6.128906e-05  1.496315e-08
    475    478   2   0.50000    -0.1200000   -0.1200000   1.015252e-03  1.866303e-06
    475    503   2   0.50000    -0.1200000    0.0600000   2.494471e-04  1.671101e-07
    475    504   2   0.50000    -0.1200000    0.0600000   2.494471e-04  1.671101e-07
    501    478   2   0.50000     0.0600000   -0.1200000   2.494471e-04  1.671101e-07
    501    503   2   0.50000     0.0600000    0.0600000   6.128906e-05  1.496315e-08
    501    504   2   0.50000     0.0600000    0.0600000   6.128906e-05  1.496315e-08
    502    478   2   0.50000     0.0600000   -0.1200000   2.494471e-04  1.671101e-07
    502    503   2   0.50000     0.0600000    0.0600000   6.128906e-05  1.496315e-08
    502    504   2   0.50000     0.0600000    0.0600000   6.128906e-05  1.496315e-08
    476    479   2   0.50000    -0.1200000   -0.1200000   1.015252e-03  1.866303e-06
    476    505   2   0.50000    -0.1200000    0.0600000   2.494471e-04  1.671101e-07
    476    506   2   0.50000    -0.1200000    0.0600000   2.494471e-04  1.671101e-07
    503    479   2   0.50000     0.0600000   -0.1200000   2.494471e-04  1.671101e-07
    503    505   2   0.50000     0.0600000    0.0600000   6.128906e-05  1.496315e-08
    503    506   2   0.50000     0.0600000    0.0600000   6.128906e-05  1.496315e-08
    504    479   2   0.50000     0.0600000   -0.1200000   2.494471e-04  1.671101e-07
    504    505   2   0.50000     0.0600000    0.0600000   6.128906e-05  1.496315e-08
    504    506   2   0.50000     0.0600000    0.0600000   6.128906e-05  1.496315e-08
    477    480   2   0.50000    -0.1200000   -0.1200000   1.015252e-03  1.866303e-06
    477    507   2   0.50000    -0.1200000    0.0600000   2.494471e-04  1.671101e-07
    477    508   2   0.50000    -0.1200000    0.0600000   2.494471e-04  1.671101e-07
    505    480   2   0.50000     0.0600000   -0.1200000   2.494471e-04  1.671101e-07
    505    507   2   0.50000     0.0600000    0.0600000   6.128906e-05  1.496315e-08
    505    508   2   0.50000     0.0600000    0.0600000   6.128906e-05  1.496315e-08
    506    480   2   0.50000     0.0600000   -0.1200000   2.494471e-04  1.671101e-07
    506    507   2   0.50000     0.0600000    0.0600000   6.128906e-05  1.496315e-08
    506    508   2   0.50000     0.0600000    0.0600000   6.128906e-05  1.496315e-08
    478    481   2   0.50000    -0.1200000   -0.1200000   1.015252e-03  1.866303e-06
    478    509   2   0.50000    -0.1200000    0.0600000   2.494471e-04  1.671101e-07
    478    510   2   0.50000    -0.1200000    0.0600000   2.494471e-04  1.671101e-07
    507    481   2   0.50000     0.0600000   -0.1200000   2.494471e-04  1.671101e-07
    507    509   2   0.50000     0.0600000    0.0600000   6.128906e-05  1.496315e-08
    507    510   2   0.50000     0.0600000    0.0600000   6.128906e-05  1.496315e-08
    508    481   2   0.50000     0.0600000   -0.1200000   2.494471e-04  1.671101e-07
    508    509   2   0.50000     0.0600000    0.0600000   6.128906e-05  1.496315e-08
    508    510   2   0.50000     0.0600000    0.0600000   6.128906e-05  1.496315e-08
    479    482   2   0.50000    -0.1200000    0.1900000   1.015252e-03  1.866303e-06
    479    511   2   0.50000    -0.1200000    0.0600000   2.494471e-04  1.671101e-07
    479    512   2   0.50000    -0.1200000    0.0600000   2.494471e-04  1.671101e-07
    509    482   2   0.50000     0.0600000    0.1900000   2.494471e-04  1.671101e-07
    509    511   2   0.50000     0.0600000    0.0600000   6.128906e-05  1.496315e-08
    509    512   2   0.50000     0.0600000    0.0600000   6.128906e-05  1.496315e-08
    510    482   2   0.50000     0.0600000    0.1900000   2.494471e-04  1.671101e-07
    510    511   2   0.50000     0.0600000    0.0600000   6.128906e-05  1.496315e-08
    510    512   2   0.50000     0.0600000    0.0600000   6.128906e-05  1.496315e-08
    480    483   2   0.50000    -0.1200000   -0.3300000   1.026091e-03  1.187829e-06
    480    513   2   0.50000    -0.1200000    0.0300000   1.599888e-04  9.721644e-08
    480    514   2   0.50000    -0.1200000    0.0300000   1.599888e-04  9.721644e-08
    511    483   2   0.50000     0.0600000   -0.3300000   2.521103e-04  1.063590e-07
    511    513   2   0.50000     0.0600000    0.0300000   3.930919e-05  8.704828e-09
    511    514   2   0.50000     0.0600000    0.0300000   3.930919e-05  8.704828e-09
    512    483   2   0.50000     0.0600000   -0.3300000   2.521103e-04  1.063590e-07
    512    513   2   0.50000     0.0600000    0.0300000   3.930919e-05  8.704828e-09
    512    514   2   0.50000     0.0600000    0.0300000   3.930919e-05  8.704828e-09
    481    484   2   0.50000    -0.1200000    0.6250000   1.575021e-03  3.561100e-06
    513    484   2   0.50000     0.0300000    0.6250000   2.482000e-04  1.854991e-07
    514    484   2   0.50000     0.0300000    0.6250000   2.482000e-04  1.854991e-07
    482    485   2   0.50000     0.1900000   -0.4300000   1.095425e-03  1.218041e-06
    482    486   2   0.50000     0.1900000   -0.1150000   1.091018e-03  2.092768e-06
    483    487   2   0.50000    -0.3300000   -0.1150000   1.102666e-03  1.331965e-06
    483    494   2   0.50000    -0.3300000   -0.1150000   1.102666e-03  1.331965e-06
    485    487   2   0.50000    -0.4300000   -0.1150000   1.177174e-03  1.365843e-06
    485    494   2   0.50000    -0.4300000   -0.1150000   1.177174e-03  1.365843e-06
    484    488   2   0.50000     0.6250000   -0.1150000   1.692561e-03  3.993218e-06
    484    515   2   0.50000     0.6250000    0.1150000   3.510079e-04  2.623353e-07
    494    488   2   0.50000    -0.1150000   -0.1150000   1.172438e-03  2.346713e-06
    494    515   2   0.50000    -0.1150000    0.1150000   2.431434e-04  1.541678e-07
    484    493   2   0.50000     0.6250000   -0.1150000   1.692561e-03  3.993218e-06
    484    518   2   0.50000     0.6250000    0.1150000   3.510079e-04  2.623353e-07
    487    493   2   0.50000    -0.1150000   -0.1150000   1.172438e-03  2.346713e-06
    487    518   2   0.50000    -0.1150000    0.1150000   2.431434e-04  1.541678e-07
    486    489   2   0.50000    -0.1150000   -0.1150000   1.172438e-03  2.346713e-06
    486    516   2   0.50000    -0.1150000    0.1150000   2.431434e-04  1.541678e-07
    515    489   2   0.50000     0.1150000   -0.1150000   2.431434e-04  1.541678e-07
    515    516   2   0.50000     0.1150000    0.1150000   5.042375e-05  1.012808e-08
    487    490   2   0.50000    -0.1150000    0.6250000   1.692561e-03  3.993218e-06
    516    490   2   0.50000     0.1150000    0.6250000   3.510079e-04  2.623353e-07
    516    493   2   0.50000     0.1150000   -0.1150000   2.431434e-04  1.541678e-07
    488    491   2   0.50000    -0.1150000   -0.4300000   1.177174e-03  1.365843e-06
    488    492   2   0.50000    -0.1150000   -0.0800000   1.102666e-03  1.331965e-06
    493    491   2   0.50000    -0.1150000   -0.4300000   1.177174e-03  1.365843e-06
    493    492   2   0.50000    -0.1150000   -0.0800000   1.102666e-03  1.331965e-06
    488    517   2   0.50000    -0.1150000    0.1150000   2.431434e-04  1.541678e-07
    490    494   2   0.50000     0.6250000   -0.1150000   1.692561e-03  3.993218e-06
    490    517   2   0.50000     0.6250000    0.1150000   3.510079e-04  2.623353e-07
    489    519   2   0.50000    -0.1150000   -0.2000000   9.038862e-04  9.862632e-07
    491    519   2   0.50000    -0.4300000   -0.2000000   9.075373e-04  5.740287e-07
    490    520   2   0.50000     0.6250000    0.0800000   1.575021e-03  3.561100e-06
    489    518   2   0.50000    -0.1150000    0.1150000   2.431434e-04  1.541678e-07
    517    486   2   0.50000     0.1150000   -0.1150000   2.431434e-04  1.541678e-07
    517    518   2   0.50000     0.1150000    0.1150000   5.042375e-05  1.012808e-08
    492    521   2   0.50000    -0.0800000   -0.1200000   1.026091e-03  1.187829e-06
    492    542   2   0.50000    -0.0800000    0.0600000   2.521103e-04  1.063590e-07
    492    543   2   0.50000    -0.0800000    0.0600000   2.521103e-04  1.063590e-07
    519    522   2   0.50000    -0.2000000   -0.1200000   8.411158e-04  8.795366e-07
    519    544   2   0.50000    -0.2000000    0.0600000   2.066619e-04  7.875431e-08
    519    545   2   0.50000    -0.2000000    0.0600000   2.066619e-04  7.875431e-08
    542    522   2   0.50000     0.0600000   -0.1200000   2.494471e-04  1.671101e-07
    542    544   2   0.50000     0.0600000    0.0600000   6.128906e-05  1.496315e-08
    542    545   2   0.50000     0.0600000    0.0600000   6.128906e-05  1.496315e-08
    543    522   2   0.50000     0.0600000   -0.1200000   2.494471e-04  1.671101e-07
    543    544   2   0.50000     0.0600000    0.0600000   6.128906e-05  1.496315e-08
    543    545   2   0.50000     0.0600000    0.0600000   6.128906e-05  1.496315e-08
    520    523   2   0.50000     0.0800000   -0.1200000   1.015252e-03  1.866303e-06
    520    546   2   0.50000     0.0800000    0.0600000   2.494471e-04  1.671101e-07
    520    547   2   0.50000     0.0800000    0.0600000   2.494471e-04  1.671101e-07
    544    523   2   0.50000     0.0600000   -0.1200000   2.494471e-04  1.671101e-07
    544    546   2   0.50000     0.0600000    0.0600000   6.128906e-05  1.496315e-08
    544    547   2   0.50000     0.0600000    0.0600000   6.128906e-05  1.496315e-08
    545    523   2   0.50000     0.0600000   -0.1200000   2.494471e-04  1.671101e-07
    545    546   2   0.50000     0.0600000    0.0600000   6.128906e-05  1.496315e-08
    545    547   2   0.50000     0.0600000    0.0600000   6.128906e-05  1.496315e-08
    521    524   2   0.50000    -0.1200000   -0.1200000   1.015252e-03  1.866303e-06
    521    548   2   0.50000    -0.1200000    0.0600000   2.494471e-04  1.671101e-07
    521    549   2   0.50000    -0.1200000    0.0600000   2.494471e-04  1.671101e-07
    546    524   2   0.50000     0.0600000   -0.1200000   2.494471e-04  1.671101e-07
    546    548   2   0.50000     0.0600000    0.0600000   6.128906e-05  1.496315e-08
    546    549   2   0.50000     0.0600000    0.0600000   6.128906e-05  1.496315e-08
    547    524   2   0.50000     0.0600000   -0.1200000   2.494471e-04  1.671101e-07
    547    548   2   0.50000     0.0600000    0.0600000   6.128906e-05  1.496315e-08
    547    549   2   0.50000     0.0600000    0.0600000   6.128906e-05  1.496315e-08
    522    525   2   0.50000    -0.1200000   -0.1200000   1.015252e-03  1.866303e-06
    522    550   2   0.50000    -0.1200000    0.0600000   2.494471e-04  1.671101e-07
    522    551   2   0.50000    -0.1200000    0.0600000   2.494471e-04  1.671101e-07
    548    525   2   0.50000     0.0600000   -0.1200000   2.494471e-04  1.671101e-07
    548    550   2   0.50000     0.0600000    0.0600000   6.128906e-05  1.496315e-08
    548    551   2   0.50000     0.0600000    0.0600000   6.128906e-05  1.496315e-08
    549    525   2   0.50000     0.0600000   -0.1200000   2.494471e-04  1.671101e-07
    549    550   2   0.50000     0.0600000    0.0600000   6.128906e-05  1.496315e-08
    549    551   2   0.50000     0.0600000    0.0600000   6.128906e-05  1.496315e-08
    523    526   2   0.50000    -0.1200000   -0.1200000   1.015252e-03  1.866303e-06
    523    552   2   0.50000    -0.1200000    0.0600000   2.494471e-04  1.671101e-07
    523    553   2   0.50000    -0.1200000    0.0600000   2.494471e-04  1.671101e-07
    550    526   2   0.50000     0.0600000   -0.1200000   2.494471e-04  1.671101e-07
    550    552   2   0.50000     0.0600000    0.0600000   6.128906e-05  1.496315e-08
    550    553   2   0.50000     0.0600000    0.0600000   6.128906e-05  1.496315e-08
    551    526   2   0.50000     0.0600000   -0.1200000   2.494471e-04  1.671101e-07
    551    552   2   0.50000     0.0600000    0.0600000   6.128906e-05  1.496315e-08
    551    553   2   0.50000     0.0600000    0.0600000   6.128906e-05  1.496315e-08
    524    527   2   0.50000    -0.1200000   -0.1200000   1.015252e-03  1.866303e-06
    524    554   2   0.50000    -0.1200000    0.0600000   2.494471e-04  1.671101e-07
    524    555   2   0.50000    -0.1200000    0.0600000   2.494471e-04  1.671101e-07
    552    527   2   0.50000     0.0600000   -0.1200000   2.494471e-04  1.671101e-07
    552    554   2   0.50000     0.0600000    0.0600000   6.128906e-05  1.496315e-08
    552    555   2   0.50000     0.0600000    0.0600000   6.128906e-05  1.496315e-08
    553    527   2   0.50000     0.0600000   -0.1200000   2.494471e-04  1.671101e-07
    553    554   2   0.50000     0.0600000    0.0600000   6.128906e-05  1.496315e-08
    553    555   2   0.50000     0.0600000    0.0600000   6.128906e-05  1.496315e-08
    525    528   2   0.50000    -0.1200000   -0.1200000   1.015252e-03  1.866303e-06
    525    556   2   0.50000    -0.1200000    0.0600000   2.494471e-04  1.671101e-07
    525    557   2   0.50000    -0.1200000    0.0600000   2.494471e-04  1.671101e-07
    554    528   2   0.50000     0.0600000   -0.1200000   2.494471e-04  1.671101e-07
    554    556   2   0.50000     0.0600000    0.0600000   6.128906e-05  1.496315e-08
    554    557   2   0.50000     0.0600000    0.0600000   6.128906e-05  1.496315e-08
    555    528   2   0.50000     0.0600000   -0.1200000   2.494471e-04  1.671101e-07
    555    556   2   0.50000     0.0600000    0.0600000   6.128906e-05  1.496315e-08
    555    557   2   0.50000     0.0600000    0.0600000   6.128906e-05  1.496315e-08
    526    529   2   0.50000    -0.1200000    0.1900000   1.015252e-03  1.866303e-06
    526    558   2   0.50000    -0.1200000    0.0600000   2.494471e-04  1.671101e-07
    526    559   2   0.50000    -0.1200000    0.0600000   2.494471e-04  1.671101e-07
    556    529   2   0.50000     0.0600000    0.1900000   2.494471e-04  1.671101e-07
    556    558   2   0.50000     0.0600000    0.0600000   6.128906e-05  1.496315e-08
    556    559   2   0.50000     0.0600000    0.0600000   6.128906e-05  1.496315e-08
    557    529   2   0.50000     0.0600000    0.1900000   2.494471e-04  1.671101e-07
    557    558   2   0.50000     0.0600000    0.0600000   6.128906e-05  1.496315e-08
    557    559   2   0.50000     0.0600000    0.0600000   6.128906e-05  1.496315e-08
    527    530   2   0.50000    -0.1200000   -0.3300000   1.026091e-03  1.187829e-06
    527    560   2   0.50000    -0.1200000    0.0300000   1.599888e-04  9.721644e-08
    527    561   2   0.50000    -0.1200000    0.0300000   1.599888e-04  9.721644e-08
    558    530   2   0.50000     0.0600000   -0.3300000   2.521103e-04  1.063590e-07
    558    560   2   0.50000     0.0600000    0.0300000   3.930919e-05  8.704828e-09
    558    561   2   0.50000     0.0600000    0.0300000   3.930919e-05  8.704828e-09
    559    530   2   0.50000     0.0600000   -0.3300000   2.521103e-04  1.063590e-07
    559    560   2   0.50000     0.0600000    0.0300000   3.930919e-05  8.704828e-09
    559    561   2   0.50000     0.0600000    0.0300000   3.930919e-05  8.704828e-09
    528    531   2   0.50000    -0.1200000    0.6250000   1.575021e-03  3.561100e-06
    560    531   2   0.50000     0.0300000    0.6250000   2.482000e-04  1.854991e-07
    561    531   2   0.50000     0.0300000    0.6250000   2.482000e-04  1.854991e-07
    529    532   2   0.50000     0.1900000   -0.4300000   1.095425e-03  1.218041e-06
    529    533   2   0.50000     0.1900000   -0.1150000   1.091018e-03  2.092768e-06
    530    534   2   0.50000    -0.3300000   -0.1150000   1.102666e-03  1.331965e-06
    530    541   2   0.50000    -0.3300000   -0.1150000   1.102666e-03  1.331965e-06
    532    534   2   0.50000    -0.4300000   -0.1150000   1.177174e-03  1.365843e-06
    532    541   2   0.50000    -0.4300000   -0.1150000   1.177174e-03  1.365843e-06
    531    535   2   0.50000     0.6250000   -0.1150000   1.692561e-03  3.993218e-06
    531    562   2   0.50000     0.6250000    0.1150000   3.510079e-04  2.623353e-07
    541    535   2   0.50000    -0.1150000   -0.1150000   1.172438e-03  2.346713e-06
    541    562   2   0.50000    -0.1150000    0.1150000   2.431434e-04  1.541678e-07
    531    540   2   0.50000     0.6250000   -0.1150000   1.692561e-03  3.993218e-06
    531    565   2   0.50000     0.6250000    0.1150000   3.510079e-04  2.623353e-07
    534    540   2   0.50000    -0.1150000   -0.1150000   1.172438e-03  2.346713e-06
    534    565   2   0.50000    -0.1150000    0.1150000   2.431434e-04  1.541678e-07
    533    536   2   0.50000    -0.1150000   -0.1150000   1.172438e-03  2.346713e-06
    533    563   2   0.50000    -0.1150000    0.1150000   2.431434e-04  1.541678e-07
    562    536   2   0.50000     0.1150000   -0.1150000   2.431434e-04  1.541678e-07
    562    563   2   0.50000     0.1150000    0.1150000   5.042375e-05  1.012808e-08
    534    537   2   0.50000    -0.1150000    0.6250000   1.692561e-03  3.993218e-06
    563    537   2   0.50000     0.1150000    0.6250000   3.510079e-04  2.623353e-07
    563    540   2   0.50000     0.1150000   -0.1150000   2.431434e-04  1.541678e-07
    535    538   2   0.50000    -0.1150000   -0.4300000   1.177174e-03  1.365843e-06
    535    539   2   0.50000    -0.1150000   -0.0800000   1.102666e-03  1.331965e-06
    540    538   2   0.50000    -0.1150000   -0.4300000   1.177174e-03  1.365843e-06
    540    539   2   0.50000    -0.1150000   -0.0800000   1.102666e-03  1.331965e-06
    535    564   2   0.50000    -0.1150000    0.1150000   2.431434e-04  1.541678e-07
    537    541   2   0.50000     0.6250000   -0.1150000   1.692561e-03  3.993218e-06
    537    564   2   0.50000     0.6250000    0.1150000   3.510079e-04  2.623353e-07
    536    566   2   0.50000    -0.1150000   -0.2000000   9.038862e-04  9.862632e-07
    538    566   2   0.50000    -0.4300000   -0.2000000   9.075373e-04  5.740287e-07
    537    567   2   0.50000     0.6250000    0.0800000   1.575021e-03  3.561100e-06
    536    565   2   0.50000    -0.1150000    0.1150000   2.431434e-04  1.541678e-07
    564    533   2   0.50000     0.1150000   -0.1150000   2.431434e-04  1.541678e-07
    564    565   2   0.50000     0.1150000    0.1150000   5.042375e-05  1.012808e-08
    539    568   2   0.50000    -0.0800000   -0.1200000   1.026091e-03  1.187829e-06
    539    589   2   0.50000    -0.0800000    0.0600000   2.521103e-04  1.063590e-07
    539    590   2   0.50000    -0.0800000    0.0600000   2.521103e-04  1.063590e-07
    566    569   2   0.50000    -0.2000000   -0.1200000   8.411158e-04  8.795366e-07
    566    591   2   0.50000    -0.2000000    0.0600000   2.066619e-04  7.875431e-08
    566    592   2   0.50000    -0.2000000    0.0600000   2.066619e-04  7.875431e-08
    589    569   2   0.50000     0.0600000   -0.1200000   2.494471e-04  1.671101e-07
    589    591   2   0.50000     0.0600000    0.0600000   6.128906e-05  1.496315e-08
    589    592   2   0.50000     0.0600000    0.0600000   6.128906e-05  1.496315e-08
    590    569   2   0.50000     0.0600000   -0.1200000   2.494471e-04  1.671101e-07
    590    591   2   0.50000     0.0600000    0.0600000   6.128906e-05  1.496315e-08
    590    592   2   0.50000     0.0600000    0.0600000   6.128906e-05  1.496315e-08
    567    570   2   0.50000     0.0800000   -0.1200000   1.015252e-03  1.866303e-06
    567    593   2   0.50000     0.0800000    0.0600000   2.494471e-04  1.671101e-07
    567    594   2   0.50000     0.0800000    0.0600000   2.494471e-04  1.671101e-07
    591    570   2   0.50000     0.0600000   -0.1200000   2.494471e-04  1.671101e-07
    591    593   2   0.50000     0.0600000    0.0600000   6.128906e-05  1.496315e-08
    591    594   2   0.50000     0.0600000    0.0600000   6.128906e-05  1.496315e-08
    592    570   2   0.50000     0.0600000   -0.1200000   2.494471e-04  1.671101e-07
    592    593   2   0.50000     0.0600000    0.0600000   6.128906e-05  1.496315e-08
    592    594   2   0.50000     0.0600000    0.0600000   6.128906e-05  1.496315e-08
    568    571   2   0.50000    -0.1200000   -0.1200000   1.015252e-03  1.866303e-06
    568    595   2   0.50000    -0.1200000    0.0600000   2.494471e-04  1.671101e-07
    568    596   2   0.50000    -0.1200000    0.0600000   2.494471e-04  1.671101e-07
    593    571   2   0.50000     0.0600000   -0.1200000   2.494471e-04  1.671101e-07
    593    595   2   0.50000     0.0600000    0.0600000   6.128906e-05  1.496315e-08
    593    596   2   0.50000     0.0600000    0.0600000   6.128906e-05  1.496315e-08
    594    571   2   0.50000     0.0600000   -0.1200000   2.494471e-04  1.671101e-07
    594    595   2   0.50000     0.0600000    0.0600000   6.128906e-05  1.496315e-08
    594    596   2   0.50000     0.0600000    0.0600000   6.128906e-05  1.496315e-08
    569    572   2   0.50000    -0.1200000   -0.1200000   1.015252e-03  1.866303e-06
    569    597   2   0.50000    -0.1200000    0.0600000   2.494471e-04  1.671101e-07
    569    598   2   0.50000    -0.1200000    0.0600000   2.494471e-04  1.671101e-07
    595    572   2   0.50000     0.0600000   -0.1200000   2.494471e-04  1.671101e-07
    595    597   2   0.50000     0.0600000    0.0600000   6.128906e-05  1.496315e-08
    595    598   2   0.50000     0.0600000    0.0600000   6.128906e-05  1.496315e-08
    596    572   2   0.50000     0.0600000   -0.1200000   2.494471e-04  1.671101e-07
    596    597   2   0.50000     0.0600000    0.0600000   6.128906e-05  1.496315e-08
    596    598   2   0.50000     0.0600000    0.0600000   6.128906e-05  1.496315e-08
    570    573   2   0.50000    -0.1200000   -0.1200000   1.015252e-03  1.866303e-06
    570    599   2   0.50000    -0.1200000    0.0600000   2.494471e-04  1.671101e-07
    570    600   2   0.50000    -0.1200000    0.0600000   2.494471e-04  1.671101e-07
    597    573   2   0.50000     0.0600000   -0.1200000   2.494471e-04  1.671101e-07
    597    599   2   0.50000     0.0600000    0.0600000   6.128906e-05  1.496315e-08
    597    600   2   0.50000     0.0600000    0.0600000   6.128906e-05  1.496315e-08
    598    573   2   0.50000     0.0600000   -0.1200000   2.494471e-04  1.671101e-07
    598    599   2   0.50000     0.0600000    0.0600000   6.128906e-05  1.496315e-08
    598    600   2   0.50000     0.0600000    0.0600000   6.128906e-05  1.496315e-08
    571    574   2   0.50000    -0.1200000   -0.1200000   1.015252e-03  1.866303e-06
    571    601   2   0.50000    -0.1200000    0.0600000   2.494471e-04  1.671101e-07
    571    602   2   0.50000    -0.1200000    0.0600000   2.494471e-04  1.671101e-07
    599    574   2   0.50000     0.0600000   -0.1200000   2.494471e-04  1.671101e-07
    599    601   2   0.50000     0.0600000    0.0600000   6.128906e-05  1.496315e-08
    599    602   2   0.50000     0.0600000    0.0600000   6.128906e-05  1.496315e-08
    600    574   2   0.50000     0.0600000   -0.1200000   2.494471e-04  1.671101e-07
    600    601   2   0.50000     0.0600000    0.0600000   6.128906e-05  1.496315e-08
    600    602   2   0.50000     0.0600000    0.0600000   6.128906e-05  1.496315e-08
    572    575   2   0.50000    -0.1200000   -0.1200000   1.015252e-03  1.866303e-06
    572    603   2   0.50000    -0.1200000    0.0600000   2.494471e-04  1.671101e-07
    572    604   2   0.50000    -0.1200000    0.0600000   2.494471e-04  1.671101e-07
    601    575   2   0.50000     0.0600000   -0.1200000   2.494471e-04  1.671101e-07
    601    603   2   0.50000     0.0600000    0.0600000   6.128906e-05  1.496315e-08
    601    604   2   0.50000     0.0600000    0.0600000   6.128906e-05  1.496315e-08
    602    575   2   0.50000     0.0600000   -0.1200000   2.494471e-04  1.671101e-07
    602    603   2   0.50000     0.0600000    0.0600000   6.128906e-05  1.496315e-08
    602    604   2   0.50000     0.0600000    0.0600000   6.128906e-05  1.496315e-08
    573    576   2   0.50000    -0.1200000    0.1900000   1.015252e-03  1.866303e-06
    573    605   2   0.50000    -0.1200000    0.0600000   2.494471e-04  1.671101e-07
    573    606   2   0.50000    -0.1200000    0.0600000   2.494471e-04  1.671101e-07
    603    576   2   0.50000     0.0600000    0.1900000   2.494471e-04  1.671101e-07
    603    605   2   0.50000     0.0600000    0.0600000   6.128906e-05  1.496315e-08
    603    606   2   0.50000     0.0600000    0.0600000   6.128906e-05  1.496315e-08
    604    576   2   0.50000     0.0600000    0.1900000   2.494471e-04  1.671101e-07
    604    605   2   0.50000     0.0600000    0.0600000   6.128906e-05  1.496315e-08
    604    606   2   0.50000     0.0600000    0.0600000   6.128906e-05  1.496315e-08
    574    577   2   0.50000    -0.1200000   -0.3300000   1.026091e-03  1.187829e-06
    574    607   2   0.50000    -0.1200000    0.0300000   1.599888e-04  9.721644e-08
    574    608   2   0.50000    -0.1200000    0.0300000   1.599888e-04  9.721644e-08
    605    577   2   0.50000     0.0600000   -0.3300000   2.521103e-04  1.063590e-07
    605    607   2   0.50000     0.0600000    0.0300000   3.930919e-05  8.704828e-09
    605    608   2   0.50000     0.0600000    0.0300000   3.930919e-05  8.704828e-09
    606    577   2   0.50000     0.0600000   -0.3300000   2.521103e-04  1.063590e-07
    606    607   2   0.50000     0.0600000    0.0300000   3.930919e-05  8.704828e-09
    606    608   2   0.50000     0.0600000    0.0300000   3.930919e-05  8.704828e-09
    575    578   2   0.50000    -0.1200000    0.6250000   1.575021e-03  3.561100e-06
    607    578   2   0.50000     0.0300000    0.6250000   2.482000e-04  1.854991e-07
    608    578   2   0.50000     0.0300000    0.6250000   2.482000e-04  1.854991e-07
    576    579   2   0.50000     0.1900000   -0.4300000   1.095425e-03  1.218041e-06
    576    580   2   0.50000     0.1900000   -0.1150000   1.091018e-03  2.092768e-06
    577    581   2   0.50000    -0.3300000   -0.1150000   1.102666e-03  1.331965e-06
    577    588   2   0.50000    -0.3300000   -0.1150000   1.102666e-03  1.331965e-06
    579    581   2   0.50000    -0.4300000   -0.1150000   1.177174e-03  1.365843e-06
    579    588   2   0.50000    -0.4300000   -0.1150000   1.177174e-03  1.365843e-06
    578    582   2   0.50000     0.6250000   -0.1150000   1.692561e-03  3.993218e-06
    578    609   2   0.50000     0.6250000    0.1150000   3.510079e-04  2.623353e-07
    588    582   2   0.50000    -0.1150000   -0.1150000   1.172438e-03  2.346713e-06
    588    609   2   0.50000    -0.1150000    0.1150000   2.431434e-04  1.541678e-07
    578    587   2   0.50000     0.6250000   -0.1150000   1.692561e-03  3.993218e-06
    578    612   2   0.50000     0.6250000    0.1150000   3.510079e-04  2.623353e-07
    581    587   2   0.50000    -0.1150000   -0.1150000   1.172438e-03  2.346713e-06
    581    612   2   0.50000    -0.1150000    0.1150000   2.431434e-04  1.541678e-07
    580    583   2   0.50000    -0.1150000   -0.1150000   1.172438e-03  2.346713e-06
    580    610   2   0.50000    -0.1150000    0.1150000   2.431434e-04  1.541678e-07
    609    583   2   0.50000     0.1150000   -0.1150000   2.431434e-04  1.541678e-07
    609    610   2   0.50000     0.1150000    0.1150000   5.042375e-05  1.012808e-08
    581    584   2   0.50000    -0.1150000    0.6250000   1.692561e-03  3.993218e-06
    610    584   2   0.50000     0.1150000    0.6250000   3.510079e-04  2.623353e-07
    610    587   2   0.50000     0.1150000   -0.1150000   2.431434e-04  1.541678e-07
    582    585   2   0.50000    -0.1150000   -0.4300000   1.177174e-03  1.365843e-06
    582    586   2   0.50000    -0.1150000   -0.0800000   1.102666e-03  1.331965e-06
    587    585   2   0.50000    -0.1150000   -0.4300000   1.177174e-03  1.365843e-06
    587    586   2   0.50000    -0.1150000   -0.0800000   1.102666e-03  1.331965e-06
    582    611   2   0.50000    -0.1150000    0.1150000   2.431434e-04  1.541678e-07
    584    588   2   0.50000     0.6250000   -0.1150000   1.692561e-03  3.993218e-06
    584    611   2   0.50000     0.6250000    0.1150000   3.510079e-04  2.623353e-07
    583    613   2   0.50000    -0.1150000   -0.2000000   9.038862e-04  9.862632e-07
    585    613   2   0.50000    -0.4300000   -0.2000000   9.075373e-04  5.740287e-07
    584    614   2   0.50000     0.6250000    0.0800000   1.575021e-03  3.561100e-06
    583    612   2   0.50000    -0.1150000    0.1150000   2.431434e-04  1.541678e-07
    611    580   2   0.50000     0.1150000   -0.1150000   2.431434e-04  1.541678e-07
    611    612   2   0.50000     0.1150000    0.1150000   5.042375e-05  1.012808e-08
    586    615   2   0.50000    -0.0800000   -0.1200000   1.026091e-03  1.187829e-06
    586    636   2   0.50000    -0.0800000    0.0600000   2.521103e-04  1.063590e-07
    586    637   2   0.50000    -0.0800000    0.0600000   2.521103e-04  1.063590e-07
    613    616   2   0.50000    -0.2000000   -0.1200000   8.411158e-04  8.795366e-07
    613    638   2   0.50000    -0.2000000    0.0600000   2.066619e-04  7.875431e-08
    613    639   2   0.50000    -0.2000000    0.0600000   2.066619e-04  7.875431e-08
    636    616   2   0.50000     0.0600000   -0.1200000   2.494471e-04  1.671101e-07
    636    638   2   0.50000     0.0600000    0.0600000   6.128906e-05  1.496315e-08
    636    639   2   0.50000     0.0600000    0.0600000   6.128906e-05  1.496315e-08
    637    616   2   0.50000     0.0600000   -0.1200000   2.494471e-04  1.671101e-07
    637    638   2   0.50000     0.0600000    0.0600000   6.128906e-05  1.496315e-08
    637    639   2   0.50000     0.0600000    0.0600000   6.128906e-05  1.496315e-08
    614    617   2   0.50000     0.0800000   -0.1200000   1.015252e-03  1.866303e-06
    614    640   2   0.50000     0.0800000    0.0600000   2.494471e-04  1.671101e-07
    614    641   2   0.50000     0.0800000    0.0600000   2.494471e-04  1.671101e-07
    638    617   2   0.50000     0.0600000   -0.1200000   2.494471e-04  1.671101e-07
    638    640   2   0.50000     0.0600000    0.0600000   6.128906e-05  1.496315e-08
    638    641   2   0.50000     0.0600000    0.0600000   6.128906e-05  1.496315e-08
    639    617   2   0.50000     0.0600000   -0.1200000   2.494471e-04  1.671101e-07
    639    640   2   0.50000     0.0600000    0.0600000   6.128906e-05  1.496315e-08
    639    641   2   0.50000     0.0600000    0.0600000   6.128906e-05  1.496315e-08
    615    618   2   0.50000    -0.1200000   -0.1200000   1.015252e-03  1.866303e-06
    615    642   2   0.50000    -0.1200000    0.0600000   2.494471e-04  1.671101e-07
    615    643   2   0.50000    -0.1200000    0.0600000   2.494471e-04  1.671101e-07
    640    618   2   0.50000     0.0600000   -0.1200000   2.494471e-04  1.671101e-07
    640    642   2   0.50000     0.0600000    0.0600000   6.128906e-05  1.496315e-08
    640    643   2   0.50000     0.0600000    0.0600000   6.128906e-05  1.496315e-08
    641    618   2   0.50000     0.0600000   -0.1200000   2.494471e-04  1.671101e-07
    641    642   2   0.50000     0.0600000    0.0600000   6.128906e-05  1.496315e-08
    641    643   2   0.50000     0.0600000    0.0600000   6.128906e-05  1.496315e-08
    616    619   2   0.50000    -0.1200000   -0.1200000   1.015252e-03  1.866303e-06
    616    644   2   0.50000    -0.1200000    0.0600000   2.494471e-04  1.671101e-07
    616    645   2   0.50000    -0.1200000    0.0600000   2.494471e-04  1.671101e-07
    642    619   2   0.50000     0.0600000   -0.1200000   2.494471e-04  1.671101e-07
    642    644   2   0.50000     0.0600000    0.0600000   6.128906e-05  1.496315e-08
    642    645   2   0.50000     0.0600000    0.0600000   6.128906e-05  1.496315e-08
    643    619   2   0.50000     0.0600000   -0.1200000   2.494471e-04  1.671101e-07
    643    644   2   0.50000     0.0600000    0.0600000   6.128906e-05  1.496315e-08
    643    645   2   0.50000     0.0600000    0.0600000   6.128906e-05  1.496315e-08
    617    620   2   0.50000    -0.1200000   -0.1200000   1.015252e-03  1.866303e-06
    617    646   2   0.50000    -0.1200000    0.0600000   2.494471e-04  1.671101e-07
    617    647   2   0.50000    -0.1200000    0.0600000   2.494471e-04  1.671101e-07
    644    620   2   0.50000     0.0600000   -0.1200000   2.494471e-04  1.671101e-07
    644    646   2   0.50000     0.0600000    0.0600000   6.128906e-05  1.496315e-08
    644    647   2   0.50000     0.0600000    0.0600000   6.128906e-05  1.496315e-08
    645    620   2   0.50000     0.0600000   -0.1200000   2.494471e-04  1.671101e-07
    645    646   2   0.50000     0.0600000    0.0600000   6.128906e-05  1.496315e-08
    645    647   2   0.50000     0.0600000    0.0600000   6.128906e-05  1.496315e-08
    618    621   2   0.50000    -0.1200000   -0.1200000   1.015252e-03  1.866303e-06
    618    648   2   0.50000    -0.1200000    0.0600000   2.494471e-04  1.671101e-07
    618    649   2   0.50000    -0.1200000    0.0600000   2.494471e-04  1.671101e-07
    646    621   2   0.50000     0.0600000   -0.1200000   2.494471e-04  1.671101e-07
    646    648   2   0.50000     0.0600000    0.0600000   6.128906e-05  1.496315e-08
    646    649   2   0.50000     0.0600000    0.0600000   6.128906e-05  1.496315e-08
    647    621   2   0.50000     0.0600000   -0.1200000   2.494471e-04  1.671101e-07
    647    648   2   0.50000     0.0600000    0.0600000   6.128906e-05  1.496315e-08
    647    649   2   0.50000     0.0600000    0.0600000   6.128906e-05  1.496315e-08
    619    622   2   0.50000    -0.1200000   -0.1200000   1.015252e-03  1.866303e-06
    619    650   2   0.50000    -0.1200000    0.0600000   2.494471e-04  1.671101e-07
    619    651   2   0.50000    -0.1200000    0.0600000   2.494471e-04  1.671101e-07
    648    622   2   0.50000     0.0600000   -0.1200000   2.494471e-04  1.671101e-07
    648    650   2   0.50000     0.0600000    0.0600000   6.128906e-05  1.496315e-08
    648    651   2   0.50000     0.0600000    0.0600000   6.128906e-05  1.496315e-08
    649    622   2   0.50000     0.0600000   -0.1200000   2.494471e-04  1.671101e-07
    649    650   2   0.50000     0.0600000    0.0600000   6.128906e-05  1.496315e-08
    649    651   2   0.50000     0.0600000    0.0600000   6.128906e-05  1.496315e-08
    620    623   2   0.50000    -0.1200000    0.1900000   1.015252e-03  1.866303e-06
    620    652   2   0.50000    -0.1200000    0.0600000   2.494471e-04  1.671101e-07
    620    653   2   0.50000    -0.1200000    0.0600000   2.494471e-04  1.671101e-07
    650    623   2   0.50000     0.0600000    0.1900000   2.494471e-04  1.671101e-07
    650    652   2   0.50000     0.0600000    0.0600000   6.128906e-05  1.496315e-08
    650    653   2   0.50000     0.0600000    0.0600000   6.128906e-05  1.496315e-08
    651    623   2   0.50000     0.0600000    0.1900000   2.494471e-04  1.671101e-07
    651    652   2   0.50000     0.0600000    0.0600000   6.128906e-05  1.496315e-08
    651    653   2   0.50000     0.0600000    0.0600000   6.128906e-05  1.496315e-08
    621    624   2   0.50000    -0.1200000   -0.3300000   1.026091e-03  1.187829e-06
    621    654   2   0.50000    -0.1200000    0.0300000   1.599888e-04  9.721644e-08
    621    655   2   0.50000    -0.1200000    0.0300000   1.599888e-04  9.721644e-08
    652    624   2   0.50000     0.0600000   -0.3300000   2.521103e-04  1.063590e-07
    652    654   2   0.50000     0.0600000    0.0300000   3.930919e-05  8.704828e-09
    652    655   2   0.50000     0.0600000    0.0300000   3.930919e-05  8.704828e-09
    653    624   2   0.50000     0.0600000   -0.3300000   2.521103e-04  1.063590e-07
    653    654   2   0.50000     0.0600000    0.0300000   3.930919e-05  8.704828e-09
    653    655   2   0.50000     0.0600000    0.0300000   3.930919e-05  8.704828e-09
    622    625   2   0.50000    -0.1200000    0.6250000   1.575021e-03  3.561100e-06
    654    625   2   0.50000     0.0300000    0.6250000   2.482000e-04  1.854991e-07
    655    625   2   0.50000     0.0300000    0.6250000   2.482000e-04  1.854991e-07
    623    626   2   0.50000     0.1900000   -0.4300000   1.095425e-03  1.218041e-06
    623    627   2   0.50000     0.1900000   -0.1150000   1.091018e-03  2.092768e-06
    624    628   2   0.50000    -0.3300000   -0.1150000   1.102666e-03  1.331965e-06
    624    635   2   0.50000    -0.3300000   -0.1150000   1.102666e-03  1.331965e-06
    626    628   2   0.50000    -0.4300000   -0.1150000   1.177174e-03  1.365843e-06
    626    635   2   0.50000    -0.4300000   -0.1150000   1.177174e-03  1.365843e-06
    625    629   2   0.50000     0.6250000   -0.1150000   1.692561e-03  3.993218e-06
    625    656   2   0.50000     0.6250000    0.1150000   3.510079e-04  2.623353e-07
    635    629   2   0.50000    -0.1150000   -0.1150000   1.172438e-03  2.346713e-06
    635    656   2   0.50000    -0.1150000    0.1150000   2.431434e-04  1.541678e-07
    625    634   2   0.50000     0.6250000   -0.1150000   1.692561e-03  3.993218e-06
    625    659   2   0.50000     0.6250000    0.1150000   3.510079e-04  2.623353e-07
    628    634   2   0.50000    -0.1150000   -0.1150000   1.172438e-03  2.346713e-06
    628    659   2   0.50000    -0.1150000    0.1150000   2.431434e-04  1.541678e-07
    627    630   2   0.50000    -0.1150000   -0.1150000   1.172438e-03  2.346713e-06
    627    657   2   0.50000    -0.1150000    0.1150000   2.431434e-04  1.541678e-07
    656    630   2   0.50000     0.1150000   -0.1150000   2.431434e-04  1.541678e-07
    656    657   2   0.50000     0.1150000    0.1150000   5.042375e-05  1.012808e-08
    628    631   2   0.50000    -0.1150000    0.6250000   1.692561e-03  3.993218e-06
    657    631   2   0.50000     0.1150000    0.6250000   3.510079e-04  2.623353e-07
    657    634   2   0.50000     0.1150000   -0.1150000   2.431434e-04  1.541678e-07
    629    632   2   0.50000    -0.1150000   -0.4300000   1.177174e-03  1.365843e-06
    629    633   2   0.50000    -0.1150000   -0.0800000   1.102666e-03  1.331965e-06
    634    632   2   0.50000    -0.1150000   -0.4300000   1.177174e-03  1.365843e-06
    634    633   2   0.50000    -0.1150000   -0.0800000   1.102666e-03  1.331965e-06
    629    658   2   0.50000    -0.1150000    0.1150000   2.431434e-04  1.541678e-07
    631    635   2   0.50000     0.6250000   -0.1150000   1.692561e-03  3.993218e-06
    631    658   2   0.50000     0.6250000    0.1150000   3.510079e-04  2.623353e-07
    630    660   2   0.50000    -0.1150000   -0.2000000   9.038862e-04  9.862632e-07
    632    660   2   0.50000    -0.4300000   -0.2000000   9.075373e-04  5.740287e-07
    631    661   2   0.50000     0.6250000    0.0800000   1.575021e-03  3.561100e-06
    630    659   2   0.50000    -0.1150000    0.1150000   2.431434e-04  1.541678e-07
    658    627   2   0.50000     0.1150000   -0.1150000   2.431434e-04  1.541678e-07
    658    659   2   0.50000     0.1150000    0.1150000   5.042375e-05  1.012808e-08
    633    662   2   0.50000    -0.0800000   -0.1200000   1.026091e-03  1.187829e-06
    633    683   2   0.50000    -0.0800000    0.0600000   2.521103e-04  1.063590e-07
    633    684   2   0.50000    -0.0800000    0.0600000   2.521103e-04  1.063590e-07
    660    663   2   0.50000    -0.2000000   -0.1200000   8.411158e-04  8.795366e-07
    660    685   2   0.50000    -0.2000000    0.0600000   2.066619e-04  7.875431e-08
    660    686   2   0.50000    -0.2000000    0.0600000   2.066619e-04  7.875431e-08
    683    663   2   0.50000     0.0600000   -0.1200000   2.494471e-04  1.671101e-07
    683    685   2   0.50000     0.0600000    0.0600000   6.128906e-05  1.496315e-08
    683    686   2   0.50000     0.0600000    0.0600000   6.128906e-05  1.496315e-08
    684    663   2   0.50000     0.0600000   -0.1200000   2.494471e-04  1.671101e-07
    684    685   2   0.50000     0.0600000    0.0600000   6.128906e-05  1.496315e-08
    684    686   2   0.50000     0.0600000    0.0600000   6.128906e-05  1.496315e-08
    661    664   2   0.50000     0.0800000   -0.1200000   1.015252e-03  1.866303e-06
    661    687   2   0.50000     0.0800000    0.0600000   2.494471e-04  1.671101e-07
    661    688   2   0.50000     0.0800000    0.0600000   2.494471e-04  1.671101e-07
    685    664   2   0.50000     0.0600000   -0.1200000   2.494471e-04  1.671101e-07
    685    687   2   0.50000     0.0600000    0.0600000   6.128906e-05  1.496315e-08
    685    688   2   0.50000     0.0600000    0.0600000   6.128906e-05  1.496315e-08
    686    664   2   0.50000     0.0600000   -0.1200000   2.494471e-04  1.671101e-07
    686    687   2   0.50000     0.0600000    0.0600000   6.128906e-05  1.496315e-08
    686    688   2   0.50000     0.0600000    0.0600000   6.128906e-05  1.496315e-08
    662    665   2   0.50000    -0.1200000   -0.1200000   1.015252e-03  1.866303e-06
    662    689   2   0.50000    -0.1200000    0.0600000   2.494471e-04  1.671101e-07
    662    690   2   0.50000    -0.1200000    0.0600000   2.494471e-04  1.671101e-07
    687    665   2   0.50000     0.0600000   -0.1200000   2.494471e-04  1.671101e-07
    687    689   2   0.50000     0.0600000    0.0600000   6.128906e-05  1.496315e-08
    687    690   2   0.50000     0.0600000    0.0600000   6.128906e-05  1.496315e-08
    688    665   2   0.50000     0.0600000   -0.1200000   2.494471e-04  1.671101e-07
    688    689   2   0.50000     0.0600000    0.0600000   6.128906e-05  1.496315e-08
    688    690   2   0.50000     0.0600000    0.0600000   6.128906e-05  1.496315e-08
    663    666   2   0.50000    -0.1200000   -0.1200000   1.015252e-03  1.866303e-06
    663    691   2   0.50000    -0.1200000    0.0600000   2.494471e-04  1.671101e-07
    663    692   2   0.50000    -0.1200000    0.0600000   2.494471e-04  1.671101e-07
    689    666   2   0.50000     0.0600000   -0.1200000   2.494471e-04  1.671101e-07
    689    691   2   0.50000     0.0600000    0.0600000   6.128906e-05  1.496315e-08
    689    692   2   0.50000     0.0600000    0.0600000   6.128906e-05  1.496315e-08
    690    666   2   0.50000     0.0600000   -0.1200000   2.494471e-04  1.671101e-07
    690    691   2   0.50000     0.0600000    0.0600000   6.128906e-05  1.496315e-08
    690    692   2   0.50000     0.0600000    0.0600000   6.128906e-05  1.496315e-08
    664    667   2   0.50000    -0.1200000   -0.1200000   1.015252e-03  1.866303e-06
    664    693   2   0.50000    -0.1200000    0.0600000   2.494471e-04  1.671101e-07
    664    694   2   0.50000    -0.1200000    0.0600000   2.494471e-04  1.671101e-07
    691    667   2   0.50000     0.0600000   -0.1200000   2.494471e-04  1.671101e-07
    691    693   2   0.50000     0.0600000    0.0600000   6.128906e-05  1.496315e-08
    691    694   2   0.50000     0.0600000    0.0600000   6.128906e-05  1.496315e-08
    692    667   2   0.50000     0.0600000   -0.1200000   2.494471e-04  1.671101e-07
    692    693   2   0.50000     0.0600000    0.0600000   6.128906e-05  1.496315e-08
    692    694   2   0.50000     0.0600000    0.0600000   6.128906e-05  1.496315e-08
    665    668   2   0.50000    -0.1200000   -0.1200000   1.015252e-03  1.866303e-06
    665    695   2   0.50000    -0.1200000    0.0600000   2.494471e-04  1.671101e-07
    665    696   2   0.50000    -0.1200000    0.0600000   2.494471e-04  1.671101e-07
    693    668   2   0.50000     0.0600000   -0.1200000   2.494471e-04  1.671101e-07
    693    695   2   0.50000     0.0600000    0.0600000   6.128906e-05  1.496315e-08
    693    696   2   0.50000     0.0600000    0.0600000   6.128906e-05  1.496315e-08
    694    668   2   0.50000     0.0600000   -0.1200000   2.494471e-04  1.671101e-07
    694    695   2   0.50000     0.0600000    0.0600000   6.128906e-05  1.496315e-08
    694    696   2   0.50000     0.0600000    0.0600000   6.128906e-05  1.496315e-08
    666    669   2   0.50000    -0.1200000   -0.1200000   1.015252e-03  1.866303e-06
    666    697   2   0.50000    -0.1200000    0.0600000   2.494471e-04  1.671101e-07
    666    698   2   0.50000    -0.1200000    0.0600000   2.494471e-04  1.671101e-07
    695    669   2   0.50000     0.0600000   -0.1200000   2.494471e-04  1.671101e-07
    695    697   2   0.50000     0.0600000    0.0600000   6.128906e-05  1.496315e-08
    695    698   2   0.50000     0.0600000    0.0600000   6.128906e-05  1.496315e-08
    696    669   2   0.50000     0.0600000   -0.1200000   2.494471e-04  1.671101e-07
    696    697   2   0.50000     0.0600000    0.0600000   6.128906e-05  1.496315e-08
    696    698   2   0.50000     0.0600000    0.0600000   6.128906e-05  1.496315e-08
    667    670   2   0.50000    -0.1200000    0.1900000   1.015252e-03  1.866303e-06
    667    699   2   0.50000    -0.1200000    0.0600000   2.494471e-04  1.671101e-07
    667    700   2   0.50000    -0.1200000    0.0600000   2.494471e-04  1.671101e-07
    697    670   2   0.50000     0.0600000    0.1900000   2.494471e-04  1.671101e-07
    697    699   2   0.50000     0.0600000    0.0600000   6.128906e-05  1.496315e-08
    697    700   2   0.50000     0.0600000    0.0600000   6.128906e-05  1.496315e-08
    698    670   2   0.50000     0.0600000    0.1900000   2.494471e-04  1.671101e-07
    698    699   2   0.50000     0.0600000    0.0600000   6.128906e-05  1.496315e-08
    698    700   2   0.50000     0.0600000    0.0600000   6.128906e-05  1.496315e-08
    668    671   2   0.50000    -0.1200000   -0.3300000   1.026091e-03  1.187829e-06
    668    701   2   0.50000    -0.1200000    0.0300000   1.599888e-04  9.721644e-08
    668    702   2   0.50000    -0.1200000    0.0300000   1.599888e-04  9.721644e-08
    699    671   2   0.50000     0.0600000   -0.3300000   2.521103e-04  1.063590e-07
    699    701   2   0.50000     0.0600000    0.0300000   3.930919e-05  8.704828e-09
    699    702   2   0.50000     0.0600000    0.0300000   3.930919e-05  8.704828e-09
    700    671   2   0.50000     0.0600000   -0.3300000   2.521103e-04  1.063590e-07
    700    701   2   0.50000     0.0600000    0.0300000   3.930919e-05  8.704828e-09
    700    702   2   0.50000     0.0600000    0.0300000   3.930919e-05  8.704828e-09
    669    672   2   0.50000    -0.1200000    0.6250000   1.575021e-03  3.561100e-06
    701    672   2   0.50000     0.0300000    0.6250000   2.482000e-04  1.854991e-07
    702    672   2   0.50000     0.0300000    0.6250000   2.482000e-04  1.854991e-07
    670    673   2   0.50000     0.1900000   -0.4300000   1.095425e-03  1.218041e-06
    670    674   2   0.50000     0.1900000   -0.1150000   1.091018e-03  2.092768e-06
    671    675   2   0.50000    -0.3300000   -0.1150000   1.102666e-03  1.331965e-06
    671    682   2   0.50000    -0.3300000   -0.1150000   1.102666e-03  1.331965e-06
    673    675   2   0.50000    -0.4300000   -0.1150000   1.177174e-03  1.365843e-06
    673    682   2   0.50000    -0.4300000   -0.1150000   1.177174e-03  1.365843e-06
    672    676   2   0.50000     0.6250000   -0.1150000   1.692561e-03  3.993218e-06
    672    703   2   0.50000     0.6250000    0.1150000   3.510079e-04  2.623353e-07
    682    676   2   0.50000    -0.1150000   -0.1150000   1.172438e-03  2.346713e-06
    682    703   2   0.50000    -0.1150000    0.1150000   2.431434e-04  1.541678e-07
    672    681   2   0.50000     0.6250000   -0.1150000   1.692561e-03  3.993218e-06
    672    706   2   0.50000     0.6250000    0.1150000   3.510079e-04  2.623353e-07
    675    681   2   0.50000    -0.1150000   -0.1150000   1.172438e-03  2.346713e-06
    675    706   2   0.50000    -0.1150000    0.1150000   2.431434e-04  1.541678e-07
    674    677   2   0.50000    -0.1150000   -0.1150000   1.172438e-03  2.346713e-06
    674    704   2   0.50000    -0.1150000    0.1150000   2.431434e-04  1.541678e-07
    703    677   2   0.50000     0.1150000   -0.1150000   2.431434e-04  1.541678e-07
    703    704   2   0.50000     0.1150000    0.1150000   5.042375e-05  1.012808e-08
    675    678   2   0.50000    -0.1150000    0.6250000   1.692561e-03  3.993218e-06
    704    678   2   0.50000     0.1150000    0.6250000   3.510079e-04  2.623353e-07
    704    681   2   0.50000     0.1150000   -0.1150000   2.431434e-04  1.541678e-07
    676    679   2   0.50000    -0.1150000   -0.4300000   1.177174e-03  1.365843e-06
    676    680   2   0.50000    -0.1150000   -0.0800000   1.102666e-03  1.331965e-06
    681    679   2   0.50000    -0.1150000   -0.4300000   1.177174e-03  1.365843e-06
    681    680   2   0.50000    -0.1150000   -0.0800000   1.102666e-03  1.331965e-06
    676    705   2   0.50000    -0.1150000    0.1150000   2.431434e-04  1.541678e-07
    678    682   2   0.50000     0.6250000   -0.1150000   1.692561e-03  3.993218e-06
    678    705   2   0.50000     0.6250000    0.1150000   3.510079e-04  2.623353e-07
    677    707   2   0.50000    -0.1150000   -0.2000000   9.038862e-04  9.862632e-07
    679    707   2   0.50000    -0.4300000   -0.2000000   9.075373e-04  5.740287e-07
    678    708   2   0.50000     0.6250000    0.0800000   1.575021e-03  3.561100e-06
    677    706   2   0.50000    -0.1150000    0.1150000   2.431434e-04  1.541678e-07
    705    674   2   0.50000     0.1150000   -0.1150000   2.431434e-04  1.541678e-07
    705    706   2   0.50000     0.1150000    0.1150000   5.042375e-05  1.012808e-08
    680    709   2   0.50000    -0.0800000   -0.1200000   1.026091e-03  1.187829e-06
    680    730   2   0.50000    -0.0800000    0.0600000   2.521103e-04  1.063590e-07
    680    731   2   0.50000    -0.0800000    0.0600000   2.521103e-04  1.063590e-07
    707    710   2   0.50000    -0.2000000   -0.1200000   8.411158e-04  8.795366e-07
    707    732   2   0.50000    -0.2000000    0.0600000   2.066619e-04  7.875431e-08
    707    733   2   0.50000    -0.2000000    0.0600000   2.066619e-04  7.875431e-08
    730    710   2   0.50000     0.0600000   -0.1200000   2.494471e-04  1.671101e-07
    730    732   2   0.50000     0.0600000    0.0600000   6.128906e-05  1.496315e-08
    730    733   2   0.50000     0.0600000    0.0600000   6.128906e-05  1.496315e-08
    731    710   2   0.50000     0.0600000   -0.1200000   2.494471e-04  1.671101e-07
    731    732   2   0.50000     0.0600000    0.0600000   6.128906e-05  1.496315e-08
    731    733   2   0.50000     0.0600000    0.0600000   6.128906e-05  1.496315e-08
    708    711   2   0.50000     0.0800000   -0.1200000   1.015252e-03  1.866303e-06
    708    734   2   0.50000     0.0800000    0.0600000   2.494471e-04  1.671101e-07
    708    735   2   0.50000     0.0800000    0.0600000   2.494471e-04  1.671101e-07
    732    711   2   0.50000     0.0600000   -0.1200000   2.494471e-04  1.671101e-07
    732    734   2   0.50000     0.0600000    0.0600000   6.128906e-05  1.496315e-08
    732    735   2   0.50000     0.0600000    0.0600000   6.128906e-05  1.496315e-08
    733    711   2   0.50000     0.0600000   -0.1200000   2.494471e-04  1.671101e-07
    733    734   2   0.50000     0.0600000    0.0600000   6.128906e-05  1.496315e-08
    733    735   2   0.50000     0.0600000    0.0600000   6.128906e-05  1.496315e-08
    709    712   2   0.50000    -0.1200000   -0.1200000   1.015252e-03  1.866303e-06
    709    736   2   0.50000    -0.1200000    0.0600000   2.494471e-04  1.671101e-07
    709    737   2   0.50000    -0.1200000    0.0600000   2.494471e-04  1.671101e-07
    734    712   2   0.50000     0.0600000   -0.1200000   2.494471e-04  1.671101e-07
    734    736   2   0.50000     0.0600000    0.0600000   6.128906e-05  1.496315e-08
    734    737   2   0.50000     0.0600000    0.0600000   6.128906e-05  1.496315e-08
    735    712   2   0.50000     0.0600000   -0.1200000   2.494471e-04  1.671101e-07
    735    736   2   0.50000     0.0600000    0.0600000   6.128906e-05  1.496315e-08
    735    737   2   0.50000     0.0600000    0.0600000   6.128906e-05  1.496315e-08
    710    713   2   0.50000    -0.1200000   -0.1200000   1.015252e-03  1.866303e-06
    710    738   2   0.50000    -0.1200000    0.0600000   2.494471e-04  1.671101e-07
    710    739   2   0.50000    -0.1200000    0.0600000   2.494471e-04  1.671101e-07
    736    713   2   0.50000     0.0600000   -0.1200000   2.494471e-04  1.671101e-07
    736    738   2   0.50000     0.0600000    0.0600000   6.128906e-05  1.496315e-08
    736    739   2   0.50000     0.0600000    0.0600000   6.128906e-05  1.496315e-08
    737    713   2   0.50000     0.0600000   -0.1200000   2.494471e-04  1.671101e-07
    737    738   2   0.50000     0.0600000    0.0600000   6.128906e-05  1.496315e-08
    737    739   2   0.50000     0.0600000    0.0600000   6.128906e-05  1.496315e-08
    711    714   2   0.50000    -0.1200000   -0.1200000   1.015252e-03  1.866303e-06
    711    740   2   0.50000    -0.1200000    0.0600000   2.494471e-04  1.671101e-07
    711    741   2   0.50000    -0.1200000    0.0600000   2.494471e-04  1.671101e-07
    738    714   2   0.50000     0.0600000   -0.1200000   2.494471e-04  1.671101e-07
    738    740   2   0.50000     0.0600000    0.0600000   6.128906e-05  1.496315e-08
    738    741   2   0.50000     0.0600000    0.0600000   6.128906e-05  1.496315e-08
    739    714   2   0.50000     0.0600000   -0.1200000   2.494471e-04  1.671101e-07
    739    740   2   0.50000     0.0600000    0.0600000   6.128906e-05  1.496315e-08
    739    741   2   0.50000     0.0600000    0.0600000   6.128906e-05  1.496315e-08
    712    715   2   0.50000    -0.1200000   -0.1200000   1.015252e-03  1.866303e-06
    712    742   2   0.50000    -0.1200000    0.0600000   2.494471e-04  1.671101e-07
    712    743   2   0.50000    -0.1200000    0.0600000   2.494471e-04  1.671101e-07
    740    715   2   0.50000     0.0600000   -0.1200000   2.494471e-04  1.671101e-07
    740    742   2   0.50000     0.0600000    0.0600000   6.128906e-05  1.496315e-08
    740    743   2   0.50000     0.0600000    0.0600000   6.128906e-05  1.496315e-08
    741    715   2   0.50000     0.0600000   -0.1200000   2.494471e-04  1.671101e-07
    741    742   2   0.50000     0.0600000    0.0600000   6.128906e-05  1.496315e-08
    741    743   2   0.50000     0.0600000    0.0600000   6.128906e-05  1.496315e-08
    713    716   2   0.50000    -0.1200000   -0.1200000   1.015252e-03  1.866303e-06
    713    744   2   0.50000    -0.1200000    0.0600000   2.494471e-04  1.671101e-07
    713    745   2   0.50000    -0.1200000    0.0600000   2.494471e-04  1.671101e-07
    742    716   2   0.50000     0.0600000   -0.1200000   2.494471e-04  1.671101e-07
    742    744   2   0.50000     0.0600000    0.0600000   6.128906e-05  1.496315e-08
    742    745   2   0.50000     0.0600000    0.0600000   6.128906e-05  1.496315e-08
    743    716   2   0.50000     0.0600000   -0.1200000   2.494471e-04  1.671101e-07
    743    744   2   0.50000     0.0600000    0.0600000   6.128906e-05  1.496315e-08
    743    745   2   0.50000     0.0600000    0.0600000   6.128906e-05  1.496315e-08
    714    717   2   0.50000    -0.1200000    0.1900000   1.015252e-03  1.866303e-06
    714    746   2   0.50000    -0.1200000    0.0600000   2.494471e-04  1.671101e-07
    714    747   2   0.50000    -0.1200000    0.0600000   2.494471e-04  1.671101e-07
    744    717   2   0.50000     0.0600000    0.1900000   2.494471e-04  1.671101e-07
    744    746   2   0.50000     0.0600000    0.0600000   6.128906e-05  1.496315e-08
    744    747   2   0.50000     0.0600000    0.0600000   6.128906e-05  1.496315e-08
    745    717   2   0.50000     0.0600000    0.1900000   2.494471e-04  1.671101e-07
    745    746   2   0.50000     0.0600000    0.0600000   6.128906e-05  1.496315e-08
    745    747   2   0.50000     0.0600000    0.0600000   6.128906e-05  1.496315e-08
    715    718   2   0.50000    -0.1200000   -0.3300000   1.026091e-03  1.187829e-06
    715    748   2   0.50000    -0.1200000    0.0300000   1.599888e-04  9.721644e-08
    715    749   2   0.50000    -0.1200000    0.0300000   1.599888e-04  9.721644e-08
    746    718   2   0.50000     0.0600000   -0.3300000   2.521103e-04  1.063590e-07
    746    748   2   0.50000     0.0600000    0.0300000   3.930919e-05  8.704828e-09
    746    749   2   0.50000     0.0600000    0.0300000   3.930919e-05  8.704828e-09
    747    718   2   0.50000     0.0600000   -0.3300000   2.521103e-04  1.063590e-07
    747    748   2   0.50000     0.0600000    0.0300000   3.930919e-05  8.704828e-09
    747    749   2   0.50000     0.0600000    0.0300000   3.930919e-05  8.704828e-09
    716    719   2   0.50000    -0.1200000    0.6250000   1.575021e-03  3.561100e-06
    748    719   2   0.50000     0.0300000    0.6250000   2.482000e-04  1.854991e-07
    749    719   2   0.50000     0.0300000    0.6250000   2.482000e-04  1.854991e-07
    717    720   2   0.50000     0.1900000   -0.4300000   1.095425e-03  1.218041e-06
    717    721   2   0.50000     0.1900000   -0.1150000   1.091018e-03  2.092768e-06
    718    722   2   0.50000    -0.3300000   -0.1150000   1.102666e-03  1.331965e-06
    718    729   2   0.50000    -0.3300000   -0.1150000   1.102666e-03  1.331965e-06
    720    722   2   0.50000    -0.4300000   -0.1150000   1.177174e-03  1.365843e-06
    720    729   2   0.50000    -0.4300000   -0.1150000   1.177174e-03  1.365843e-06
    719    723   2   0.50000     0.6250000   -0.1150000   1.692561e-03  3.993218e-06
    719    750   2   0.50000     0.6250000    0.1150000   3.510079e-04  2.623353e-07
    729    723   2   0.50000    -0.1150000   -0.1150000   1.172438e-03  2.346713e-06
    729    750   2   0.50000    -0.1150000    0.1150000   2.431434e-04  1.541678e-07
    719    728   2   0.50000     0.6250000   -0.1150000   1.692561e-03  3.993218e-06
    719    753   2   0.50000     0.6250000    0.1150000   3.510079e-04  2.623353e-07
    722    728   2   0.50000    -0.1150000   -0.1150000   1.172438e-03  2.346713e-06
    722    753   2   0.50000    -0.1150000    0.1150000   2.431434e-04  1.541678e-07
    721    724   2   0.50000    -0.1150000   -0.1150000   1.172438e-03  2.346713e-06
    721    751   2   0.50000    -0.1150000    0.1150000   2.431434e-04  1.541678e-07
    750    724   2   0.50000     0.1150000   -0.1150000   2.431434e-04  1.541678e-07
    750    751   2   0.50000     0.1150000    0.1150000   5.042375e-05  1.012808e-08
    722    725   2   0.50000    -0.1150000    0.6250000   1.692561e-03  3.993218e-06
    751    725   2   0.50000     0.1150000    0.6250000   3.510079e-04  2.623353e-07
    751    728   2   0.50000     0.1150000   -0.1150000   2.431434e-04  1.541678e-07
    723    726   2   0.50000    -0.1150000   -0.4300000   1.177174e-03  1.365843e-06
    723    727   2   0.50000    -0.1150000   -0.0800000   1.102666e-03  1.331965e-06
    728    726   2   0.50000    -0.1150000   -0.4300000   1.177174e-03  1.365843e-06
    728    727   2   0.50000    -0.1150000   -0.0800000   1.102666e-03  1.331965e-06
    723    752   2   0.50000    -0.1150000    0.1150000   2.431434e-04  1.541678e-07
    725    729   2   0.50000     0.6250000   -0.1150000   1.692561e-03  3.993218e-06
    725    752   2   0.50000     0.6250000    0.1150000   3.510079e-04  2.623353e-07
    724    754   2   0.50000    -0.1150000   -0.2000000   9.038862e-04  9.862632e-07
    726    754   2   0.50000    -0.4300000   -0.2000000   9.075373e-04  5.740287e-07
    725    755   2   0.50000     0.6250000    0.0800000   1.575021e-03  3.561100e-06
    724    753   2   0.50000    -0.1150000    0.1150000   2.431434e-04  1.541678e-07
    752    721   2   0.50000     0.1150000   -0.1150000   2.431434e-04  1.541678e-07
    752    753   2   0.50000     0.1150000    0.1150000   5.042375e-05  1.012808e-08
    727    756   2   0.50000    -0.0800000   -0.1200000   1.026091e-03  1.187829e-06
    727    777   2   0.50000    -0.0800000    0.0600000   2.521103e-04  1.063590e-07
    727    778   2   0.50000    -0.0800000    0.0600000   2.521103e-04  1.063590e-07
    754    757   2   0.50000    -0.2000000   -0.1200000   8.411158e-04  8.795366e-07
    754    779   2   0.50000    -0.2000000    0.0600000   2.066619e-04  7.875431e-08
    754    780   2   0.50000    -0.2000000    0.0600000   2.066619e-04  7.875431e-08
    777    757   2   0.50000     0.0600000   -0.1200000   2.494471e-04  1.671101e-07
    777    779   2   0.50000     0.0600000    0.0600000   6.128906e-05  1.496315e-08
    777    780   2   0.50000     0.0600000    0.0600000   6.128906e-05  1.496315e-08
    778    757   2   0.50000     0.0600000   -0.1200000   2.494471e-04  1.671101e-07
    778    779   2   0.50000     0.0600000    0.0600000   6.128906e-05  1.496315e-08
    778    780   2   0.50000     0.0600000    0.0600000   6.128906e-05  1.496315e-08
    755    758   2   0.50000     0.0800000   -0.1200000   1.015252e-03  1.866303e-06
    755    781   2   0.50000     0.0800000    0.0600000   2.494471e-04  1.671101e-07
    755    782   2   0.50000     0.0800000    0.0600000   2.494471e-04  1.671101e-07
    779    758   2   0.50000     0.0600000   -0.1200000   2.494471e-04  1.671101e-07
    779    781   2   0.50000     0.0600000    0.0600000   6.128906e-05  1.496315e-08
    779    782   2   0.50000     0.0600000    0.0600000   6.128906e-05  1.496315e-08
    780    758   2   0.50000     0.0600000   -0.1200000   2.494471e-04  1.671101e-07
    780    781   2   0.50000     0.0600000    0.0600000   6.128906e-05  1.496315e-08
    780    782   2   0.50000     0.0600000    0.0600000   6.128906e-05  1.496315e-08
    756    759   2   0.50000    -0.1200000   -0.1200000   1.015252e-03  1.866303e-06
    756    783   2   0.50000    -0.1200000    0.0600000   2.494471e-04  1.671101e-07
    756    784   2   0.50000    -0.1200000    0.0600000   2.494471e-04  1.671101e-07
    781    759   2   0.50000     0.0600000   -0.1200000   2.494471e-04  1.671101e-07
    781    783   2   0.50000     0.0600000    0.0600000   6.128906e-05  1.496315e-08
    781    784   2   0.50000     0.0600000    0.0600000   6.128906e-05  1.496315e-08
    782    759   2   0.50000     0.0600000   -0.1200000   2.494471e-04  1.671101e-07
    782    783   2   0.50000     0.0600000    0.0600000   6.128906e-05  1.496315e-08
    782    784   2   0.50000     0.0600000    0.0600000   6.128906e-05  1.496315e-08
    757    760   2   0.50000    -0.1200000   -0.1200000   1.015252e-03  1.866303e-06
    757    785   2   0.50000    -0.1200000    0.0600000   2.494471e-04  1.671101e-07
    757    786   2   0.50000    -0.1200000    0.0600000   2.494471e-04  1.671101e-07
    783    760   2   0.50000     0.0600000   -0.1200000   2.494471e-04  1.671101e-07
    783    785   2   0.50000     0.0600000    0.0600000   6.128906e-05  1.496315e-08
    783    786   2   0.50000     0.0600000    0.0600000   6.128906e-05  1.496315e-08
    784    760   2   0.50000     0.0600000   -0.1200000   2.494471e-04  1.671101e-07
    784    785   2   0.50000     0.0600000    0.0600000   6.128906e-05  1.496315e-08
    784    786   2   0.50000     0.0600000    0.0600000   6.128906e-05  1.496315e-08
    758    761   2   0.50000    -0.1200000   -0.1200000   1.015252e-03  1.866303e-06
    758    787   2   0.50000    -0.1200000    0.0600000   2.494471e-04  1.671101e-07
    758    788   2   0.50000    -0.1200000    0.0600000   2.494471e-04  1.671101e-07
    785    761   2   0.50000     0.0600000   -0.1200000   2.494471e-04  1.671101e-07
    785    787   2   0.50000     0.0600000    0.0600000   6.128906e-05  1.496315e-08
    785    788   2   0.50000     0.0600000    0.0600000   6.128906e-05  1.496315e-08
    786    761   2   0.50000     0.0600000   -0.1200000   2.494471e-04  1.671101e-07
    786    787   2   0.50000     0.0600000    0.0600000   6.128906e-05  1.496315e-08
    786    788   2   0.50000     0.0600000    0.0600000   6.128906e-05  1.496315e-08
    759    762   2   0.50000    -0.1200000   -0.1200000   1.015252e-03  1.866303e-06
    759    789   2   0.50000    -0.1200000    0.0600000   2.494471e-04  1.671101e-07
    759    790   2   0.50000    -0.1200000    0.0600000   2.494471e-04  1.671101e-07
    787    762   2   0.50000     0.0600000   -0.1200000   2.494471e-04  1.671101e-07
    787    789   2   0.50000     0.0600000    0.0600000   6.128906e-05  1.496315e-08
    787    790   2   0.50000     0.0600000    0.0600000   6.128906e-05  1.496315e-08
    788    762   2   0.50000     0.0600000   -0.1200000   2.494471e-04  1.671101e-07
    788    789   2   0.50000     0.0600000    0.0600000   6.128906e-05  1.496315e-08
    788    790   2   0.50000     0.0600000    0.0600000   6.128906e-05  1.496315e-08
    760    763   2   0.50000    -0.1200000   -0.1200000   1.015252e-03  1.866303e-06
    760    791   2   0.50000    -0.1200000    0.0600000   2.494471e-04  1.671101e-07
    760    792   2   0.50000    -0.1200000    0.0600000   2.494471e-04  1.671101e-07
    789    763   2   0.50000     0.0600000   -0.1200000   2.494471e-04  1.671101e-07
    789    791   2   0.50000     0.0600000    0.0600000   6.128906e-05  1.496315e-08
    789    792   2   0.50000     0.0600000    0.0600000   6.128906e-05  1.496315e-08
    790    763   2   0.50000     0.0600000   -0.1200000   2.494471e-04  1.671101e-07
    790    791   2   0.50000     0.0600000    0.0600000   6.128906e-05  1.496315e-08
    790    792   2   0.50000     0.0600000    0.0600000   6.128906e-05  1.496315e-08
    761    764   2   0.50000    -0.1200000    0.1900000   1.015252e-03  1.866303e-06
    761    793   2   0.50000    -0.1200000    0.0600000   2.494471e-04  1.671101e-07
    761    794   2   0.50000    -0.1200000    0.0600000   2.494471e-04  1.671101e-07
    791    764   2   0.50000     0.0600000    0.1900000   2.494471e-04  1.671101e-07
    791    793   2   0.50000     0.0600000    0.0600000   6.128906e-05  1.496315e-08
    791    794   2   0.50000     0.0600000    0.0600000   6.128906e-05  1.496315e-08
    792    764   2   0.50000     0.0600000    0.1900000   2.494471e-04  1.671101e-07
    792    793   2   0.50000     0.0600000    0.0600000   6.128906e-05  1.496315e-08
    792    794   2   0.50000     0.0600000    0.0600000   6.128906e-05  1.496315e-08
    762    765   2   0.50000    -0.1200000   -0.3300000   1.026091e-03  1.187829e-06
    762    795   2   0.50000    -0.1200000    0.0300000   1.599888e-04  9.721644e-08
    762    796   2   0.50000    -0.1200000    0.0300000   1.599888e-04  9.721644e-08
    793    765   2   0.50000     0.0600000   -0.3300000   2.521103e-04  1.063590e-07
    793    795   2   0.50000     0.0600000    0.0300000   3.930919e-05  8.704828e-09
    793    796   2   0.50000     0.0600000    0.0300000   3.930919e-05  8.704828e-09
    794    765   2   0.50000     0.0600000   -0.3300000   2.521103e-04  1.063590e-07
    794    795   2   0.50000     0.0600000    0.0300000   3.930919e-05  8.704828e-09
    794    796   2   0.50000     0.0600000    0.0300000   3.930919e-05  8.704828e-09
    763    766   2   0.50000    -0.1200000    0.6250000   1.575021e-03  3.561100e-06
    795    766   2   0.50000     0.0300000    0.6250000   2.482000e-04  1.854991e-07
    796    766   2   0.50000     0.0300000    0.6250000   2.482000e-04  1.854991e-07
    764    767   2   0.50000     0.1900000   -0.4300000   1.095425e-03  1.218041e-06
    764    768   2   0.50000     0.1900000   -0.1150000   1.091018e-03  2.092768e-06
    765    769   2   0.50000    -0.3300000   -0.1150000   1.102666e-03  1.331965e-06
    765    776   2   0.50000    -0.3300000   -0.1150000   1.102666e-03  1.331965e-06
    767    769   2   0.50000    -0.4300000   -0.1150000   1.177174e-03  1.365843e-06
    767    776   2   0.50000    -0.4300000   -0.1150000   1.177174e-03  1.365843e-06
    766    770   2   0.50000     0.6250000   -0.1150000   1.692561e-03  3.993218e-06
    766    797   2   0.50000     0.6250000    0.1150000   3.510079e-04  2.623353e-07
    776    770   2   0.50000    -0.1150000   -0.1150000   1.172438e-03  2.346713e-06
    776    797   2   0.50000    -0.1150000    0.1150000   2.431434e-04  1.541678e-07
    766    775   2   0.50000     0.6250000   -0.1150000   1.692561e-03  3.993218e-06
    766    800   2   0.50000     0.6250000    0.1150000   3.510079e-04  2.623353e-07
    769    775   2   0.50000    -0.1150000   -0.1150000   1.172438e-03  2.346713e-06
    769    800   2   0.50000    -0.1150000    0.1150000   2.431434e-04  1.541678e-07
    768    771   2   0.50000    -0.1150000   -0.1150000   1.172438e-03  2.346713e-06
    768    798   2   0.50000    -0.1150000    0.1150000   2.431434e-04  1.541678e-07
    797    771   2   0.50000     0.1150000   -0.1150000   2.431434e-04  1.541678e-07
    797    798   2   0.50000     0.1150000    0.1150000   5.042375e-05  1.012808e-08
    769    772   2   0.50000    -0.1150000    0.6250000   1.692561e-03  3.993218e-06
    798    772   2   0.50000     0.1150000    0.6250000   3.510079e-04  2.623353e-07
    798    775   2   0.50000     0.1150000   -0.1150000   2.431434e-04  1.541678e-07
    770    773   2   0.50000    -0.1150000   -0.4300000   1.177174e-03  1.365843e-06
    770    774   2   0.50000    -0.1150000   -0.0800000   1.102666e-03  1.331965e-06
    775    773   2   0.50000    -0.1150000   -0.4300000   1.177174e-03  1.365843e-06
    775    774   2   0.50000    -0.1150000   -0.0800000   1.102666e-03  1.331965e-06
    770    799   2   0.50000    -0.1150000    0.1150000   2.431434e-04  1.541678e-07
    772    776   2   0.50000     0.6250000   -0.1150000   1.692561e-03  3.993218e-06
    772    799   2   0.50000     0.6250000    0.1150000   3.510079e-04  2.623353e-07
    771    801   2   0.50000    -0.1150000   -0.2000000   9.038862e-04  9.862632e-07
    773    801   2   0.50000    -0.4300000   -0.2000000   9.075373e-04  5.740287e-07
    772    802   2   0.50000     0.6250000    0.0800000   1.575021e-03  3.561100e-06
    771    800   2   0.50000    -0.1150000    0.1150000   2.431434e-04  1.541678e-07
    799    768   2   0.50000     0.1150000   -0.1150000   2.431434e-04  1.541678e-07
    799    800   2   0.50000     0.1150000    0.1150000   5.042375e-05  1.012808e-08
    774    803   2   0.50000    -0.0800000   -0.1200000   1.026091e-03  1.187829e-06
    774    824   2   0.50000    -0.0800000    0.0600000   2.521103e-04  1.063590e-07
    774    825   2   0.50000    -0.0800000    0.0600000   2.521103e-04  1.063590e-07
    801    804   2   0.50000    -0.2000000   -0.1200000   8.411158e-04  8.795366e-07
    801    826   2   0.50000    -0.2000000    0.0600000   2.066619e-04  7.875431e-08
    801    827   2   0.50000    -0.2000000    0.0600000   2.066619e-04  7.875431e-08
    824    804   2   0.50000     0.0600000   -0.1200000   2.494471e-04  1.671101e-07
    824    826   2   0.50000     0.0600000    0.0600000   6.128906e-05  1.496315e-08
    824    827   2   0.50000     0.0600000    0.0600000   6.128906e-05  1.496315e-08
    825    804   2   0.50000     0.0600000   -0.1200000   2.494471e-04  1.671101e-07
    825    826   2   0.50000     0.0600000    0.0600000   6.128906e-05  1.496315e-08
    825    827   2   0.50000     0.0600000    0.0600000   6.128906e-05  1.496315e-08
    802    805   2   0.50000     0.0800000   -0.1200000   1.015252e-03  1.866303e-06
    802    828   2   0.50000     0.0800000    0.0600000   2.494471e-04  1.671101e-07
    802    829   2   0.50000     0.0800000    0.0600000   2.494471e-04  1.671101e-07
    826    805   2   0.50000     0.0600000   -0.1200000   2.494471e-04  1.671101e-07
    826    828   2   0.50000     0.0600000    0.0600000   6.128906e-05  1.496315e-08
    826    829   2   0.50000     0.0600000    0.0600000   6.128906e-05  1.496315e-08
    827    805   2   0.50000     0.0600000   -0.1200000   2.494471e-04  1.671101e-07
    827    828   2   0.50000     0.0600000    0.0600000   6.128906e-05  1.496315e-08
    827    829   2   0.50000     0.0600000    0.0600000   6.128906e-05  1.496315e-08
    803    806   2   0.50000    -0.1200000   -0.1200000   1.015252e-03  1.866303e-06
    803    830   2   0.50000    -0.1200000    0.0600000   2.494471e-04  1.671101e-07
    803    831   2   0.50000    -0.1200000    0.0600000   2.494471e-04  1.671101e-07
    828    806   2   0.50000     0.0600000   -0.1200000   2.494471e-04  1.671101e-07
    828    830   2   0.50000     0.0600000    0.0600000   6.128906e-05  1.496315e-08
    828    831   2   0.50000     0.0600000    0.0600000   6.128906e-05  1.496315e-08
    829    806   2   0.50000     0.0600000   -0.1200000   2.494471e-04  1.671101e-07
    829    830   2   0.50000     0.0600000    0.0600000   6.128906e-05  1.496315e-08
    829    831   2   0.50000     0.0600000    0.0600000   6.128906e-05  1.496315e-08
    804    807   2   0.50000    -0.1200000   -0.1200000   1.015252e-03  1.866303e-06
    804    832   2   0.50000    -0.1200000    0.0600000   2.494471e-04  1.671101e-07
    804    833   2   0.50000    -0.1200000    0.0600000   2.494471e-04  1.671101e-07
    830    807   2   0.50000     0.0600000   -0.1200000   2.494471e-04  1.671101e-07
    830    832   2   0.50000     0.0600000    0.0600000   6.128906e-05  1.496315e-08
    830    833   2   0.50000     0.0600000    0.0600000   6.128906e-05  1.496315e-08
    831    807   2   0.50000     0.0600000   -0.1200000   2.494471e-04  1.671101e-07
    831    832   2   0.50000     0.0600000    0.0600000   6.128906e-05  1.496315e-08
    831    833   2   0.50000     0.0600000    0.0600000   6.128906e-05  1.496315e-08
    805    808   2   0.50000    -0.1200000   -0.1200000   1.015252e-03  1.866303e-06
    805    834   2   0.50000    -0.1200000    0.0600000   2.494471e-04  1.671101e-07
    805    835   2   0.50000    -0.1200000    0.0600000   2.494471e-04  1.671101e-07
    832    808   2   0.50000     0.0600000   -0.1200000   2.494471e-04  1.671101e-07
    832    834   2   0.50000     0.0600000    0.0600000   6.128906e-05  1.496315e-08
    832    835   2   0.50000     0.0600000    0.0600000   6.128906e-05  1.496315e-08
    833    808   2   0.50000     0.0600000   -0.1200000   2.494471e-04  1.671101e-07
    833    834   2   0.50000     0.0600000    0.0600000   6.128906e-05  1.496315e-08
    833    835   2   0.50000     0.0600000    0.0600000   6.128906e-05  1.496315e-08
    806    809   2   0.50000    -0.1200000   -0.1200000   1.015252e-03  1.866303e-06
    806    836   2   0.50000    -0.1200000    0.0600000   2.494471e-04  1.671101e-07
    806    837   2   0.50000    -0.1200000    0.0600000   2.494471e-04  1.671101e-07
    834    809   2   0.50000     0.0600000   -0.1200000   2.494471e-04  1.671101e-07
    834    836   2   0.50000     0.0600000    0.0600000   6.128906e-05  1.496315e-08
    834    837   2   0.50000     0.0600000    0.0600000   6.128906e-05  1.496315e-08
    835    809   2   0.50000     0.0600000   -0.1200000   2.494471e-04  1.671101e-07
    835    836   2   0.50000     0.0600000    0.0600000   6.128906e-05  1.496315e-08
    835    837   2   0.50000     0.0600000    0.0600000   6.128906e-05  1.496315e-08
    807    810   2   0.50000    -0.1200000   -0.1200000   1.015252e-03  1.866303e-06
    807    838   2   0.50000    -0.1200000    0.0600000   2.494471e-04  1.671101e-07
    807    839   2   0.50000    -0.1200000    0.0600000   2.494471e-04  1.671101e-07
    836    810   2   0.50000     0.0600000   -0.1200000   2.494471e-04  1.671101e-07
    836    838   2   0.50000     0.0600000    0.0600000   6.128906e-05  1.496315e-08
    836    839   2   0.50000     0.0600000    0.0600000   6.128906e-05  1.496315e-08
    837    810   2   0.50000     0.0600000   -0.1200000   2.494471e-04  1.671101e-07
    837    838   2   0.50000     0.0600000    0.0600000   6.128906e-05  1.496315e-08
    837    839   2   0.50000     0.0600000    0.0600000   6.128906e-05  1.496315e-08
    808    811   2   0.50000    -0.1200000    0.1900000   1.015252e-03  1.866303e-06
    808    840   2   0.50000    -0.1200000    0.0600000   2.494471e-04  1.671101e-07
    808    841   2   0.50000    -0.1200000    0.0600000   2.494471e-04  1.671101e-07
    838    811   2   0.50000     0.0600000    0.1900000   2.494471e-04  1.671101e-07
    838    840   2   0.50000     0.0600000    0.0600000   6.128906e-05  1.496315e-08
    838    841   2   0.50000     0.0600000    0.0600000   6.128906e-05  1.496315e-08
    839    811   2   0.50000     0.0600000    0.1900000   2.494471e-04  1.671101e-07
    839    840   2   0.50000     0.0600000    0.0600000   6.128906e-05  1.496315e-08
    839    841   2   0.50000     0.0600000    0.0600000   6.128906e-05  1.496315e-08
    809    812   2   0.50000    -0.1200000   -0.3300000   1.026091e-03  1.187829e-06
    809    842   2   0.50000    -0.1200000    0.0300000   1.599888e-04  9.721644e-08
    809    843   2   0.50000    -0.1200000    0.0300000   1.599888e-04  9.721644e-08
    840    812   2   0.50000     0.0600000   -0.3300000   2.521103e-04  1.063590e-07
    840    842   2   0.50000     0.0600000    0.0300000   3.930919e-05  8.704828e-09
    840    843   2   0.50000     0.0600000    0.0300000   3.930919e-05  8.704828e-09
    841    812   2   0.50000     0.0600000   -0.3300000   2.521103e-04  1.063590e-07
    841    842   2   0.50000     0.0600000    0.0300000   3.930919e-05  8.704828e-09
    841    843   2   0.50000     0.0600000    0.0300000   3.930919e-05  8.704828e-09
    810    813   2   0.50000    -0.1200000    0.6250000   1.575021e-03  3.561100e-06
    842    813   2   0.50000     0.0300000    0.6250000   2.482000e-04  1.854991e-07
    843    813   2   0.50000     0.0300000    0.6250000   2.482000e-04  1.854991e-07
    811    814   2   0.50000     0.1900000   -0.4300000   1.095425e-03  1.218041e-06
    811    815   2   0.50000     0.1900000   -0.1150000   1.091018e-03  2.092768e-06
    812    816   2   0.50000    -0.3300000   -0.1150000   1.102666e-03  1.331965e-06
    812    823   2   0.50000    -0.3300000   -0.1150000   1.102666e-03  1.331965e-06
    814    816   2   0.50000    -0.4300000   -0.1150000   1.177174e-03  1.365843e-06
    814    823   2   0.50000    -0.4300000   -0.1150000   1.177174e-03  1.365843e-06
    813    817   2   0.50000     0.6250000   -0.1150000   1.692561e-03  3.993218e-06
    813    844   2   0.50000     0.6250000    0.1150000   3.510079e-04  2.623353e-07
    823    817   2   0.50000    -0.1150000   -0.1150000   1.172438e-03  2.346713e-06
    823    844   2   0.50000    -0.1150000    0.1150000   2.431434e-04  1.541678e-07
    813    822   2   0.50000     0.6250000   -0.1150000   1.692561e-03  3.993218e-06
    813    847   2   0.50000     0.6250000    0.1150000   3.510079e-04  2.623353e-07
    816    822   2   0.50000    -0.1150000   -0.1150000   1.172438e-03  2.346713e-06
    816    847   2   0.50000    -0.1150000    0.1150000   2.431434e-04  1.541678e-07
    815    818   2   0.50000    -0.1150000   -0.1150000   1.172438e-03  2.346713e-06
    815    845   2   0.50000    -0.1150000    0.1150000   2.431434e-04  1.541678e-07
    844    818   2   0.50000     0.1150000   -0.1150000   2.431434e-04  1.541678e-07
    844    845   2   0.50000     0.1150000    0.1150000   5.042375e-05  1.012808e-08
    816    819   2   0.50000    -0.1150000    0.6250000   1.692561e-03  3.993218e-06
    845    819   2   0.50000     0.1150000    0.6250000   3.510079e-04  2.623353e-07
    845    822   2   0.50000     0.1150000   -0.1150000   2.431434e-04  1.541678e-07
    817    820   2   0.50000    -0.1150000   -0.4300000   1.177174e-03  1.365843e-06
    817    821   2   0.50000    -0.1150000   -0.0800000   1.102666e-03  1.331965e-06
    822    820   2   0.50000    -0.1150000   -0.4300000   1.177174e-03  1.365843e-06
    822    821   2   0.50000    -0.1150000   -0.0800000   1.102666e-03  1.331965e-06
    817    846   2   0.50000    -0.1150000    0.1150000   2.431434e-04  1.541678e-07
    819    823   2   0.50000     0.6250000   -0.1150000   1.692561e-03  3.993218e-06
    819    846   2   0.50000     0.6250000    0.1150000   3.510079e-04  2.623353e-07
    818    848   2   0.50000    -0.1150000   -0.2000000   9.038862e-04  9.862632e-07
    820    848   2   0.50000    -0.4300000   -0.2000000   9.075373e-04  5.740287e-07
    819    849   2   0.50000     0.6250000    0.0800000   1.575021e-03  3.561100e-06
    818    847   2   0.50000    -0.1150000    0.1150000   2.431434e-04  1.541678e-07
    846    815   2   0.50000     0.1150000   -0.1150000   2.431434e-04  1.541678e-07
    846    847   2   0.50000     0.1150000    0.1150000   5.042375e-05  1.012808e-08
    821    850   2   0.50000    -0.0800000   -0.1200000   1.026091e-03  1.187829e-06
    821    871   2   0.50000    -0.0800000    0.0600000   2.521103e-04  1.063590e-07
    821    872   2   0.50000    -0.0800000    0.0600000   2.521103e-04  1.063590e-07
    848    851   2   0.50000    -0.2000000   -0.1200000   8.411158e-04  8.795366e-07
    848    873   2   0.50000    -0.2000000    0.0600000   2.066619e-04  7.875431e-08
    848    874   2   0.50000    -0.2000000    0.0600000   2.066619e-04  7.875431e-08
    871    851   2   0.50000     0.0600000   -0.1200000   2.494471e-04  1.671101e-07
    871    873   2   0.50000     0.0600000    0.0600000   6.128906e-05  1.496315e-08
    871    874   2   0.50000     0.0600000    0.0600000   6.128906e-05  1.496315e-08
    872    851   2   0.50000     0.0600000   -0.1200000   2.494471e-04  1.671101e-07
    872    873   2   0.50000     0.0600000    0.0600000   6.128906e-05  1.496315e-08
    872    874   2   0.50000     0.0600000    0.0600000   6.128906e-05  1.496315e-08
    849    852   2   0.50000     0.0800000   -0.1200000   1.015252e-03  1.866303e-06
    849    875   2   0.50000     0.0800000    0.0600000   2.494471e-04  1.671101e-07
    849    876   2   0.50000     0.0800000    0.0600000   2.494471e-04  1.671101e-07
    873    852   2   0.50000     0.0600000   -0.1200000   2.494471e-04  1.671101e-07
    873    875   2   0.50000     0.0600000    0.0600000   6.128906e-05  1.496315e-08
    873    876   2   0.50000     0.0600000    0.0600000   6.128906e-05  1.496315e-08
    874    852   2   0.50000     0.0600000   -0.1200000   2.494471e-04  1.671101e-07
    874    875   2   0.50000     0.0600000    0.0600000   6.128906e-05  1.496315e-08
    874    876   2   0.50000     0.0600000    0.0600000   6.128906e-05  1.496315e-08
    850    853   2   0.50000    -0.1200000   -0.1200000   1.015252e-03  1.866303e-06
    850    877   2   0.50000    -0.1200000    0.0600000   2.494471e-04  1.671101e-07
    850    878   2   0.50000    -0.1200000    0.0600000   2.494471e-04  1.671101e-07
    875    853   2   0.50000     0.0600000   -0.1200000   2.494471e-04  1.671101e-07
    875    877   2   0.50000     0.0600000    0.0600000   6.128906e-05  1.496315e-08
    875    878   2   0.50000     0.0600000    0.0600000   6.128906e-05  1.496315e-08
    876    853   2   0.50000     0.0600000   -0.1200000   2.494471e-04  1.671101e-07
    876    877   2   0.50000     0.0600000    0.0600000   6.128906e-05  1.496315e-08
    876    878   2   0.50000     0.0600000    0.0600000   6.128906e-05  1.496315e-08
    851    854   2   0.50000    -0.1200000   -0.1200000   1.015252e-03  1.866303e-06
    851    879   2   0.50000    -0.1200000    0.0600000   2.494471e-04  1.671101e-07
    851    880   2   0.50000    -0.1200000    0.0600000   2.494471e-04  1.671101e-07
    877    854   2   0.50000     0.0600000   -0.1200000   2.494471e-04  1.671101e-07
    877    879   2   0.50000     0.0600000    0.0600000   6.128906e-05  1.496315e-08
    877    880   2   0.50000     0.0600000    0.0600000   6.128906e-05  1.496315e-08
    878    854   2   0.50000     0.0600000   -0.1200000   2.494471e-04  1.671101e-07
    878    879   2   0.50000     0.0600000    0.0600000   6.128906e-05  1.496315e-08
    878    880   2   0.50000     0.0600000    0.0600000   6.128906e-05  1.496315e-08
    852    855   2   0.50000    -0.1200000   -0.1200000   1.015252e-03  1.866303e-06
    852    881   2   0.50000    -0.1200000    0.0600000   2.494471e-04  1.671101e-07
    852    882   2   0.50000    -0.1200000    0.0600000   2.494471e-04  1.671101e-07
    879    855   2   0.50000     0.0600000   -0.1200000   2.494471e-04  1.671101e-07
    879    881   2   0.50000     0.0600000    0.0600000   6.128906e-05  1.496315e-08
    879    882   2   0.50000     0.0600000    0.0600000   6.128906e-05  1.496315e-08
    880    855   2   0.50000     0.0600000   -0.1200000   2.494471e-04  1.671101e-07
    880    881   2   0.50000     0.0600000    0.0600000   6.128906e-05  1.496315e-08
    880    882   2   0.50000     0.0600000    0.0600000   6.128906e-05  1.496315e-08
    853    856   2   0.50000    -0.1200000   -0.1200000   1.015252e-03  1.866303e-06
    853    883   2   0.50000    -0.1200000    0.0600000   2.494471e-04  1.671101e-07
    853    884   2   0.50000    -0.1200000    0.0600000   2.494471e-04  1.671101e-07
    881    856   2   0.50000     0.0600000   -0.1200000   2.494471e-04  1.671101e-07
    881    883   2   0.50000     0.0600000    0.0600000   6.128906e-05  1.496315e-08
    881    884   2   0.50000     0.0600000    0.0600000   6.128906e-05  1.496315e-08
    882    856   2   0.50000     0.0600000   -0.1200000   2.494471e-04  1.671101e-07
    882    883   2   0.50000     0.0600000    0.0600000   6.128906e-05  1.496315e-08
    882    884   2   0.50000     0.0600000    0.0600000   6.128906e-05  1.496315e-08
    854    857   2   0.50000    -0.1200000   -0.1200000   1.015252e-03  1.866303e-06
    854    885   2   0.50000    -0.1200000    0.0600000   2.494471e-04  1.671101e-07
    854    886   2   0.50000    -0.1200000    0.0600000   2.494471e-04  1.671101e-07
    883    857   2   0.50000     0.0600000   -0.1200000   2.494471e-04  1.671101e-07
    883    885   2   0.50000     0.0600000    0.0600000   6.128906e-05  1.496315e-08
    883    886   2   0.50000     0.0600000    0.0600000   6.128906e-05  1.496315e-08
    884    857   2   0.50000     0.0600000   -0.1200000   2.494471e-04  1.671101e-07
    884    885   2   0.50000     0.0600000    0.0600000   6.128906e-05  1.496315e-08
    884    886   2   0.50000     0.0600000    0.0600000   6.128906e-05  1.496315e-08
    855    858   2   0.50000    -0.1200000    0.1900000   1.015252e-03  1.866303e-06
    855    887   2   0.50000    -0.1200000    0.0600000   2.494471e-04  1.671101e-07
    855    888   2   0.50000    -0.1200000    0.0600000   2.494471e-04  1.671101e-07
    885    858   2   0.50000     0.0600000    0.1900000   2.494471e-04  1.671101e-07
    885    887   2   0.50000     0.0600000    0.0600000   6.128906e-05  1.496315e-08
    885    888   2   0.50000     0.0600000    0.0600000   6.128906e-05  1.496315e-08
    886    858   2   0.50000     0.0600000    0.1900000   2.494471e-04  1.671101e-07
    886    887   2   0.50000     0.0600000    0.0600000   6.128906e-05  1.496315e-08
    886    888   2   0.50000     0.0600000    0.0600000   6.128906e-05  1.496315e-08
    856    859   2   0.50000    -0.1200000   -0.3300000   1.026091e-03  1.187829e-06
    856    889   2   0.50000    -0.1200000    0.0300000   1.599888e-04  9.721644e-08
    856    890   2   0.50000    -0.1200000    0.0300000   1.599888e-04  9.721644e-08
    887    859   2   0.50000     0.0600000   -0.3300000   2.521103e-04  1.063590e-07
    887    889   2   0.50000     0.0600000    0.0300000   3.930919e-05  8.704828e-09
    887    890   2   0.50000     0.0600000    0.0300000   3.930919e-05  8.704828e-09
    888    859   2   0.50000     0.0600000   -0.3300000   2.521103e-04  1.063590e-07
    888    889   2   0.50000     0.0600000    0.0300000   3.930919e-05  8.704828e-09
    888    890   2   0.50000     0.0600000    0.0300000   3.930919e-05  8.704828e-09
    857    860   2   0.50000    -0.1200000    0.6250000   1.575021e-03  3.561100e-06
    889    860   2   0.50000     0.0300000    0.6250000   2.482000e-04  1.854991e-07
    890    860   2   0.50000     0.0300000    0.6250000   2.482000e-04  1.854991e-07
    858    861   2   0.50000     0.1900000   -0.4300000   1.095425e-03  1.218041e-06
    858    862   2   0.50000     0.1900000   -0.1150000   1.091018e-03  2.092768e-06
    859    863   2   0.50000    -0.3300000   -0.1150000   1.102666e-03  1.331965e-06
    859    870   2   0.50000    -0.3300000   -0.1150000   1.102666e-03  1.331965e-06
    861    863   2   0.50000    -0.4300000   -0.1150000   1.177174e-03  1.365843e-06
    861    870   2   0.50000    -0.4300000   -0.1150000   1.177174e-03  1.365843e-06
    860    864   2   0.50000     0.6250000   -0.1150000   1.692561e-03  3.993218e-06
    860    891   2   0.50000     0.6250000    0.1150000   3.510079e-04  2.623353e-07
    870    864   2   0.50000    -0.1150000   -0.1150000   1.172438e-03  2.346713e-06
    870    891   2   0.50000    -0.1150000    0.1150000   2.431434e-04  1.541678e-07
    860    869   2   0.50000     0.6250000   -0.1150000   1.692561e-03  3.993218e-06
    860    894   2   0.50000     0.6250000    0.1150000   3.510079e-04  2.623353e-07
    863    869   2   0.50000    -0.1150000   -0.1150000   1.172438e-03  2.346713e-06
    863    894   2   0.50000    -0.1150000    0.1150000   2.431434e-04  1.541678e-07
    862    865   2   0.50000    -0.1150000   -0.1150000   1.172438e-03  2.346713e-06
    862    892   2   0.50000    -0.1150000    0.1150000   2.431434e-04  1.541678e-07
    891    865   2   0.50000     0.1150000   -0.1150000   2.431434e-04  1.541678e-07
    891    892   2   0.50000     0.1150000    0.1150000   5.042375e-05  1.012808e-08
    863    866   2   0.50000    -0.1150000    0.6250000   1.692561e-03  3.993218e-06
    892    866   2   0.50000     0.1150000    0.6250000   3.510079e-04  2.623353e-07
    892    869   2   0.50000     0.1150000   -0.1150000   2.431434e-04  1.541678e-07
    864    867   2   0.50000    -0.1150000   -0.4300000   1.177174e-03  1.365843e-06
    864    868   2   0.50000    -0.1150000   -0.0800000   1.102666e-03  1.331965e-06
    869    867   2   0.50000    -0.1150000   -0.4300000   1.177174e-03  1.365843e-06
    869    868   2   0.50000    -0.1150000   -0.0800000   1.102666e-03  1.331965e-06
    864    893   2   0.50000    -0.1150000    0.1150000   2.431434e-04  1.541678e-07
    866    870   2   0.50000     0.6250000   -0.1150000   1.692561e-03  3.993218e-06
    866    893   2   0.50000     0.6250000    0.1150000   3.510079e-04  2.623353e-07
    865    895   2   0.50000    -0.1150000   -0.2000000   9.038862e-04  9.862632e-07
    867    895   2   0.50000    -0.4300000   -0.2000000   9.075373e-04  5.740287e-07
    866    896   2   0.50000     0.6250000    0.0800000   1.575021e-03  3.561100e-06
    865    894   2   0.50000    -0.1150000    0.1150000   2.431434e-04  1.541678e-07
    893    862   2   0.50000     0.1150000   -0.1150000   2.431434e-04  1.541678e-07
    893    894   2   0.50000     0.1150000    0.1150000   5.042375e-05  1.012808e-08
    868    897   2   0.50000    -0.0800000   -0.1200000   1.026091e-03  1.187829e-06
    868    918   2   0.50000    -0.0800000    0.0600000   2.521103e-04  1.063590e-07
    868    919   2   0.50000    -0.0800000    0.0600000   2.521103e-04  1.063590e-07
    895    898   2   0.50000    -0.2000000   -0.1200000   8.411158e-04  8.795366e-07
    895    920   2   0.50000    -0.2000000    0.0600000   2.066619e-04  7.875431e-08
    895    921   2   0.50000    -0.2000000    0.0600000   2.066619e-04  7.875431e-08
    918    898   2   0.50000     0.0600000   -0.1200000   2.494471e-04  1.671101e-07
    918    920   2   0.50000     0.0600000    0.0600000   6.128906e-05  1.496315e-08
    918    921   2   0.50000     0.0600000    0.0600000   6.128906e-05  1.496315e-08
    919    898   2   0.50000     0.0600000   -0.1200000   2.494471e-04  1.671101e-07
    919    920   2   0.50000     0.0600000    0.0600000   6.128906e-05  1.496315e-08
    919    921   2   0.50000     0.0600000    0.0600000   6.128906e-05  1.496315e-08
    896    899   2   0.50000     0.0800000   -0.1200000   1.015252e-03  1.866303e-06
    896    922   2   0.50000     0.0800000    0.0600000   2.494471e-04  1.671101e-07
    896    923   2   0.50000     0.0800000    0.0600000   2.494471e-04  1.671101e-07
    920    899   2   0.50000     0.0600000   -0.1200000   2.494471e-04  1.671101e-07
    920    922   2   0.50000     0.0600000    0.0600000   6.128906e-05  1.496315e-08
    920    923   2   0.50000     0.0600000    0.0600000   6.128906e-05  1.496315e-08
    921    899   2   0.50000     0.0600000   -0.1200000   2.494471e-04  1.671101e-07
    921    922   2   0.50000     0.0600000    0.0600000   6.128906e-05  1.496315e-08
    921    923   2   0.50000     0.0600000    0.0600000   6.128906e-05  1.496315e-08
    897    900   2   0.50000    -0.1200000   -0.1200000   1.015252e-03  1.866303e-06
    897    924   2   0.50000    -0.1200000    0.0600000   2.494471e-04  1.671101e-07
    897    925   2   0.50000    -0.1200000    0.0600000   2.494471e-04  1.671101e-07
    922    900   2   0.50000     0.0600000   -0.1200000   2.494471e-04  1.671101e-07
    922    924   2   0.50000     0.0600000    0.0600000   6.128906e-05  1.496315e-08
    922    925   2   0.50000     0.0600000    0.0600000   6.128906e-05  1.496315e-08
    923    900   2   0.50000     0.0600000   -0.1200000   2.494471e-04  1.671101e-07
    923    924   2   0.50000     0.0600000    0.0600000   6.128906e-05  1.496315e-08
    923    925   2   0.50000     0.0600000    0.0600000   6.128906e-05  1.496315e-08
    898    901   2   0.50000    -0.1200000   -0.1200000   1.015252e-03  1.866303e-06
    898    926   2   0.50000    -0.1200000    0.0600000   2.494471e-04  1.671101e-07
    898    927   2   0.50000    -0.1200000    0.0600000   2.494471e-04  1.671101e-07
    924    901   2   0.50000     0.0600000   -0.1200000   2.494471e-04  1.671101e-07
    924    926   2   0.50000     0.0600000    0.0600000   6.128906e-05  1.496315e-08
    924    927   2   0.50000     0.0600000    0.0600000   6.128906e-05  1.496315e-08
    925    901   2   0.50000     0.0600000   -0.1200000   2.494471e-04  1.671101e-07
    925    926   2   0.50000     0.0600000    0.0600000   6.128906e-05  1.496315e-08
    925    927   2   0.50000     0.0600000    0.0600000   6.128906e-05  1.496315e-08
    899    902   2   0.50000    -0.1200000   -0.1200000   1.015252e-03  1.866303e-06
    899    928   2   0.50000    -0.1200000    0.0600000   2.494471e-04  1.671101e-07
    899    929   2   0.50000    -0.1200000    0.0600000   2.494471e-04  1.671101e-07
    926    902   2   0.50000     0.0600000   -0.1200000   2.494471e-04  1.671101e-07
    926    928   2   0.50000     0.0600000    0.0600000   6.128906e-05  1.496315e-08
    926    929   2   0.50000     0.0600000    0.0600000   6.128906e-05  1.496315e-08
    927    902   2   0.50000     0.0600000   -0.1200000   2.494471e-04  1.671101e-07
    927    928   2   0.50000     0.0600000    0.0600000   6.128906e-05  1.496315e-08
    927    929   2   0.50000     0.0600000    0.0600000   6.128906e-05  1.496315e-08
    900    903   2   0.50000    -0.1200000   -0.1200000   1.015252e-03  1.866303e-06
    900    930   2   0.50000    -0.1200000    0.0600000   2.494471e-04  1.671101e-07
    900    931   2   0.50000    -0.1200000    0.0600000   2.494471e-04  1.671101e-07
    928    903   2   0.50000     0.0600000   -0.1200000   2.494471e-04  1.671101e-07
    928    930   2   0.50000     0.0600000    0.0600000   6.128906e-05  1.496315e-08
    928    931   2   0.50000     0.0600000    0.0600000   6.128906e-05  1.496315e-08
    929    903   2   0.50000     0.0600000   -0.1200000   2.494471e-04  1.671101e-07
    929    930   2   0.50000     0.0600000    0.0600000   6.128906e-05  1.496315e-08
    929    931   2   0.50000     0.0600000    0.0600000   6.128906e-05  1.496315e-08
    901    904   2   0.50000    -0.1200000   -0.1200000   1.015252e-03  1.866303e-06
    901    932   2   0.50000    -0.1200000    0.0600000   2.494471e-04  1.671101e-07
    901    933   2   0.50000    -0.1200000    0.0600000   2.494471e-04  1.671101e-07
    930    904   2   0.50000     0.0600000   -0.1200000   2.494471e-04  1.671101e-07
    930    932   2   0.50000     0.0600000    0.0600000   6.128906e-05  1.496315e-08
    930    933   2   0.50000     0.0600000    0.0600000   6.128906e-05  1.496315e-08
    931    904   2   0.50000     0.0600000   -0.1200000   2.494471e-04  1.671101e-07
    931    932   2   0.50000     0.0600000    0.0600000   6.128906e-05  1.496315e-08
    931    933   2   0.50000     0.0600000    0.0600000   6.128906e-05  1.496315e-08
    902    905   2   0.50000    -0.1200000    0.1900000   1.015252e-03  1.866303e-06
    902    934   2   0.50000    -0.1200000    0.0600000   2.494471e-04  1.671101e-07
    902    935   2   0.50000    -0.1200000    0.0600000   2.494471e-04  1.671101e-07
    932    905   2   0.50000     0.0600000    0.1900000   2.494471e-04  1.671101e-07
    932    934   2   0.50000     0.0600000    0.0600000   6.128906e-05  1.496315e-08
    932    935   2   0.50000     0.0600000    0.0600000   6.128906e-05  1.496315e-08
    933    905   2   0.50000     0.0600000    0.1900000   2.494471e-04  1.671101e-07
    933    934   2   0.50000     0.0600000    0.0600000   6.128906e-05  1.496315e-08
    933    935   2   0.50000     0.0600000    0.0600000   6.128906e-05  1.496315e-08
    903    906   2   0.50000    -0.1200000   -0.3300000   1.026091e-03  1.187829e-06
    903    936   2   0.50000    -0.1200000    0.0300000   1.599888e-04  9.721644e-08
    903    937   2   0.50000    -0.1200000    0.0300000   1.599888e-04  9.721644e-08
    934    906   2   0.50000     0.0600000   -0.3300000   2.521103e-04  1.063590e-07
    934    936   2   0.50000     0.0600000    0.0300000   3.930919e-05  8.704828e-09
    934    937   2   0.50000     0.0600000    0.0300000   3.930919e-05  8.704828e-09
    935    906   2   0.50000     0.0600000   -0.3300000   2.521103e-04  1.063590e-07
    935    936   2   0.50000     0.0600000    0.0300000   3.930919e-05  8.704828e-09
    935    937   2   0.50000     0.0600000    0.0300000   3.930919e-05  8.704828e-09
    904    907   2   0.50000    -0.1200000    0.6250000   1.575021e-03  3.561100e-06
    936    907   2   0.50000     0.0300000    0.6250000   2.482000e-04  1.854991e-07
    937    907   2   0.50000     0.0300000    0.6250000   2.482000e-04  1.854991e-07
    905    908   2   0.50000     0.1900000   -0.4300000   1.095425e-03  1.218041e-06
    905    909   2   0.50000     0.1900000   -0.1150000   1.091018e-03  2.092768e-06
    906    910   2   0.50000    -0.3300000   -0.1150000   1.102666e-03  1.331965e-06
    906    917   2   0.50000    -0.3300000   -0.1150000   1.102666e-03  1.331965e-06
    908    910   2   0.50000    -0.4300000   -0.1150000   1.177174e-03  1.365843e-06
    908    917   2   0.50000    -0.4300000   -0.1150000   1.177174e-03  1.365843e-06
    907    911   2   0.50000     0.6250000   -0.1150000   1.692561e-03  3.993218e-06
    907    938   2   0.50000     0.6250000    0.1150000   3.510079e-04  2.623353e-07
    917    911   2   0.50000    -0.1150000   -0.1150000   1.172438e-03  2.346713e-06
    917    938   2   0.50000    -0.1150000    0.1150000   2.431434e-04  1.541678e-07
    907    916   2   0.50000     0.6250000   -0.1150000   1.692561e-03  3.993218e-06
    907    941   2   0.50000     0.6250000    0.1150000   3.510079e-04  2.623353e-07
    910    916   2   0.50000    -0.1150000   -0.1150000   1.172438e-03  2.346713e-06
    910    941   2   0.50000    -0.1150000    0.1150000   2.431434e-04  1.541678e-07
    909    912   2   0.50000    -0.1150000   -0.1150000   1.172438e-03  2.346713e-06
    909    939   2   0.50000    -0.1150000    0.1150000   2.431434e-04  1.541678e-07
    938    912   2   0.50000     0.1150000   -0.1150000   2.431434e-04  1.541678e-07
    938    939   2   0.50000     0.1150000    0.1150000   5.042375e-05  1.012808e-08
    910    913   2   0.50000    -0.1150000    0.6350000   1.692561e-03  3.993218e-06
    939    913   2   0.50000     0.1150000    0.6350000   3.510079e-04  2.623353e-07
    939    916   2   0.50000     0.1150000   -0.1150000   2.431434e-04  1.541678e-07
    911    914   2   0.50000    -0.1150000   -0.4400000   1.177174e-03  1.365843e-06
    911    915   2   0.50000    -0.1150000   -0.5300000   1.102666e-03  1.331965e-06
    916    914   2   0.50000    -0.1150000   -0.4400000   1.177174e-03  1.365843e-06
    916    915   2   0.50000    -0.1150000   -0.5300000   1.102666e-03  1.331965e-06
    911    940   2   0.50000    -0.1150000    0.1150000   2.431434e-04  1.541678e-07
    913    917   2   0.50000     0.6350000   -0.1150000   1.692561e-03  3.993218e-06
    913    940   2   0.50000     0.6350000    0.1150000   3.510079e-04  2.623353e-07
    912    942   2   0.50000    -0.1150000    0.4500000   2.144502e-06  1.199282e-11
    914    942   2   0.50000    -0.4400000    0.4500000   2.153164e-06  6.980110e-12
    912    941   2   0.50000    -0.1150000    0.1150000   2.431434e-04  1.541678e-07
    940    909   2   0.50000     0.1150000   -0.1150000   2.431434e-04  1.541678e-07
    940    941   2   0.50000     0.1150000    0.1150000   5.042375e-05  1.012808e-08

[ angles ]
; ai  aj  ak
      2      1     48   1    108.5000    460.2400
      1      2      3   1    109.5000    418.4000
      1      2     24   1    109.5000    292.8800
      1      2     25   1    109.5000    292.8800
      3      2     24   1    110.7000    313.8000
      3      2     25   1    110.7000    313.8000
     24      2     25   1    107.8000    276.1440
      2      3      4   1    112.7000    488.2728
      2      3     26   1    110.7000    313.8000
      2      3     27   1    110.7000    313.8000
      4      3     26   1    110.7000    313.8000
      4      3     27   1    110.7000    313.8000
     26      3     27   1    107.8000    276.1440
      3      4      5   1    112.7000    488.2728
      3      4     28   1    110.7000    313.8000
      3      4     29   1    110.7000    313.8000
      5      4     28   1    110.7000    313.8000
      5      4     29   1    110.7000    313.8000
     28      4     29   1    107.8000    276.1440
      4      5      6   1    112.7000    488.2728
      4      5     30   1    110.7000    313.8000
      4      5     31   1    110.7000    313.8000
      6      5     30   1    110.7000    313.8000
      6      5     31   1    110.7000    313.8000
     30      5     31   1    107.8000    276.1440
      5      6      7   1    112.7000    488.2728
      5      6     32   1    110.7000    313.8000
      5      6     33   1    110.7000    313.8000
      7      6     32   1    110.7000    313.8000
      7      6     33   1    110.7000    313.8000
     32      6     33   1    107.8000    276.1440
      6      7      8   1    112.7000    488.2728
      6      7     34   1    110.7000    313.8000
      6      7     35   1    110.7000    313.8000
      8      7     34   1    110.7000    313.8000
      8      7     35   1    110.7000    313.8000
     34      7     35   1    107.8000    276.1440
      7      8      9   1    112.7000    488.2728
      7      8     36   1    110.7000    313.8000
      7      8     37   1    110.7000    313.8000
      9      8     36   1    110.7000    313.8000
      9      8     37   1    110.7000    313.8000
     36      8     37   1    107.8000    276.1440
      8      9     10   1    112.7000    488.2728
      8      9     38   1    110.7000    313.8000
      8      9     39   1    110.7000    313.8000
     10      9     38   1    110.7000    313.8000
     10      9     39   1    110.7000    313.8000
     38      9     39   1    107.8000    276.1440
      9     10     11   1    112.7000    488.2728
      9     10     40   1    110.7000    313.8000
      9     10     41   1    110.7000    313.8000
     11     10     40   1    110.7000    313.8000
     11     10     41   1    110.7000    313.8000
     40     10     41   1    107.8000    276.1440
     10     11     12   1    109.5000    418.4000
     10     11     42   1    110.7000    313.8000
     10     11     43   1    110.7000    313.8000
     12     11     42   1    109.5000    292.8800
     12     11     43   1    109.5000    292.8800
     42     11     43   1    107.8000    276.1440
     11     12     13   1    116.9000    694.5440
     12     13     14   1    123.4000    694.5440
     12     13     15   1    111.4000    677.8080
     14     13     15   1    123.7840    627.6000
     13     15     16   1    119.5260    502.0800
     13     15     23   1    119.5260    502.0800
     16     15     23   1    120.0000    527.1840
     15     16     17   1    120.0000    527.1840
     15     16     44   1    120.0000    292.8800
     17     16     44   1    120.0000    292.8800
     16     17     18   1    120.0000    527.1840
     16     17     45   1    120.0000    292.8800
     18     17     45   1    120.0000    292.8800
     17     18     19   1    119.5260    502.0800
     17     18     22   1    120.0000    527.1840
     19     18     22   1    119.5260    502.0800
     18     19     20   1    123.7840    627.6000
     18     19     21   1    111.4000    677.8080
     20     19     21   1    123.4000    694.5440
     19     21     49   1    112.0000   1004.1600
     18     22     23   1    120.0000    527.1840
     18     22     46   1    120.0000    292.8800
     23     22     46   1    120.0000    292.8800
     15     23     22   1    120.0000    527.1840
     15     23     47   1    120.0000    292.8800
     22     23     47   1    120.0000    292.8800
     21     49     50   1    107.0000   1046.0000
     49     50     51   1    109.5000    418.4000
     49     50     72   1    109.5000    292.8800
     49     50     73   1    109.5000    292.8800
     51     50     72   1    110.7000    313.8000
     51     50     73   1    110.7000    313.8000
     72     50     73   1    107.8000    276.1440
     50     51     52   1    112.7000    488.2728
     50     51     74   1    110.7000    313.8000
     50     51     75   1    110.7000    313.8000
     52     51     74   1    110.7000    313.8000
     52     51     75   1    110.7000    313.8000
     74     51     75   1    107.8000    276.1440
     51     52     53   1    112.7000    488.2728
     51     52     76   1    110.7000    313.8000
     51     52     77   1    110.7000    313.8000
     53     52     76   1    110.7000    313.8000
     53     52     77   1    110.7000    313.8000
     76     52     77   1    107.8000    276.1440
     52     53     54   1    112.7000    488.2728
     52     53     78   1    110.7000    313.8000
     52     53     79   1    110.7000    313.8000
     54     53     78   1    110.7000    313.8000
     54     53     79   1    110.7000    313.8000
     78     53     79   1    107.8000    276.1440
     53     54     55   1    112.7000    488.2728
     53     54     80   1    110.7000    313.8000
     53     54     81   1    110.7000    313.8000
     55     54     80   1    110.7000    313.8000
     55     54     81   1    110.7000    313.8000
     80     54     81   1    107.8000    276.1440
     54     55     56   1    112.7000    488.2728
     54     55     82   1    110.7000    313.8000
     54     55     83   1    110.7000    313.8000
     56     55     82   1    110.7000    313.8000
     56     55     83   1    110.7000    313.8000
     82     55     83   1    107.8000    276.1440
     55     56     57   1    112.7000    488.2728
     55     56     84   1    110.7000    313.8000
     55     56     85   1    110.7000    313.8000
     57     56     84   1    110.7000    313.8000
     57     56     85   1    110.7000    313.8000
     84     56     85   1    107.8000    276.1440
     56     57     58   1    112.7000    488.2728
     56     57     86   1    110.7000    313.8000
     56     57     87   1    110.7000    313.8000
     58     57     86   1    110.7000    313.8000
     58     57     87   1    110.7000    313.8000
     86     57     87   1    107.8000    276.1440
     57     58     59   1    112.7000    488.2728
     57     58     88   1    110.7000    313.8000
     57     58     89   1    110.7000    313.8000
     59     58     88   1    110.7000    313.8000
     59     58     89   1    110.7000    313.8000
     88     58     89   1    107.8000    276.1440
     58     59     60   1    109.5000    418.4000
     58     59     90   1    110.7000    313.8000
     58     59     91   1    110.7000    313.8000
     60     59     90   1    109.5000    292.8800
     60     59     91   1    109.5000    292.8800
     90     59     91   1    107.8000    276.1440
     59     60     61   1    116.9000    694.5440
     60     61     62   1    123.4000    694.5440
     60     61     63   1    111.4000    677.8080
     62     61     63   1    123.7840    627.6000
     61     63     64   1    119.5260    502.0800
     61     63     71   1    119.5260    502.0800
     64     63     71   1    120.0000    527.1840
     63     64     65   1    120.0000    527.1840
     63     64     92   1    120.0000    292.8800
     65     64     92   1    120.0000    292.8800
     64     65     66   1    120.0000    527.1840
     64     65     93   1    120.0000    292.8800
     66     65     93   1    120.0000    292.8800
     65     66     67   1    119.5260    502.0800
     65     66     70   1    120.0000    527.1840
     67     66     70   1    119.5260    502.0800
     66     67     68   1    123.7840    627.6000
     66     67     69   1    111.4000    677.8080
     68     67     69   1    123.4000    694.5440
     67     69     96   1    112.0000   1004.1600
     66     70     71   1    120.0000    527.1840
     66     70     94   1    120.0000    292.8800
     71     70     94   1    120.0000    292.8800
     63     71     70   1    120.0000    527.1840
     63     71     95   1    120.0000    292.8800
     70     71     95   1    120.0000    292.8800
     69     96     97   1    107.0000   1046.0000
     96     97     98   1    109.5000    418.4000
     96     97    119   1    109.5000    292.8800
     96     97    120   1    109.5000    292.8800
     98     97    119   1    110.7000    313.8000
     98     97    120   1    110.7000    313.8000
    119     97    120   1    107.8000    276.1440
     97     98     99   1    112.7000    488.2728
     97     98    121   1    110.7000    313.8000
     97     98    122   1    110.7000    313.8000
     99     98    121   1    110.7000    313.8000
     99     98    122   1    110.7000    313.8000
    121     98    122   1    107.8000    276.1440
     98     99    100   1    112.7000    488.2728
     98     99    123   1    110.7000    313.8000
     98     99    124   1    110.7000    313.8000
    100     99    123   1    110.7000    313.8000
    100     99    124   1    110.7000    313.8000
    123     99    124   1    107.8000    276.1440
     99    100    101   1    112.7000    488.2728
     99    100    125   1    110.7000    313.8000
     99    100    126   1    110.7000    313.8000
    101    100    125   1    110.7000    313.8000
    101    100    126   1    110.7000    313.8000
    125    100    126   1    107.8000    276.1440
    100    101    102   1    112.7000    488.2728
    100    101    127   1    110.7000    313.8000
    100    101    128   1    110.7000    313.8000
    102    101    127   1    110.7000    313.8000
    102    101    128   1    110.7000    313.8000
    127    101    128   1    107.8000    276.1440
    101    102    103   1    112.7000    488.2728
    101    102    129   1    110.7000    313.8000
    101    102    130   1    110.7000    313.8000
    103    102    129   1    110.7000    313.8000
    103    102    130   1    110.7000    313.8000
    129    102    130   1    107.8000    276.1440
    102    103    104   1    112.7000    488.2728
    102    103    131   1    110.7000    313.8000
    102    103    132   1    110.7000    313.8000
    104    103    131   1    110.7000    313.8000
    104    103    132   1    110.7000    313.8000
    131    103    132   1    107.8000    276.1440
    103    104    105   1    112.7000    488.2728
    103    104    133   1    110.7000    313.8000
    103    104    134   1    110.7000    313.8000
    105    104    133   1    110.7000    313.8000
    105    104    134   1    110.7000    313.8000
    133    104    134   1    107.8000    276.1440
    104    105    106   1    112.7000    488.2728
    104    105    135   1    110.7000    313.8000
    104    105    136   1    110.7000    313.8000
    106    105    135   1    110.7000    313.8000
    106    105    136   1    110.7000    313.8000
    135    105    136   1    107.8000    276.1440
    105    106    107   1    109.5000    418.4000
    105    106    137   1    110.7000    313.8000
    105    106    138   1    110.7000    313.8000
    107    106    137   1    109.5000    292.8800
    107    106    138   1    109.5000    292.8800
    137    106    138   1    107.8000    276.1440
    106    107    108   1    116.9000    694.5440
    107    108    109   1    123.4000    694.5440
    107    108    110   1    111.4000    677.8080
    109    108    110   1    123.7840    627.6000
    108    110    111   1    119.5260    502.0800
    108    110    118   1    119.5260    502.0800
    111    110    118   1    120.0000    527.1840
    110    111    112   1    120.0000    527.1840
    110    111    139   1    120.0000    292.8800
    112    111    139   1    120.0000    292.8800
    111    112    113   1    120.0000    527.1840
    111    112    140   1    120.0000    292.8800
    113    112    140   1    120.0000    292.8800
    112    113    114   1    119.5260    502.0800
    112    113    117   1    120.0000    527.1840
    114    113    117   1    119.5260    502.0800
    113    114    115   1    123.7840    627.6000
    113    114    116   1    111.4000    677.8080
    115    114    116   1    123.4000    694.5440
    114    116    143   1    112.0000   1004.1600
    113    117    118   1    120.0000    527.1840
    113    117    141   1    120.0000    292.8800
    118    117    141   1    120.0000    292.8800
    110    118    117   1    120.0000    527.1840
    110    118    142   1    120.0000    292.8800
    117    118    142   1    120.0000    292.8800
    116    143    144   1    107.0000   1046.0000
    143    144    145   1    109.5000    418.4000
    143    144    166   1    109.5000    292.8800
    143    144    167   1    109.5000    292.8800
    145    144    166   1    110.7000    313.8000
    145    144    167   1    110.7000    313.8000
    166    144    167   1    107.8000    276.1440
    144    145    146   1    112.7000    488.2728
    144    145    168   1    110.7000    313.8000
    144    145    169   1    110.7000    313.8000
    146    145    168   1    110.7000    313.8000
    146    145    169   1    110.7000    313.8000
    168    145    169   1    107.8000    276.1440
    145    146    147   1    112.7000    488.2728
    145    146    170   1    110.7000    313.8000
    145    146    171   1    110.7000    313.8000
    147    146    170   1    110.7000    313.8000
    147    146    171   1    110.7000    313.8000
    170    146    171   1    107.8000    276.1440
    146    147    148   1    112.7000    488.2728
    146    147    172   1    110.7000    313.8000
    146    147    173   1    110.7000    313.8000
    148    147    172   1    110.7000    313.8000
    148    147    173   1    110.7000    313.8000
    172    147    173   1    107.8000    276.1440
    147    148    149   1    112.7000    488.2728
    147    148    174   1    110.7000    313.8000
    147    148    175   1    110.7000    313.8000
    149    148    174   1    110.7000    313.8000
    149    148    175   1    110.7000    313.8000
    174    148    175   1    107.8000    276.1440
    148    149    150   1    112.7000    488.2728
    148    149    176   1    110.7000    313.8000
    148    149    177   1    110.7000    313.8000
    150    149    176   1    110.7000    313.8000
    150    149    177   1    110.7000    313.8000
    176    149    177   1    107.8000    276.1440
    149    150    151   1    112.7000    488.2728
    149    150    178   1    110.7000    313.8000
    149    150    179   1    110.7000    313.8000
    151    150    178   1    110.7000    313.8000
    151    150    179   1    110.7000    313.8000
    178    150    179   1    107.8000    276.1440
    150    151    152   1    112.7000    488.2728
    150    151    180   1    110.7000    313.8000
    150    151    181   1    110.7000    313.8000
    152    151    180   1    110.7000    313.8000
    152    151    181   1    110.7000    313.8000
    180    151    181   1    107.8000    276.1440
    151    152    153   1    112.7000    488.2728
    151    152    182   1    110.7000    313.8000
    151    152    183   1    110.7000    313.8000
    153    152    182   1    110.7000    313.8000
    153    152    183   1    110.7000    313.8000
    182    152    183   1    107.8000    276.1440
    152    153    154   1    109.5000    418.4000
    152    153    184   1    110.7000    313.8000
    152    153    185   1    110.7000    313.8000
    154    153    184   1    109.5000    292.8800
    154    153    185   1    109.5000    292.8800
    184    153    185   1    107.8000    276.1440
    153    154    155   1    116.9000    694.5440
    154    155    156   1    123.4000    694.5440
    154    155    157   1    111.4000    677.8080
    156    155    157   1    123.7840    627.6000
    155    157    158   1    119.5260    502.0800
    155    157    165   1    119.5260    502.0800
    158    157    165   1    120.0000    527.1840
    157    158    159   1    120.0000    527.1840
    157    158    186   1    120.0000    292.8800
    159    158    186   1    120.0000    292.8800
    158    159    160   1    120.0000    527.1840
    158    159    187   1    120.0000    292.8800
    160    159    187   1    120.0000    292.8800
    159    160    161   1    119.5260    502.0800
    159    160    164   1    120.0000    527.1840
    161    160    164   1    119.5260    502.0800
    160    161    162   1    123.7840    627.6000
    160    161    163   1    111.4000    677.8080
    162    161    163   1    123.4000    694.5440
    161    163    190   1    112.0000   1004.1600
    160    164    165   1    120.0000    527.1840
    160    164    188   1    120.0000    292.8800
    165    164    188   1    120.0000    292.8800
    157    165    164   1    120.0000    527.1840
    157    165    189   1    120.0000    292.8800
    164    165    189   1    120.0000    292.8800
    163    190    191   1    107.0000   1046.0000
    190    191    192   1    109.5000    418.4000
    190    191    213   1    109.5000    292.8800
    190    191    214   1    109.5000    292.8800
    192    191    213   1    110.7000    313.8000
    192    191    214   1    110.7000    313.8000
    213    191    214   1    107.8000    276.1440
    191    192    193   1    112.7000    488.2728
    191    192    215   1    110.7000    313.8000
    191    192    216   1    110.7000    313.8000
    193    192    215   1    110.7000    313.8000
    193    192    216   1    110.7000    313.8000
    215    192    216   1    107.8000    276.1440
    192    193    194   1    112.7000    488.2728
    192    193    217   1    110.7000    313.8000
    192    193    218   1    110.7000    313.8000
    194    193    217   1    110.7000    313.8000
    194    193    218   1    110.7000    313.8000
    217    193    218   1    107.8000    276.1440
    193    194    195   1    112.7000    488.2728
    193    194    219   1    110.7000    313.8000
    193    194    220   1    110.7000    313.8000
    195    194    219   1    110.7000    313.8000
    195    194    220   1    110.7000    313.8000
    219    194    220   1    107.8000    276.1440
    194    195    196   1    112.7000    488.2728
    194    195    221   1    110.7000    313.8000
    194    195    222   1    110.7000    313.8000
    196    195    221   1    110.7000    313.8000
    196    195    222   1    110.7000    313.8000
    221    195    222   1    107.8000    276.1440
    195    196    197   1    112.7000    488.2728
    195    196    223   1    110.7000    313.8000
    195    196    224   1    110.7000    313.8000
    197    196    223   1    110.7000    313.8000
    197    196    224   1    110.7000    313.8000
    223    196    224   1    107.8000    276.1440
    196    197    198   1    112.7000    488.2728
    196    197    225   1    110.7000    313.8000
    196    197    226   1    110.7000    313.8000
    198    197    225   1    110.7000    313.8000
    198    197    226   1    110.7000    313.8000
    225    197    226   1    107.8000    276.1440
    197    198    199   1    112.7000    488.2728
    197    198    227   1    110.7000    313.8000
    197    198    228   1    110.7000    313.8000
    199    198    227   1    110.7000    313.8000
    199    198    228   1    110.7000    313.8000
    227    198    228   1    107.8000    276.1440
    198    199    200   1    112.7000    488.2728
    198    199    229   1    110.7000    313.8000
    198    199    230   1    110.7000    313.8000
    200    199    229   1    110.7000    313.8000
    200    199    230   1    110.7000    313.8000
    229    199    230   1    107.8000    276.1440
    199    200    201   1    109.5000    418.4000
    199    200    231   1    110.7000    313.8000
    199    200    232   1    110.7000    313.8000
    201    200    231   1    109.5000    292.8800
    201    200    232   1    109.5000    292.8800
    231    200    232   1    107.8000    276.1440
    200    201    202   1    116.9000    694.5440
    201    202    203   1    123.4000    694.5440
    201    202    204   1    111.4000    677.8080
    203    202    204   1    123.7840    627.6000
    202    204    205   1    119.5260    502.0800
    202    204    212   1    119.5260    502.0800
    205    204    212   1    120.0000    527.1840
    204    205    206   1    120.0000    527.1840
    204    205    233   1    120.0000    292.8800
    206    205    233   1    120.0000    292.8800
    205    206    207   1    120.0000    527.1840
    205    206    234   1    120.0000    292.8800
    207    206    234   1    120.0000    292.8800
    206    207    208   1    119.5260    502.0800
    206    207    211   1    120.0000    527.1840
    208    207    211   1    119.5260    502.0800
    207    208    209   1    123.7840    627.6000
    207    208    210   1    111.4000    677.8080
    209    208    210   1    123.4000    694.5440
    208    210    237   1    112.0000   1004.1600
    207    211    212   1    120.0000    527.1840
    207    211    235   1    120.0000    292.8800
    212    211    235   1    120.0000    292.8800
    204    212    211   1    120.0000    527.1840
    204    212    236   1    120.0000    292.8800
    211    212    236   1    120.0000    292.8800
    210    237    238   1    107.0000   1046.0000
    237    238    239   1    109.5000    418.4000
    237    238    260   1    109.5000    292.8800
    237    238    261   1    109.5000    292.8800
    239    238    260   1    110.7000    313.8000
    239    238    261   1    110.7000    313.8000
    260    238    261   1    107.8000    276.1440
    238    239    240   1    112.7000    488.2728
    238    239    262   1    110.7000    313.8000
    238    239    263   1    110.7000    313.8000
    240    239    262   1    110.7000    313.8000
    240    239    263   1    110.7000    313.8000
    262    239    263   1    107.8000    276.1440
    239    240    241   1    112.7000    488.2728
    239    240    264   1    110.7000    313.8000
    239    240    265   1    110.7000    313.8000
    241    240    264   1    110.7000    313.8000
    241    240    265   1    110.7000    313.8000
    264    240    265   1    107.8000    276.1440
    240    241    242   1    112.7000    488.2728
    240    241    266   1    110.7000    313.8000
    240    241    267   1    110.7000    313.8000
    242    241    266   1    110.7000    313.8000
    242    241    267   1    110.7000    313.8000
    266    241    267   1    107.8000    276.1440
    241    242    243   1    112.7000    488.2728
    241    242    268   1    110.7000    313.8000
    241    242    269   1    110.7000    313.8000
    243    242    268   1    110.7000    313.8000
    243    242    269   1    110.7000    313.8000
    268    242    269   1    107.8000    276.1440
    242    243    244   1    112.7000    488.2728
    242    243    270   1    110.7000    313.8000
    242    243    271   1    110.7000    313.8000
    244    243    270   1    110.7000    313.8000
    244    243    271   1    110.7000    313.8000
    270    243    271   1    107.8000    276.1440
    243    244    245   1    112.7000    488.2728
    243    244    272   1    110.7000    313.8000
    243    244    273   1    110.7000    313.8000
    245    244    272   1    110.7000    313.8000
    245    244    273   1    110.7000    313.8000
    272    244    273   1    107.8000    276.1440
    244    245    246   1    112.7000    488.2728
    244    245    274   1    110.7000    313.8000
    244    245    275   1    110.7000    313.8000
    246    245    274   1    110.7000    313.8000
    246    245    275   1    110.7000    313.8000
    274    245    275   1    107.8000    276.1440
    245    246    247   1    112.7000    488.2728
    245    246    276   1    110.7000    313.8000
    245    246    277   1    110.7000    313.8000
    247    246    276   1    110.7000    313.8000
    247    246    277   1    110.7000    313.8000
    276    246    277   1    107.8000    276.1440
    246    247    248   1    109.5000    418.4000
    246    247    278   1    110.7000    313.8000
    246    247    279   1    110.7000    313.8000
    248    247    278   1    109.5000    292.8800
    248    247    279   1    109.5000    292.8800
    278    247    279   1    107.8000    276.1440
    247    248    249   1    116.9000    694.5440
    248    249    250   1    123.4000    694.5440
    248    249    251   1    111.4000    677.8080
    250    249    251   1    123.7840    627.6000
    249    251    252   1    119.5260    502.0800
    249    251    259   1    119.5260    502.0800
    252    251    259   1    120.0000    527.1840
    251    252    253   1    120.0000    527.1840
    251    252    280   1    120.0000    292.8800
    253    252    280   1    120.0000    292.8800
    252    253    254   1    120.0000    527.1840
    252    253    281   1    120.0000    292.8800
    254    253    281   1    120.0000    292.8800
    253    254    255   1    119.5260    502.0800
    253    254    258   1    120.0000    527.1840
    255    254    258   1    119.5260    502.0800
    254    255    256   1    123.7840    627.6000
    254    255    257   1    111.4000    677.8080
    256    255    257   1    123.4000    694.5440
    255    257    284   1    112.0000   1004.1600
    254    258    259   1    120.0000    527.1840
    254    258    282   1    120.0000    292.8800
    259    258    282   1    120.0000    292.8800
    251    259    258   1    120.0000    527.1840
    251    259    283   1    120.0000    292.8800
    258    259    283   1    120.0000    292.8800
    257    284    285   1    107.0000   1046.0000
    284    285    286   1    109.5000    418.4000
    284    285    307   1    109.5000    292.8800
    284    285    308   1    109.5000    292.8800
    286    285    307   1    110.7000    313.8000
    286    285    308   1    110.7000    313.8000
    307    285    308   1    107.8000    276.1440
    285    286    287   1    112.7000    488.2728
    285    286    309   1    110.7000    313.8000
    285    286    310   1    110.7000    313.8000
    287    286    309   1    110.7000    313.8000
    287    286    310   1    110.7000    313.8000
    309    286    310   1    107.8000    276.1440
    286    287    288   1    112.7000    488.2728
    286    287    311   1    110.7000    313.8000
    286    287    312   1    110.7000    313.8000
    288    287    311   1    110.7000    313.8000
    288    287    312   1    110.7000    313.8000
    311    287    312   1    107.8000    276.1440
    287    288    289   1    112.7000    488.2728
    287    288    313   1    110.7000    313.8000
    287    288    314   1    110.7000    313.8000
    289    288    313   1    110.7000    313.8000
    289    288    314   1    110.7000    313.8000
    313    288    314   1    107.8000    276.1440
    288    289    290   1    112.7000    488.2728
    288    289    315   1    110.7000    313.8000
    288    289    316   1    110.7000    313.8000
    290    289    315   1    110.7000    313.8000
    290    289    316   1    110.7000    313.8000
    315    289    316   1    107.8000    276.1440
    289    290    291   1    112.7000    488.2728
    289    290    317   1    110.7000    313.8000
    289    290    318   1    110.7000    313.8000
    291    290    317   1    110.7000    313.8000
    291    290    318   1    110.7000    313.8000
    317    290    318   1    107.8000    276.1440
    290    291    292   1    112.7000    488.2728
    290    291    319   1    110.7000    313.8000
    290    291    320   1    110.7000    313.8000
    292    291    319   1    110.7000    313.8000
    292    291    320   1    110.7000    313.8000
    319    291    320   1    107.8000    276.1440
    291    292    293   1    112.7000    488.2728
    291    292    321   1    110.7000    313.8000
    291    292    322   1    110.7000    313.8000
    293    292    321   1    110.7000    313.8000
    293    292    322   1    110.7000    313.8000
    321    292    322   1    107.8000    276.1440
    292    293    294   1    112.7000    488.2728
    292    293    323   1    110.7000    313.8000
    292    293    324   1    110.7000    313.8000
    294    293    323   1    110.7000    313.8000
    294    293    324   1    110.7000    313.8000
    323    293    324   1    107.8000    276.1440
    293    294    295   1    109.5000    418.4000
    293    294    325   1    110.7000    313.8000
    293    294    326   1    110.7000    313.8000
    295    294    325   1    109.5000    292.8800
    295    294    326   1    109.5000    292.8800
    325    294    326   1    107.8000    276.1440
    294    295    296   1    116.9000    694.5440
    295    296    297   1    123.4000    694.5440
    295    296    298   1    111.4000    677.8080
    297    296    298   1    123.7840    627.6000
    296    298    299   1    119.5260    502.0800
    296    298    306   1    119.5260    502.0800
    299    298    306   1    120.0000    527.1840
    298    299    300   1    120.0000    527.1840
    298    299    327   1    120.0000    292.8800
    300    299    327   1    120.0000    292.8800
    299    300    301   1    120.0000    527.1840
    299    300    328   1    120.0000    292.8800
    301    300    328   1    120.0000    292.8800
    300    301    302   1    119.5260    502.0800
    300    301    305   1    120.0000    527.1840
    302    301    305   1    119.5260    502.0800
    301    302    303   1    123.7840    627.6000
    301    302    304   1    111.4000    677.8080
    303    302    304   1    123.4000    694.5440
    302    304    331   1    112.0000   1004.1600
    301    305    306   1    120.0000    527.1840
    301    305    329   1    120.0000    292.8800
    306    305    329   1    120.0000    292.8800
    298    306    305   1    120.0000    527.1840
    298    306    330   1    120.0000    292.8800
    305    306    330   1    120.0000    292.8800
    304    331    332   1    107.0000   1046.0000
    331    332    333   1    109.5000    418.4000
    331    332    354   1    109.5000    292.8800
    331    332    355   1    109.5000    292.8800
    333    332    354   1    110.7000    313.8000
    333    332    355   1    110.7000    313.8000
    354    332    355   1    107.8000    276.1440
    332    333    334   1    112.7000    488.2728
    332    333    356   1    110.7000    313.8000
    332    333    357   1    110.7000    313.8000
    334    333    356   1    110.7000    313.8000
    334    333    357   1    110.7000    313.8000
    356    333    357   1    107.8000    276.1440
    333    334    335   1    112.7000    488.2728
    333    334    358   1    110.7000    313.8000
    333    334    359   1    110.7000    313.8000
    335    334    358   1    110.7000    313.8000
    335    334    359   1    110.7000    313.8000
    358    334    359   1    107.8000    276.1440
    334    335    336   1    112.7000    488.2728
    334    335    360   1    110.7000    313.8000
    334    335    361   1    110.7000    313.8000
    336    335    360   1    110.7000    313.8000
    336    335    361   1    110.7000    313.8000
    360    335    361   1    107.8000    276.1440
    335    336    337   1    112.7000    488.2728
    335    336    362   1    110.7000    313.8000
    335    336    363   1    110.7000    313.8000
    337    336    362   1    110.7000    313.8000
    337    336    363   1    110.7000    313.8000
    362    336    363   1    107.8000    276.1440
    336    337    338   1    112.7000    488.2728
    336    337    364   1    110.7000    313.8000
    336    337    365   1    110.7000    313.8000
    338    337    364   1    110.7000    313.8000
    338    337    365   1    110.7000    313.8000
    364    337    365   1    107.8000    276.1440
    337    338    339   1    112.7000    488.2728
    337    338    366   1    110.7000    313.8000
    337    338    367   1    110.7000    313.8000
    339    338    366   1    110.7000    313.8000
    339    338    367   1    110.7000    313.8000
    366    338    367   1    107.8000    276.1440
    338    339    340   1    112.7000    488.2728
    338    339    368   1    110.7000    313.8000
    338    339    369   1    110.7000    313.8000
    340    339    368   1    110.7000    313.8000
    340    339    369   1    110.7000    313.8000
    368    339    369   1    107.8000    276.1440
    339    340    341   1    112.7000    488.2728
    339    340    370   1    110.7000    313.8000
    339    340    371   1    110.7000    313.8000
    341    340    370   1    110.7000    313.8000
    341    340    371   1    110.7000    313.8000
    370    340    371   1    107.8000    276.1440
    340    341    342   1    109.5000    418.4000
    340    341    372   1    110.7000    313.8000
    340    341    373   1    110.7000    313.8000
    342    341    372   1    109.5000    292.8800
    342    341    373   1    109.5000    292.8800
    372    341    373   1    107.8000    276.1440
    341    342    343   1    116.9000    694.5440
    342    343    344   1    123.4000    694.5440
    342    343    345   1    111.4000    677.8080
    344    343    345   1    123.7840    627.6000
    343    345    346   1    119.5260    502.0800
    343    345    353   1    119.5260    502.0800
    346    345    353   1    120.0000    527.1840
    345    346    347   1    120.0000    527.1840
    345    346    374   1    120.0000    292.8800
    347    346    374   1    120.0000    292.8800
    346    347    348   1    120.0000    527.1840
    346    347    375   1    120.0000    292.8800
    348    347    375   1    120.0000    292.8800
    347    348    349   1    119.5260    502.0800
    347    348    352   1    120.0000    527.1840
    349    348    352   1    119.5260    502.0800
    348    349    350   1    123.7840    627.6000
    348    349    351   1    111.4000    677.8080
    350    349    351   1    123.4000    694.5440
    349    351    378   1    112.0000   1004.1600
    348    352    353   1    120.0000    527.1840
    348    352    376   1    120.0000    292.8800
    353    352    376   1    120.0000    292.8800
    345    353    352   1    120.0000    527.1840
    345    353    377   1    120.0000    292.8800
    352    353    377   1    120.0000    292.8800
    351    378    379   1    107.0000   1046.0000
    378    379    380   1    109.5000    418.4000
    378    379    401   1    109.5000    292.8800
    378    379    402   1    109.5000    292.8800
    380    379    401   1    110.7000    313.8000
    380    379    402   1    110.7000    313.8000
    401    379    402   1    107.8000    276.1440
    379    380    381   1    112.7000    488.2728
    379    380    403   1    110.7000    313.8000
    379    380    404   1    110.7000    313.8000
    381    380    403   1    110.7000    313.8000
    381    380    404   1    110.7000    313.8000
    403    380    404   1    107.8000    276.1440
    380    381    382   1    112.7000    488.2728
    380    381    405   1    110.7000    313.8000
    380    381    406   1    110.7000    313.8000
    382    381    405   1    110.7000    313.8000
    382    381    406   1    110.7000    313.8000
    405    381    406   1    107.8000    276.1440
    381    382    383   1    112.7000    488.2728
    381    382    407   1    110.7000    313.8000
    381    382    408   1    110.7000    313.8000
    383    382    407   1    110.7000    313.8000
    383    382    408   1    110.7000    313.8000
    407    382    408   1    107.8000    276.1440
    382    383    384   1    112.7000    488.2728
    382    383    409   1    110.7000    313.8000
    382    383    410   1    110.7000    313.8000
    384    383    409   1    110.7000    313.8000
    384    383    410   1    110.7000    313.8000
    409    383    410   1    107.8000    276.1440
    383    384    385   1    112.7000    488.2728
    383    384    411   1    110.7000    313.8000
    383    384    412   1    110.7000    313.8000
    385    384    411   1    110.7000    313.8000
    385    384    412   1    110.7000    313.8000
    411    384    412   1    107.8000    276.1440
    384    385    386   1    112.7000    488.2728
    384    385    413   1    110.7000    313.8000
    384    385    414   1    110.7000    313.8000
    386    385    413   1    110.7000    313.8000
    386    385    414   1    110.7000    313.8000
    413    385    414   1    107.8000    276.1440
    385    386    387   1    112.7000    488.2728
    385    386    415   1    110.7000    313.8000
    385    386    416   1    110.7000    313.8000
    387    386    415   1    110.7000    313.8000
    387    386    416   1    110.7000    313.8000
    415    386    416   1    107.8000    276.1440
    386    387    388   1    112.7000    488.2728
    386    387    417   1    110.7000    313.8000
    386    387    418   1    110.7000    313.8000
    388    387    417   1    110.7000    313.8000
    388    387    418   1    110.7000    313.8000
    417    387    418   1    107.8000    276.1440
    387    388    389   1    109.5000    418.4000
    387    388    419   1    110.7000    313.8000
    387    388    420   1    110.7000    313.8000
    389    388    419   1    109.5000    292.8800
    389    388    420   1    109.5000    292.8800
    419    388    420   1    107.8000    276.1440
    388    389    390   1    116.9000    694.5440
    389    390    391   1    123.4000    694.5440
    389    390    392   1    111.4000    677.8080
    391    390    392   1    123.7840    627.6000
    390    392    393   1    119.5260    502.0800
    390    392    400   1    119.5260    502.0800
    393    392    400   1    120.0000    527.1840
    392    393    394   1    120.0000    527.1840
    392    393    421   1    120.0000    292.8800
    394    393    421   1    120.0000    292.8800
    393    394    395   1    120.0000    527.1840
    393    394    422   1    120.0000    292.8800
    395    394    422   1    120.0000    292.8800
    394    395    396   1    119.5260    502.0800
    394    395    399   1    120.0000    527.1840
    396    395    399   1    119.5260    502.0800
    395    396    397   1    123.7840    627.6000
    395    396    398   1    111.4000    677.8080
    397    396    398   1    123.4000    694.5440
    396    398    425   1    112.0000   1004.1600
    395    399    400   1    120.0000    527.1840
    395    399    423   1    120.0000    292.8800
    400    399    423   1    120.0000    292.8800
    392    400    399   1    120.0000    527.1840
    392    400    424   1    120.0000    292.8800
    399    400    424   1    120.0000    292.8800
    398    425    426   1    107.0000   1046.0000
    425    426    427   1    109.5000    418.4000
    425    426    448   1    109.5000    292.8800
    425    426    449   1    109.5000    292.8800
    427    426    448   1    110.7000    313.8000
    427    426    449   1    110.7000    313.8000
    448    426    449   1    107.8000    276.1440
    426    427    428   1    112.7000    488.2728
    426    427    450   1    110.7000    313.8000
    426    427    451   1    110.7000    313.8000
    428    427    450   1    110.7000    313.8000
    428    427    451   1    110.7000    313.8000
    450    427    451   1    107.8000    276.1440
    427    428    429   1    112.7000    488.2728
    427    428    452   1    110.7000    313.8000
    427    428    453   1    110.7000    313.8000
    429    428    452   1    110.7000    313.8000
    429    428    453   1    110.7000    313.8000
    452    428    453   1    107.8000    276.1440
    428    429    430   1    112.7000    488.2728
    428    429    454   1    110.7000    313.8000
    428    429    455   1    110.7000    313.8000
    430    429    454   1    110.7000    313.8000
    430    429    455   1    110.7000    313.8000
    454    429    455   1    107.8000    276.1440
    429    430    431   1    112.7000    488.2728
    429    430    456   1    110.7000    313.8000
    429    430    457   1    110.7000    313.8000
    431    430    456   1    110.7000    313.8000
    431    430    457   1    110.7000    313.8000
    456    430    457   1    107.8000    276.1440
    430    431    432   1    112.7000    488.2728
    430    431    458   1    110.7000    313.8000
    430    431    459   1    110.7000    313.8000
    432    431    458   1    110.7000    313.8000
    432    431    459   1    110.7000    313.8000
    458    431    459   1    107.8000    276.1440
    431    432    433   1    112.7000    488.2728
    431    432    460   1    110.7000    313.8000
    431    432    461   1    110.7000    313.8000
    433    432    460   1    110.7000    313.8000
    433    432    461   1    110.7000    313.8000
    460    432    461   1    107.8000    276.1440
    432    433    434   1    112.7000    488.2728
    432    433    462   1    110.7000    313.8000
    432    433    463   1    110.7000    313.8000
    434    433    462   1    110.7000    313.8000
    434    433    463   1    110.7000    313.8000
    462    433    463   1    107.8000    276.1440
    433    434    435   1    112.7000    488.2728
    433    434    464   1    110.7000    313.8000
    433    434    465   1    110.7000    313.8000
    435    434    464   1    110.7000    313.8000
    435    434    465   1    110.7000    313.8000
    464    434    465   1    107.8000    276.1440
    434    435    436   1    109.5000    418.4000
    434    435    466   1    110.7000    313.8000
    434    435    467   1    110.7000    313.8000
    436    435    466   1    109.5000    292.8800
    436    435    467   1    109.5000    292.8800
    466    435    467   1    107.8000    276.1440
    435    436    437   1    116.9000    694.5440
    436    437    438   1    123.4000    694.5440
    436    437    439   1    111.4000    677.8080
    438    437    439   1    123.7840    627.6000
    437    439    440   1    119.5260    502.0800
    437    439    447   1    119.5260    502.0800
    440    439    447   1    120.0000    527.1840
    439    440    441   1    120.0000    527.1840
    439    440    468   1    120.0000    292.8800
    441    440    468   1    120.0000    292.8800
    440    441    442   1    120.0000    527.1840
    440    441    469   1    120.0000    292.8800
    442    441    469   1    120.0000    292.8800
    441    442    443   1    119.5260    502.0800
    441    442    446   1    120.0000    527.1840
    443    442    446   1    119.5260    502.0800
    442    443    444   1    123.7840    627.6000
    442    443    445   1    111.4000    677.8080
    444    443    445   1    123.4000    694.5440
    443    445    472   1    112.0000   1004.1600
    442    446    447   1    120.0000    527.1840
    442    446    470   1    120.0000    292.8800
    447    446    470   1    120.0000    292.8800
    439    447    446   1    120.0000    527.1840
    439    447    471   1    120.0000    292.8800
    446    447    471   1    120.0000    292.8800
    445    472    473   1    107.0000   1046.0000
    472    473    474   1    109.5000    418.4000
    472    473    495   1    109.5000    292.8800
    472    473    496   1    109.5000    292.8800
    474    473    495   1    110.7000    313.8000
    474    473    496   1    110.7000    313.8000
    495    473    496   1    107.8000    276.1440
    473    474    475   1    112.7000    488.2728
    473    474    497   1    110.7000    313.8000
    473    474    498   1    110.7000    313.8000
    475    474    497   1    110.7000    313.8000
    475    474    498   1    110.7000    313.8000
    497    474    498   1    107.8000    276.1440
    474    475    476   1    112.7000    488.2728
    474    475    499   1    110.7000    313.8000
    474    475    500   1    110.7000    313.8000
    476    475    499   1    110.7000    313.8000
    476    475    500   1    110.7000    313.8000
    499    475    500   1    107.8000    276.1440
    475    476    477   1    112.7000    488.2728
    475    476    501   1    110.7000    313.8000
    475    476    502   1    110.7000    313.8000
    477    476    501   1    110.7000    313.8000
    477    476    502   1    110.7000    313.8000
    501    476    502   1    107.8000    276.1440
    476    477    478   1    112.7000    488.2728
    476    477    503   1    110.7000    313.8000
    476    477    504   1    110.7000    313.8000
    478    477    503   1    110.7000    313.8000
    478    477    504   1    110.7000    313.8000
    503    477    504   1    107.8000    276.1440
    477    478    479   1    112.7000    488.2728
    477    478    505   1    110.7000    313.8000
    477    478    506   1    110.7000    313.8000
    479    478    505   1    110.7000    313.8000
    479    478    506   1    110.7000    313.8000
    505    478    506   1    107.8000    276.1440
    478    479    480   1    112.7000    488.2728
    478    479    507   1    110.7000    313.8000
    478    479    508   1    110.7000    313.8000
    480    479    507   1    110.7000    313.8000
    480    479    508   1    110.7000    313.8000
    507    479    508   1    107.8000    276.1440
    479    480    481   1    112.7000    488.2728
    479    480    509   1    110.7000    313.8000
    479    480    510   1    110.7000    313.8000
    481    480    509   1    110.7000    313.8000
    481    480    510   1    110.7000    313.8000
    509    480    510   1    107.8000    276.1440
    480    481    482   1    112.7000    488.2728
    480    481    511   1    110.7000    313.8000
    480    481    512   1    110.7000    313.8000
    482    481    511   1    110.7000    313.8000
    482    481    512   1    110.7000    313.8000
    511    481    512   1    107.8000    276.1440
    481    482    483   1    109.5000    418.4000
    481    482    513   1    110.7000    313.8000
    481    482    514   1    110.7000    313.8000
    483    482    513   1    109.5000    292.8800
    483    482    514   1    109.5000    292.8800
    513    482    514   1    107.8000    276.1440
    482    483    484   1    116.9000    694.5440
    483    484    485   1    123.4000    694.5440
    483    484    486   1    111.4000    677.8080
    485    484    486   1    123.7840    627.6000
    484    486    487   1    119.5260    502.0800
    484    486    494   1    119.5260    502.0800
    487    486    494   1    120.0000    527.1840
    486    487    488   1    120.0000    527.1840
    486    487    515   1    120.0000    292.8800
    488    487    515   1    120.0000    292.8800
    487    488    489   1    120.0000    527.1840
    487    488    516   1    120.0000    292.8800
    489    488    516   1    120.0000    292.8800
    488    489    490   1    119.5260    502.0800
    488    489    493   1    120.0000    527.1840
    490    489    493   1    119.5260    502.0800
    489    490    491   1    123.7840    627.6000
    489    490    492   1    111.4000    677.8080
    491    490    492   1    123.4000    694.5440
    490    492    519   1    112.0000   1004.1600
    489    493    494   1    120.0000    527.1840
    489    493    517   1    120.0000    292.8800
    494    493    517   1    120.0000    292.8800
    486    494    493   1    120.0000    527.1840
    486    494    518   1    120.0000    292.8800
    493    494    518   1    120.0000    292.8800
    492    519    520   1    107.0000   1046.0000
    519    520    521   1    109.5000    418.4000
    519    520    542   1    109.5000    292.8800
    519    520    543   1    109.5000    292.8800
    521    520    542   1    110.7000    313.8000
    521    520    543   1    110.7000    313.8000
    542    520    543   1    107.8000    276.1440
    520    521    522   1    112.7000    488.2728
    520    521    544   1    110.7000    313.8000
    520    521    545   1    110.7000    313.8000
    522    521    544   1    110.7000    313.8000
    522    521    545   1    110.7000    313.8000
    544    521    545   1    107.8000    276.1440
    521    522    523   1    112.7000    488.2728
    521    522    546   1    110.7000    313.8000
    521    522    547   1    110.7000    313.8000
    523    522    546   1    110.7000    313.8000
    523    522    547   1    110.7000    313.8000
    546    522    547   1    107.8000    276.1440
    522    523    524   1    112.7000    488.2728
    522    523    548   1    110.7000    313.8000
    522    523    549   1    110.7000    313.8000
    524    523    548   1    110.7000    313.8000
    524    523    549   1    110.7000    313.8000
    548    523    549   1    107.8000    276.1440
    523    524    525   1    112.7000    488.2728
    523    524    550   1    110.7000    313.8000
    523    524    551   1    110.7000    313.8000
    525    524    550   1    110.7000    313.8000
    525    524    551   1    110.7000    313.8000
    550    524    551   1    107.8000    276.1440
    524    525    526   1    112.7000    488.2728
    524    525    552   1    110.7000    313.8000
    524    525    553   1    110.7000    313.8000
    526    525    552   1    110.7000    313.8000
    526    525    553   1    110.7000    313.8000
    552    525    553   1    107.8000    276.1440
    525    526    527   1    112.7000    488.2728
    525    526    554   1    110.7000    313.8000
    525    526    555   1    110.7000    313.8000
    527    526    554   1    110.7000    313.8000
    527    526    555   1    110.7000    313.8000
    554    526    555   1    107.8000    276.1440
    526    527    528   1    112.7000    488.2728
    526    527    556   1    110.7000    313.8000
    526    527    557   1    110.7000    313.8000
    528    527    556   1    110.7000    313.8000
    528    527    557   1    110.7000    313.8000
    556    527    557   1    107.8000    276.1440
    527    528    529   1    112.7000    488.2728
    527    528    558   1    110.7000    313.8000
    527    528    559   1    110.7000    313.8000
    529    528    558   1    110.7000    313.8000
    529    528    559   1    110.7000    313.8000
    558    528    559   1    107.8000    276.1440
    528    529    530   1    109.5000    418.4000
    528    529    560   1    110.7000    313.8000
    528    529    561   1    110.7000    313.8000
    530    529    560   1    109.5000    292.8800
    530    529    561   1    109.5000    292.8800
    560    529    561   1    107.8000    276.1440
    529    530    531   1    116.9000    694.5440
    530    531    532   1    123.4000    694.5440
    530    531    533   1    111.4000    677.8080
    532    531    533   1    123.7840    627.6000
    531    533    534   1    119.5260    502.0800
    531    533    541   1    119.5260    502.0800
    534    533    541   1    120.0000    527.1840
    533    534    535   1    120.0000    527.1840
    533    534    562   1    120.0000    292.8800
    535    534    562   1    120.0000    292.8800
    534    535    536   1    120.0000    527.1840
    534    535    563   1    120.0000    292.8800
    536    535    563   1    120.0000    292.8800
    535    536    537   1    119.5260    502.0800
    535    536    540   1    120.0000    527.1840
    537    536    540   1    119.5260    502.0800
    536    537    538   1    123.7840    627.6000
    536    537    539   1    111.4000    677.8080
    538    537    539   1    123.4000    694.5440
    537    539    566   1    112.0000   1004.1600
    536    540    541   1    120.0000    527.1840
    536    540    564   1    120.0000    292.8800
    541    540    564   1    120.0000    292.8800
    533    541    540   1    120.0000    527.1840
    533    541    565   1    120.0000    292.8800
    540    541    565   1    120.0000    292.8800
    539    566    567   1    107.0000   1046.0000
    566    567    568   1    109.5000    418.4000
    566    567    589   1    109.5000    292.8800
    566    567    590   1    109.5000    292.8800
    568    567    589   1    110.7000    313.8000
    568    567    590   1    110.7000    313.8000
    589    567    590   1    107.8000    276.1440
    567    568    569   1    112.7000    488.2728
    567    568    591   1    110.7000    313.8000
    567    568    592   1    110.7000    313.8000
    569    568    591   1    110.7000    313.8000
    569    568    592   1    110.7000    313.8000
    591    568    592   1    107.8000    276.1440
    568    569    570   1    112.7000    488.2728
    568    569    593   1    110.7000    313.8000
    568    569    594   1    110.7000    313.8000
    570    569    593   1    110.7000    313.8000
    570    569    594   1    110.7000    313.8000
    593    569    594   1    107.8000    276.1440
    569    570    571   1    112.7000    488.2728
    569    570    595   1    110.7000    313.8000
    569    570    596   1    110.7000    313.8000
    571    570    595   1    110.7000    313.8000
    571    570    596   1    110.7000    313.8000
    595    570    596   1    107.8000    276.1440
    570    571    572   1    112.7000    488.2728
    570    571    597   1    110.7000    313.8000
    570    571    598   1    110.7000    313.8000
    572    571    597   1    110.7000    313.8000
    572    571    598   1    110.7000    313.8000
    597    571    598   1    107.8000    276.1440
    571    572    573   1    112.7000    488.2728
    571    572    599   1    110.7000    313.8000
    571    572    600   1    110.7000    313.8000
    573    572    599   1    110.7000    313.8000
    573    572    600   1    110.7000    313.8000
    599    572    600   1    107.8000    276.1440
    572    573    574   1    112.7000    488.2728
    572    573    601   1    110.7000    313.8000
    572    573    602   1    110.7000    313.8000
    574    573    601   1    110.7000    313.8000
    574    573    602   1    110.7000    313.8000
    601    573    602   1    107.8000    276.1440
    573    574    575   1    112.7000    488.2728
    573    574    603   1    110.7000    313.8000
    573    574    604   1    110.7000    313.8000
    575    574    603   1    110.7000    313.8000
    575    574    604   1    110.7000    313.8000
    603    574    604   1    107.8000    276.1440
    574    575    576   1    112.7000    488.2728
    574    575    605   1    110.7000    313.8000
    574    575    606   1    110.7000    313.8000
    576    575    605   1    110.7000    313.8000
    576    575    606   1    110.7000    313.8000
    605    575    606   1    107.8000    276.1440
    575    576    577   1    109.5000    418.4000
    575    576    607   1    110.7000    313.8000
    575    576    608   1    110.7000    313.8000
    577    576    607   1    109.5000    292.8800
    577    576    608   1    109.5000    292.8800
    607    576    608   1    107.8000    276.1440
    576    577    578   1    116.9000    694.5440
    577    578    579   1    123.4000    694.5440
    577    578    580   1    111.4000    677.8080
    579    578    580   1    123.7840    627.6000
    578    580    581   1    119.5260    502.0800
    578    580    588   1    119.5260    502.0800
    581    580    588   1    120.0000    527.1840
    580    581    582   1    120.0000    527.1840
    580    581    609   1    120.0000    292.8800
    582    581    609   1    120.0000    292.8800
    581    582    583   1    120.0000    527.1840
    581    582    610   1    120.0000    292.8800
    583    582    610   1    120.0000    292.8800
    582    583    584   1    119.5260    502.0800
    582    583    587   1    120.0000    527.1840
    584    583    587   1    119.5260    502.0800
    583    584    585   1    123.7840    627.6000
    583    584    586   1    111.4000    677.8080
    585    584    586   1    123.4000    694.5440
    584    586    613   1    112.0000   1004.1600
    583    587    588   1    120.0000    527.1840
    583    587    611   1    120.0000    292.8800
    588    587    611   1    120.0000    292.8800
    580    588    587   1    120.0000    527.1840
    580    588    612   1    120.0000    292.8800
    587    588    612   1    120.0000    292.8800
    586    613    614   1    107.0000   1046.0000
    613    614    615   1    109.5000    418.4000
    613    614    636   1    109.5000    292.8800
    613    614    637   1    109.5000    292.8800
    615    614    636   1    110.7000    313.8000
    615    614    637   1    110.7000    313.8000
    636    614    637   1    107.8000    276.1440
    614    615    616   1    112.7000    488.2728
    614    615    638   1    110.7000    313.8000
    614    615    639   1    110.7000    313.8000
    616    615    638   1    110.7000    313.8000
    616    615    639   1    110.7000    313.8000
    638    615    639   1    107.8000    276.1440
    615    616    617   1    112.7000    488.2728
    615    616    640   1    110.7000    313.8000
    615    616    641   1    110.7000    313.8000
    617    616    640   1    110.7000    313.8000
    617    616    641   1    110.7000    313.8000
    640    616    641   1    107.8000    276.1440
    616    617    618   1    112.7000    488.2728
    616    617    642   1    110.7000    313.8000
    616    617    643   1    110.7000    313.8000
    618    617    642   1    110.7000    313.8000
    618    617    643   1    110.7000    313.8000
    642    617    643   1    107.8000    276.1440
    617    618    619   1    112.7000    488.2728
    617    618    644   1    110.7000    313.8000
    617    618    645   1    110.7000    313.8000
    619    618    644   1    110.7000    313.8000
    619    618    645   1    110.7000    313.8000
    644    618    645   1    107.8000    276.1440
    618    619    620   1    112.7000    488.2728
    618    619    646   1    110.7000    313.8000
    618    619    647   1    110.7000    313.8000
    620    619    646   1    110.7000    313.8000
    620    619    647   1    110.7000    313.8000
    646    619    647   1    107.8000    276.1440
    619    620    621   1    112.7000    488.2728
    619    620    648   1    110.7000    313.8000
    619    620    649   1    110.7000    313.8000
    621    620    648   1    110.7000    313.8000
    621    620    649   1    110.7000    313.8000
    648    620    649   1    107.8000    276.1440
    620    621    622   1    112.7000    488.2728
    620    621    650   1    110.7000    313.8000
    620    621    651   1    110.7000    313.8000
    622    621    650   1    110.7000    313.8000
    622    621    651   1    110.7000    313.8000
    650    621    651   1    107.8000    276.1440
    621    622    623   1    112.7000    488.2728
    621    622    652   1    110.7000    313.8000
    621    622    653   1    110.7000    313.8000
    623    622    652   1    110.7000    313.8000
    623    622    653   1    110.7000    313.8000
    652    622    653   1    107.8000    276.1440
    622    623    624   1    109.5000    418.4000
    622    623    654   1    110.7000    313.8000
    622    623    655   1    110.7000    313.8000
    624    623    654   1    109.5000    292.8800
    624    623    655   1    109.5000    292.8800
    654    623    655   1    107.8000    276.1440
    623    624    625   1    116.9000    694.5440
    624    625    626   1    123.4000    694.5440
    624    625    627   1    111.4000    677.8080
    626    625    627   1    123.7840    627.6000
    625    627    628   1    119.5260    502.0800
    625    627    635   1    119.5260    502.0800
    628    627    635   1    120.0000    527.1840
    627    628    629   1    120.0000    527.1840
    627    628    656   1    120.0000    292.8800
    629    628    656   1    120.0000    292.8800
    628    629    630   1    120.0000    527.1840
    628    629    657   1    120.0000    292.8800
    630    629    657   1    120.0000    292.8800
    629    630    631   1    119.5260    502.0800
    629    630    634   1    120.0000    527.1840
    631    630    634   1    119.5260    502.0800
    630    631    632   1    123.7840    627.6000
    630    631    633   1    111.4000    677.8080
    632    631    633   1    123.4000    694.5440
    631    633    660   1    112.0000   1004.1600
    630    634    635   1    120.0000    527.1840
    630    634    658   1    120.0000    292.8800
    635    634    658   1    120.0000    292.8800
    627    635    634   1    120.0000    527.1840
    627    635    659   1    120.0000    292.8800
    634    635    659   1    120.0000    292.8800
    633    660    661   1    107.0000   1046.0000
    660    661    662   1    109.5000    418.4000
    660    661    683   1    109.5000    292.8800
    660    661    684   1    109.5000    292.8800
    662    661    683   1    110.7000    313.8000
    662    661    684   1    110.7000    313.8000
    683    661    684   1    107.8000    276.1440
    661    662    663   1    112.7000    488.2728
    661    662    685   1    110.7000    313.8000
    661    662    686   1    110.7000    313.8000
    663    662    685   1    110.7000    313.8000
    663    662    686   1    110.7000    313.8000
    685    662    686   1    107.8000    276.1440
    662    663    664   1    112.7000    488.2728
    662    663    687   1    110.7000    313.8000
    662    663    688   1    110.7000    313.8000
    664    663    687   1    110.7000    313.8000
    664    663    688   1    110.7000    313.8000
    687    663    688   1    107.8000    276.1440
    663    664    665   1    112.7000    488.2728
    663    664    689   1    110.7000    313.8000
    663    664    690   1    110.7000    313.8000
    665    664    689   1    110.7000    313.8000
    665    664    690   1    110.7000    313.8000
    689    664    690   1    107.8000    276.1440
    664    665    666   1    112.7000    488.2728
    664    665    691   1    110.7000    313.8000
    664    665    692   1    110.7000    313.8000
    666    665    691   1    110.7000    313.8000
    666    665    692   1    110.7000    313.8000
    691    665    692   1    107.8000    276.1440
    665    666    667   1    112.7000    488.2728
    665    666    693   1    110.7000    313.8000
    665    666    694   1    110.7000    313.8000
    667    666    693   1    110.7000    313.8000
    667    666    694   1    110.7000    313.8000
    693    666    694   1    107.8000    276.1440
    666    667    668   1    112.7000    488.2728
    666    667    695   1    110.7000    313.8000
    666    667    696   1    110.7000    313.8000
    668    667    695   1    110.7000    313.8000
    668    667    696   1    110.7000    313.8000
    695    667    696   1    107.8000    276.1440
    667    668    669   1    112.7000    488.2728
    667    668    697   1    110.7000    313.8000
    667    668    698   1    110.7000    313.8000
    669    668    697   1    110.7000    313.8000
    669    668    698   1    110.7000    313.8000
    697    668    698   1    107.8000    276.1440
    668    669    670   1    112.7000    488.2728
    668    669    699   1    110.7000    313.8000
    668    669    700   1    110.7000    313.8000
    670    669    699   1    110.7000    313.8000
    670    669    700   1    110.7000    313.8000
    699    669    700   1    107.8000    276.1440
    669    670    671   1    109.5000    418.4000
    669    670    701   1    110.7000    313.8000
    669    670    702   1    110.7000    313.8000
    671    670    701   1    109.5000    292.8800
    671    670    702   1    109.5000    292.8800
    701    670    702   1    107.8000    276.1440
    670    671    672   1    116.9000    694.5440
    671    672    673   1    123.4000    694.5440
    671    672    674   1    111.4000    677.8080
    673    672    674   1    123.7840    627.6000
    672    674    675   1    119.5260    502.0800
    672    674    682   1    119.5260    502.0800
    675    674    682   1    120.0000    527.1840
    674    675    676   1    120.0000    527.1840
    674    675    703   1    120.0000    292.8800
    676    675    703   1    120.0000    292.8800
    675    676    677   1    120.0000    527.1840
    675    676    704   1    120.0000    292.8800
    677    676    704   1    120.0000    292.8800
    676    677    678   1    119.5260    502.0800
    676    677    681   1    120.0000    527.1840
    678    677    681   1    119.5260    502.0800
    677    678    679   1    123.7840    627.6000
    677    678    680   1    111.4000    677.8080
    679    678    680   1    123.4000    694.5440
    678    680    707   1    112.0000   1004.1600
    677    681    682   1    120.0000    527.1840
    677    681    705   1    120.0000    292.8800
    682    681    705   1    120.0000    292.8800
    674    682    681   1    120.0000    527.1840
    674    682    706   1    120.0000    292.8800
    681    682    706   1    120.0000    292.8800
    680    707    708   1    107.0000   1046.0000
    707    708    709   1    109.5000    418.4000
    707    708    730   1    109.5000    292.8800
    707    708    731   1    109.5000    292.8800
    709    708    730   1    110.7000    313.8000
    709    708    731   1    110.7000    313.8000
    730    708    731   1    107.8000    276.1440
    708    709    710   1    112.7000    488.2728
    708    709    732   1    110.7000    313.8000
    708    709    733   1    110.7000    313.8000
    710    709    732   1    110.7000    313.8000
    710    709    733   1    110.7000    313.8000
    732    709    733   1    107.8000    276.1440
    709    710    711   1    112.7000    488.2728
    709    710    734   1    110.7000    313.8000
    709    710    735   1    110.7000    313.8000
    711    710    734   1    110.7000    313.8000
    711    710    735   1    110.7000    313.8000
    734    710    735   1    107.8000    276.1440
    710    711    712   1    112.7000    488.2728
    710    711    736   1    110.7000    313.8000
    710    711    737   1    110.7000    313.8000
    712    711    736   1    110.7000    313.8000
    712    711    737   1    110.7000    313.8000
    736    711    737   1    107.8000    276.1440
    711    712    713   1    112.7000    488.2728
    711    712    738   1    110.7000    313.8000
    711    712    739   1    110.7000    313.8000
    713    712    738   1    110.7000    313.8000
    713    712    739   1    110.7000    313.8000
    738    712    739   1    107.8000    276.1440
    712    713    714   1    112.7000    488.2728
    712    713    740   1    110.7000    313.8000
    712    713    741   1    110.7000    313.8000
    714    713    740   1    110.7000    313.8000
    714    713    741   1    110.7000    313.8000
    740    713    741   1    107.8000    276.1440
    713    714    715   1    112.7000    488.2728
    713    714    742   1    110.7000    313.8000
    713    714    743   1    110.7000    313.8000
    715    714    742   1    110.7000    313.8000
    715    714    743   1    110.7000    313.8000
    742    714    743   1    107.8000    276.1440
    714    715    716   1    112.7000    488.2728
    714    715    744   1    110.7000    313.8000
    714    715    745   1    110.7000    313.8000
    716    715    744   1    110.7000    313.8000
    716    715    745   1    110.7000    313.8000
    744    715    745   1    107.8000    276.1440
    715    716    717   1    112.7000    488.2728
    715    716    746   1    110.7000    313.8000
    715    716    747   1    110.7000    313.8000
    717    716    746   1    110.7000    313.8000
    717    716    747   1    110.7000    313.8000
    746    716    747   1    107.8000    276.1440
    716    717    718   1    109.5000    418.4000
    716    717    748   1    110.7000    313.8000
    716    717    749   1    110.7000    313.8000
    718    717    748   1    109.5000    292.8800
    718    717    749   1    109.5000    292.8800
    748    717    749   1    107.8000    276.1440
    717    718    719   1    116.9000    694.5440
    718    719    720   1    123.4000    694.5440
    718    719    721   1    111.4000    677.8080
    720    719    721   1    123.7840    627.6000
    719    721    722   1    119.5260    502.0800
    719    721    729   1    119.5260    502.0800
    722    721    729   1    120.0000    527.1840
    721    722    723   1    120.0000    527.1840
    721    722    750   1    120.0000    292.8800
    723    722    750   1    120.0000    292.8800
    722    723    724   1    120.0000    527.1840
    722    723    751   1    120.0000    292.8800
    724    723    751   1    120.0000    292.8800
    723    724    725   1    119.5260    502.0800
    723    724    728   1    120.0000    527.1840
    725    724    728   1    119.5260    502.0800
    724    725    726   1    123.7840    627.6000
    724    725    727   1    111.4000    677.8080
    726    725    727   1    123.4000    694.5440
    725    727    754   1    112.0000   1004.1600
    724    728    729   1    120.0000    527.1840
    724    728    752   1    120.0000    292.8800
    729    728    752   1    120.0000    292.8800
    721    729    728   1    120.0000    527.1840
    721    729    753   1    120.0000    292.8800
    728    729    753   1    120.0000    292.8800
    727    754    755   1    107.0000   1046.0000
    754    755    756   1    109.5000    418.4000
    754    755    777   1    109.5000    292.8800
    754    755    778   1    109.5000    292.8800
    756    755    777   1    110.7000    313.8000
    756    755    778   1    110.7000    313.8000
    777    755    778   1    107.8000    276.1440
    755    756    757   1    112.7000    488.2728
    755    756    779   1    110.7000    313.8000
    755    756    780   1    110.7000    313.8000
    757    756    779   1    110.7000    313.8000
    757    756    780   1    110.7000    313.8000
    779    756    780   1    107.8000    276.1440
    756    757    758   1    112.7000    488.2728
    756    757    781   1    110.7000    313.8000
    756    757    782   1    110.7000    313.8000
    758    757    781   1    110.7000    313.8000
    758    757    782   1    110.7000    313.8000
    781    757    782   1    107.8000    276.1440
    757    758    759   1    112.7000    488.2728
    757    758    783   1    110.7000    313.8000
    757    758    784   1    110.7000    313.8000
    759    758    783   1    110.7000    313.8000
    759    758    784   1    110.7000    313.8000
    783    758    784   1    107.8000    276.1440
    758    759    760   1    112.7000    488.2728
    758    759    785   1    110.7000    313.8000
    758    759    786   1    110.7000    313.8000
    760    759    785   1    110.7000    313.8000
    760    759    786   1    110.7000    313.8000
    785    759    786   1    107.8000    276.1440
    759    760    761   1    112.7000    488.2728
    759    760    787   1    110.7000    313.8000
    759    760    788   1    110.7000    313.8000
    761    760    787   1    110.7000    313.8000
    761    760    788   1    110.7000    313.8000
    787    760    788   1    107.8000    276.1440
    760    761    762   1    112.7000    488.2728
    760    761    789   1    110.7000    313.8000
    760    761    790   1    110.7000    313.8000
    762    761    789   1    110.7000    313.8000
    762    761    790   1    110.7000    313.8000
    789    761    790   1    107.8000    276.1440
    761    762    763   1    112.7000    488.2728
    761    762    791   1    110.7000    313.8000
    761    762    792   1    110.7000    313.8000
    763    762    791   1    110.7000    313.8000
    763    762    792   1    110.7000    313.8000
    791    762    792   1    107.8000    276.1440
    762    763    764   1    112.7000    488.2728
    762    763    793   1    110.7000    313.8000
    762    763    794   1    110.7000    313.8000
    764    763    793   1    110.7000    313.8000
    764    763    794   1    110.7000    313.8000
    793    763    794   1    107.8000    276.1440
    763    764    765   1    109.5000    418.4000
    763    764    795   1    110.7000    313.8000
    763    764    796   1    110.7000    313.8000
    765    764    795   1    109.5000    292.8800
    765    764    796   1    109.5000    292.8800
    795    764    796   1    107.8000    276.1440
    764    765    766   1    116.9000    694.5440
    765    766    767   1    123.4000    694.5440
    765    766    768   1    111.4000    677.8080
    767    766    768   1    123.7840    627.6000
    766    768    769   1    119.5260    502.0800
    766    768    776   1    119.5260    502.0800
    769    768    776   1    120.0000    527.1840
    768    769    770   1    120.0000    527.1840
    768    769    797   1    120.0000    292.8800
    770    769    797   1    120.0000    292.8800
    769    770    771   1    120.0000    527.1840
    769    770    798   1    120.0000    292.8800
    771    770    798   1    120.0000    292.8800
    770    771    772   1    119.5260    502.0800
    770    771    775   1    120.0000    527.1840
    772    771    775   1    119.5260    502.0800
    771    772    773   1    123.7840    627.6000
    771    772    774   1    111.4000    677.8080
    773    772    774   1    123.4000    694.5440
    772    774    801   1    112.0000   1004.1600
    771    775    776   1    120.0000    527.1840
    771    775    799   1    120.0000    292.8800
    776    775    799   1    120.0000    292.8800
    768    776    775   1    120.0000    527.1840
    768    776    800   1    120.0000    292.8800
    775    776    800   1    120.0000    292.8800
    774    801    802   1    107.0000   1046.0000
    801    802    803   1    109.5000    418.4000
    801    802    824   1    109.5000    292.8800
    801    802    825   1    109.5000    292.8800
    803    802    824   1    110.7000    313.8000
    803    802    825   1    110.7000    313.8000
    824    802    825   1    107.8000    276.1440
    802    803    804   1    112.7000    488.2728
    802    803    826   1    110.7000    313.8000
    802    803    827   1    110.7000    313.8000
    804    803    826   1    110.7000    313.8000
    804    803    827   1    110.7000    313.8000
    826    803    827   1    107.8000    276.1440
    803    804    805   1    112.7000    488.2728
    803    804    828   1    110.7000    313.8000
    803    804    829   1    110.7000    313.8000
    805    804    828   1    110.7000    313.8000
    805    804    829   1    110.7000    313.8000
    828    804    829   1    107.8000    276.1440
    804    805    806   1    112.7000    488.2728
    804    805    830   1    110.7000    313.8000
    804    805    831   1    110.7000    313.8000
    806    805    830   1    110.7000    313.8000
    806    805    831   1    110.7000    313.8000
    830    805    831   1    107.8000    276.1440
    805    806    807   1    112.7000    488.2728
    805    806    832   1    110.7000    313.8000
    805    806    833   1    110.7000    313.8000
    807    806    832   1    110.7000    313.8000
    807    806    833   1    110.7000    313.8000
    832    806    833   1    107.8000    276.1440
    806    807    808   1    112.7000    488.2728
    806    807    834   1    110.7000    313.8000
    806    807    835   1    110.7000    313.8000
    808    807    834   1    110.7000    313.8000
    808    807    835   1    110.7000    313.8000
    834    807    835   1    107.8000    276.1440
    807    808    809   1    112.7000    488.2728
    807    808    836   1    110.7000    313.8000
    807    808    837   1    110.7000    313.8000
    809    808    836   1    110.7000    313.8000
    809    808    837   1    110.7000    313.8000
    836    808    837   1    107.8000    276.1440
    808    809    810   1    112.7000    488.2728
    808    809    838   1    110.7000    313.8000
    808    809    839   1    110.7000    313.8000
    810    809    838   1    110.7000    313.8000
    810    809    839   1    110.7000    313.8000
    838    809    839   1    107.8000    276.1440
    809    810    811   1    112.7000    488.2728
    809    810    840   1    110.7000    313.8000
    809    810    841   1    110.7000    313.8000
    811    810    840   1    110.7000    313.8000
    811    810    841   1    110.7000    313.8000
    840    810    841   1    107.8000    276.1440
    810    811    812   1    109.5000    418.4000
    810    811    842   1    110.7000    313.8000
    810    811    843   1    110.7000    313.8000
    812    811    842   1    109.5000    292.8800
    812    811    843   1    109.5000    292.8800
    842    811    843   1    107.8000    276.1440
    811    812    813   1    116.9000    694.5440
    812    813    814   1    123.4000    694.5440
    812    813    815   1    111.4000    677.8080
    814    813    815   1    123.7840    627.6000
    813    815    816   1    119.5260    502.0800
    813    815    823   1    119.5260    502.0800
    816    815    823   1    120.0000    527.1840
    815    816    817   1    120.0000    527.1840
    815    816    844   1    120.0000    292.8800
    817    816    844   1    120.0000    292.8800
    816    817    818   1    120.0000    527.1840
    816    817    845   1    120.0000    292.8800
    818    817    845   1    120.0000    292.8800
    817    818    819   1    119.5260    502.0800
    817    818    822   1    120.0000    527.1840
    819    818    822   1    119.5260    502.0800
    818    819    820   1    123.7840    627.6000
    818    819    821   1    111.4000    677.8080
    820    819    821   1    123.4000    694.5440
    819    821    848   1    112.0000   1004.1600
    818    822    823   1    120.0000    527.1840
    818    822    846   1    120.0000    292.8800
    823    822    846   1    120.0000    292.8800
    815    823    822   1    120.0000    527.1840
    815    823    847   1    120.0000    292.8800
    822    823    847   1    120.0000    292.8800
    821    848    849   1    107.0000   1046.0000
    848    849    850   1    109.5000    418.4000
    848    849    871   1    109.5000    292.8800
    848    849    872   1    109.5000    292.8800
    850    849    871   1    110.7000    313.8000
    850    849    872   1    110.7000    313.8000
    871    849    872   1    107.8000    276.1440
    849    850    851   1    112.7000    488.2728
    849    850    873   1    110.7000    313.8000
    849    850    874   1    110.7000    313.8000
    851    850    873   1    110.7000    313.8000
    851    850    874   1    110.7000    313.8000
    873    850    874   1    107.8000    276.1440
    850    851    852   1    112.7000    488.2728
    850    851    875   1    110.7000    313.8000
    850    851    876   1    110.7000    313.8000
    852    851    875   1    110.7000    313.8000
    852    851    876   1    110.7000    313.8000
    875    851    876   1    107.8000    276.1440
    851    852    853   1    112.7000    488.2728
    851    852    877   1    110.7000    313.8000
    851    852    878   1    110.7000    313.8000
    853    852    877   1    110.7000    313.8000
    853    852    878   1    110.7000    313.8000
    877    852    878   1    107.8000    276.1440
    852    853    854   1    112.7000    488.2728
    852    853    879   1    110.7000    313.8000
    852    853    880   1    110.7000    313.8000
    854    853    879   1    110.7000    313.8000
    854    853    880   1    110.7000    313.8000
    879    853    880   1    107.8000    276.1440
    853    854    855   1    112.7000    488.2728
    853    854    881   1    110.7000    313.8000
    853    854    882   1    110.7000    313.8000
    855    854    881   1    110.7000    313.8000
    855    854    882   1    110.7000    313.8000
    881    854    882   1    107.8000    276.1440
    854    855    856   1    112.7000    488.2728
    854    855    883   1    110.7000    313.8000
    854    855    884   1    110.7000    313.8000
    856    855    883   1    110.7000    313.8000
    856    855    884   1    110.7000    313.8000
    883    855    884   1    107.8000    276.1440
    855    856    857   1    112.7000    488.2728
    855    856    885   1    110.7000    313.8000
    855    856    886   1    110.7000    313.8000
    857    856    885   1    110.7000    313.8000
    857    856    886   1    110.7000    313.8000
    885    856    886   1    107.8000    276.1440
    856    857    858   1    112.7000    488.2728
    856    857    887   1    110.7000    313.8000
    856    857    888   1    110.7000    313.8000
    858    857    887   1    110.7000    313.8000
    858    857    888   1    110.7000    313.8000
    887    857    888   1    107.8000    276.1440
    857    858    859   1    109.5000    418.4000
    857    858    889   1    110.7000    313.8000
    857    858    890   1    110.7000    313.8000
    859    858    889   1    109.5000    292.8800
    859    858    890   1    109.5000    292.8800
    889    858    890   1    107.8000    276.1440
    858    859    860   1    116.9000    694.5440
    859    860    861   1    123.4000    694.5440
    859    860    862   1    111.4000    677.8080
    861    860    862   1    123.7840    627.6000
    860    862    863   1    119.5260    502.0800
    860    862    870   1    119.5260    502.0800
    863    862    870   1    120.0000    527.1840
    862    863    864   1    120.0000    527.1840
    862    863    891   1    120.0000    292.8800
    864    863    891   1    120.0000    292.8800
    863    864    865   1    120.0000    527.1840
    863    864    892   1    120.0000    292.8800
    865    864    892   1    120.0000    292.8800
    864    865    866   1    119.5260    502.0800
    864    865    869   1    120.0000    527.1840
    866    865    869   1    119.5260    502.0800
    865    866    867   1    123.7840    627.6000
    865    866    868   1    111.4000    677.8080
    867    866    868   1    123.4000    694.5440
    866    868    895   1    112.0000   1004.1600
    865    869    870   1    120.0000    527.1840
    865    869    893   1    120.0000    292.8800
    870    869    893   1    120.0000    292.8800
    862    870    869   1    120.0000    527.1840
    862    870    894   1    120.0000    292.8800
    869    870    894   1    120.0000    292.8800
    868    895    896   1    107.0000   1046.0000
    895    896    897   1    109.5000    418.4000
    895    896    918   1    109.5000    292.8800
    895    896    919   1    109.5000    292.8800
    897    896    918   1    110.7000    313.8000
    897    896    919   1    110.7000    313.8000
    918    896    919   1    107.8000    276.1440
    896    897    898   1    112.7000    488.2728
    896    897    920   1    110.7000    313.8000
    896    897    921   1    110.7000    313.8000
    898    897    920   1    110.7000    313.8000
    898    897    921   1    110.7000    313.8000
    920    897    921   1    107.8000    276.1440
    897    898    899   1    112.7000    488.2728
    897    898    922   1    110.7000    313.8000
    897    898    923   1    110.7000    313.8000
    899    898    922   1    110.7000    313.8000
    899    898    923   1    110.7000    313.8000
    922    898    923   1    107.8000    276.1440
    898    899    900   1    112.7000    488.2728
    898    899    924   1    110.7000    313.8000
    898    899    925   1    110.7000    313.8000
    900    899    924   1    110.7000    313.8000
    900    899    925   1    110.7000    313.8000
    924    899    925   1    107.8000    276.1440
    899    900    901   1    112.7000    488.2728
    899    900    926   1    110.7000    313.8000
    899    900    927   1    110.7000    313.8000
    901    900    926   1    110.7000    313.8000
    901    900    927   1    110.7000    313.8000
    926    900    927   1    107.8000    276.1440
    900    901    902   1    112.7000    488.2728
    900    901    928   1    110.7000    313.8000
    900    901    929   1    110.7000    313.8000
    902    901    928   1    110.7000    313.8000
    902    901    929   1    110.7000    313.8000
    928    901    929   1    107.8000    276.1440
    901    902    903   1    112.7000    488.2728
    901    902    930   1    110.7000    313.8000
    901    902    931   1    110.7000    313.8000
    903    902    930   1    110.7000    313.8000
    903    902    931   1    110.7000    313.8000
    930    902    931   1    107.8000    276.1440
    902    903    904   1    112.7000    488.2728
    902    903    932   1    110.7000    313.8000
    902    903    933   1    110.7000    313.8000
    904    903    932   1    110.7000    313.8000
    904    903    933   1    110.7000    313.8000
    932    903    933   1    107.8000    276.1440
    903    904    905   1    112.7000    488.2728
    903    904    934   1    110.7000    313.8000
    903    904    935   1    110.7000    313.8000
    905    904    934   1    110.7000    313.8000
    905    904    935   1    110.7000    313.8000
    934    904    935   1    107.8000    276.1440
    904    905    906   1    109.5000    418.4000
    904    905    936   1    110.7000    313.8000
    904    905    937   1    110.7000    313.8000
    906    905    936   1    109.5000    292.8800
    906    905    937   1    109.5000    292.8800
    936    905    937   1    107.8000    276.1440
    905    906    907   1    116.9000    694.5440
    906    907    908   1    123.4000    694.5440
    906    907    909   1    111.4000    677.8080
    908    907    909   1    123.7840    627.6000
    907    909    910   1    119.5260    502.0800
    907    909    917   1    119.5260    502.0800
    910    909    917   1    120.0000    527.1840
    909    910    911   1    120.0000    527.1840
    909    910    938   1    120.0000    292.8800
    911    910    938   1    120.0000    292.8800
    910    911    912   1    120.0000    527.1840
    910    911    939   1    120.0000    292.8800
    912    911    939   1    120.0000    292.8800
    911    912    913   1    120.0000    711.2800
    911    912    916   1    120.0000    527.1840
    913    912    916   1    120.0000    711.2800
    912    913    914   1    120.4000    669.4400
    912    913    915   1    111.8800    711.2800
    914    913    915   1    123.3200    836.8000
    913    915    942   1    113.0000    292.8800
    912    916    917   1    120.0000    527.1840
    912    916    940   1    120.0000    292.8800
    917    916    940   1    120.0000    292.8800
    909    917    916   1    120.0000    527.1840
    909    917    941   1    120.0000    292.8800
    916    917    941   1    120.0000    292.8800

[ dihedrals ]
; Proper dihedrals
     48      1      2      3   5    -0.97069    -0.79078     1.77820  0.0
     48      1      2     24   5     0.00000     0.00000     1.62758  0.0
     48      1      2     25   5     0.00000     0.00000     1.62758  0.0
      1      2      3      4   5     7.23832    -1.46440     1.74054  0.0
      1      2      3     26   5     0.00000     0.00000     1.95811  0.0
      1      2      3     27   5     0.00000     0.00000     1.95811  0.0
     24      2      3      4   5     0.00000     0.00000     1.25520  0.0
     24      2      3     26   5     0.00000     0.00000     1.25520  0.0
     24      2      3     27   5     0.00000     0.00000     1.25520  0.0
     25      2      3      4   5     0.00000     0.00000     1.25520  0.0
     25      2      3     26   5     0.00000     0.00000     1.25520  0.0
     25      2      3     27   5     0.00000     0.00000     1.25520  0.0
      2      3      4      5   5     4.74884    -0.63178     1.67360  0.0
      2      3      4     28   5     0.00000     0.00000     1.25520  0.0
      2      3      4     29   5     0.00000     0.00000     1.25520  0.0
     26      3      4      5   5     0.00000     0.00000     1.25520  0.0
     26      3      4     28   5     0.00000     0.00000     1.25520  0.0
     26      3      4     29   5     0.00000     0.00000     1.25520  0.0
     27      3      4      5   5     0.00000     0.00000     1.25520  0.0
     27      3      4     28   5     0.00000     0.00000     1.25520  0.0
     27      3      4     29   5     0.00000     0.00000     1.25520  0.0
      3      4      5      6   5     4.74884    -0.63178     1.67360  0.0
      3      4      5     30   5     0.00000     0.00000     1.25520  0.0
      3      4      5     31   5     0.00000     0.00000     1.25520  0.0
     28      4      5      6   5     0.00000     0.00000     1.25520  0.0
     28      4      5     30   5     0.00000     0.00000     1.25520  0.0
     28      4      5     31   5     0.00000     0.00000     1.25520  0.0
     29      4      5      6   5     0.00000     0.00000     1.25520  0.0
     29      4      5     30   5     0.00000     0.00000     1.25520  0.0
     29      4      5     31   5     0.00000     0.00000     1.25520  0.0
      4      5      6      7   5     4.74884    -0.63178     1.67360  0.0
      4      5      6     32   5     0.00000     0.00000     1.25520  0.0
      4      5      6     33   5     0.00000     0.00000     1.25520  0.0
     30      5      6      7   5     0.00000     0.00000     1.25520  0.0
     30      5      6     32   5     0.00000     0.00000     1.25520  0.0
     30      5      6     33   5     0.00000     0.00000     1.25520  0.0
     31      5      6      7   5     0.00000     0.00000     1.25520  0.0
     31      5      6     32   5     0.00000     0.00000     1.25520  0.0
     31      5      6     33   5     0.00000     0.00000     1.25520  0.0
      5      6      7      8   5     4.74884    -0.63178     1.67360  0.0
      5      6      7     34   5     0.00000     0.00000     1.25520  0.0
      5      6      7     35   5     0.00000     0.00000     1.25520  0.0
     32      6      7      8   5     0.00000     0.00000     1.25520  0.0
     32      6      7     34   5     0.00000     0.00000     1.25520  0.0
     32      6      7     35   5     0.00000     0.00000     1.25520  0.0
     33      6      7      8   5     0.00000     0.00000     1.25520  0.0
     33      6      7     34   5     0.00000     0.00000     1.25520  0.0
     33      6      7     35   5     0.00000     0.00000     1.25520  0.0
      6      7      8      9   5     4.74884    -0.63178     1.67360  0.0
      6      7      8     36   5     0.00000     0.00000     1.25520  0.0
      6      7      8     37   5     0.00000     0.00000     1.25520  0.0
     34      7      8      9   5     0.00000     0.00000     1.25520  0.0
     34      7      8     36   5     0.00000     0.00000     1.25520  0.0
     34      7      8     37   5     0.00000     0.00000     1.25520  0.0
     35      7      8      9   5     0.00000     0.00000     1.25520  0.0
     35      7      8     36   5     0.00000     0.00000     1.25520  0.0
     35      7      8     37   5     0.00000     0.00000     1.25520  0.0
      7      8      9     10   5     4.74884    -0.63178     1.67360  0.0
      7      8      9     38   5     0.00000     0.00000     1.25520  0.0
      7      8      9     39   5     0.00000     0.00000     1.25520  0.0
     36      8      9     10   5     0.00000     0.00000     1.25520  0.0
     36      8      9     38   5     0.00000     0.00000     1.25520  0.0
     36      8      9     39   5     0.00000     0.00000     1.25520  0.0
     37      8      9     10   5     0.00000     0.00000     1.25520  0.0
     37      8      9     38   5     0.00000     0.00000     1.25520  0.0
     37      8      9     39   5     0.00000     0.00000     1.25520  0.0
      8      9     10     11   5     4.74884    -0.63178     1.67360  0.0
      8      9     10     40   5     0.00000     0.00000     1.25520  0.0
      8      9     10     41   5     0.00000     0.00000     1.25520  0.0
     38      9     10     11   5     0.00000     0.00000     1.25520  0.0
     38      9     10     40   5     0.00000     0.00000     1.25520  0.0
     38      9     10     41   5     0.00000     0.00000     1.25520  0.0
     39      9     10     11   5     0.00000     0.00000     1.25520  0.0
     39      9     10     40   5     0.00000     0.00000     1.25520  0.0
     39      9     10     41   5     0.00000     0.00000     1.25520  0.0
      9     10     11     12   5     5.25092    -2.58990     2.28446  0.0
      9     10     11     42   5     0.00000     0.00000     1.25520  0.0
      9     10     11     43   5     0.00000     0.00000     1.25520  0.0
     40     10     11     12   5     0.00000     0.00000     1.95811  0.0
     40     10     11     42   5     0.00000     0.00000     1.25520  0.0
     40     10     11     43   5     0.00000     0.00000     1.25520  0.0
     41     10     11     12   5     0.00000     0.00000     1.95811  0.0
     41     10     11     42   5     0.00000     0.00000     1.25520  0.0
     41     10     11     43   5     0.00000     0.00000     1.25520  0.0
     10     11     12     13   5    -2.16731    -3.93296     0.98324  0.0
     42     11     12     13   5     0.00000     0.00000     0.67362  0.0
     43     11     12     13   5     0.00000     0.00000     0.67362  0.0
     11     12     13     14   5     0.00000    25.10400     0.00000  0.0
     11     12     13     15   5     5.01662    27.18345     0.00000  0.0
     12     13     15     16   5     0.00000     8.26340     0.00000  0.0
     12     13     15     23   5     0.00000     8.26340     0.00000  0.0
     14     13     15     16   5     0.00000     8.78640     0.00000  0.0
     14     13     15     23   5     0.00000     8.78640     0.00000  0.0
     13     15     16     17   5     0.00000    30.33400     0.00000  0.0
     13     15     16     44   5     0.00000    30.33400     0.00000  0.0
     23     15     16     17   5     0.00000    30.33400     0.00000  0.0
     23     15     16     44   5     0.00000    30.33400     0.00000  0.0
     13     15     23     22   5     0.00000    30.33400     0.00000  0.0
     13     15     23     47   5     0.00000    30.33400     0.00000  0.0
     16     15     23     22   5     0.00000    30.33400     0.00000  0.0
     16     15     23     47   5     0.00000    30.33400     0.00000  0.0
     15     16     17     18   5     0.00000    30.33400     0.00000  0.0
     15     16     17     45   5     0.00000    30.33400     0.00000  0.0
     44     16     17     18   5     0.00000    30.33400     0.00000  0.0
     44     16     17     45   5     0.00000    30.33400     0.00000  0.0
     16     17     18     19   5     0.00000    30.33400     0.00000  0.0
     16     17     18     22   5     0.00000    30.33400     0.00000  0.0
     45     17     18     19   5     0.00000    30.33400     0.00000  0.0
     45     17     18     22   5     0.00000    30.33400     0.00000  0.0
     17     18     19     20   5     0.00000     8.78640     0.00000  0.0
     17     18     19     21   5     0.00000     8.26340     0.00000  0.0
     22     18     19     20   5     0.00000     8.78640     0.00000  0.0
     22     18     19     21   5     0.00000     8.26340     0.00000  0.0
     17     18     22     23   5     0.00000    30.33400     0.00000  0.0
     17     18     22     46   5     0.00000    30.33400     0.00000  0.0
     19     18     22     23   5     0.00000    30.33400     0.00000  0.0
     19     18     22     46   5     0.00000    30.33400     0.00000  0.0
     18     19     21     49   5     0.00000    16.73600     0.00000  0.0
     20     19     21     49   5     0.00000    25.10400     0.00000  0.0
     19     21     49     50   5     0.00000   -20.92000     0.00000  0.0
     18     22     23     15   5     0.00000    30.33400     0.00000  0.0
     18     22     23     47   5     0.00000    30.33400     0.00000  0.0
     46     22     23     15   5     0.00000    30.33400     0.00000  0.0
     46     22     23     47   5     0.00000    30.33400     0.00000  0.0
     21     49     50     51   5     0.00000     0.00000     3.13800  0.0
     21     49     50     72   5     0.00000     0.00000     3.13800  0.0
     21     49     50     73   5     0.00000     0.00000     3.13800  0.0
     49     50     51     52   5     5.25092    -2.58990     2.28446  0.0
     49     50     51     74   5     0.00000     0.00000     1.95811  0.0
     49     50     51     75   5     0.00000     0.00000     1.95811  0.0
     72     50     51     52   5     0.00000     0.00000     1.25520  0.0
     72     50     51     74   5     0.00000     0.00000     1.25520  0.0
     72     50     51     75   5     0.00000     0.00000     1.25520  0.0
     73     50     51     52   5     0.00000     0.00000     1.25520  0.0
     73     50     51     74   5     0.00000     0.00000     1.25520  0.0
     73     50     51     75   5     0.00000     0.00000     1.25520  0.0
     50     51     52     53   5     4.74884    -0.63178     1.67360  0.0
     50     51     52     76   5     0.00000     0.00000     1.25520  0.0
     50     51     52     77   5     0.00000     0.00000     1.25520  0.0
     74     51     52     53   5     0.00000     0.00000     1.25520  0.0
     74     51     52     76   5     0.00000     0.00000     1.25520  0.0
     74     51     52     77   5     0.00000     0.00000     1.25520  0.0
     75     51     52     53   5     0.00000     0.00000     1.25520  0.0
     75     51     52     76   5     0.00000     0.00000     1.25520  0.0
     75     51     52     77   5     0.00000     0.00000     1.25520  0.0
     51     52     53     54   5     4.74884    -0.63178     1.67360  0.0
     51     52     53     78   5     0.00000     0.00000     1.25520  0.0
     51     52     53     79   5     0.00000     0.00000     1.25520  0.0
     76     52     53     54   5     0.00000     0.00000     1.25520  0.0
     76     52     53     78   5     0.00000     0.00000     1.25520  0.0
     76     52     53     79   5     0.00000     0.00000     1.25520  0.0
     77     52     53     54   5     0.00000     0.00000     1.25520  0.0
     77     52     53     78   5     0.00000     0.00000     1.25520  0.0
     77     52     53     79   5     0.00000     0.00000     1.25520  0.0
     52     53     54     55   5     4.74884    -0.63178     1.67360  0.0
     52     53     54     80   5     0.00000     0.00000     1.25520  0.0
     52     53     54     81   5     0.00000     0.00000     1.25520  0.0
     78     53     54     55   5     0.00000     0.00000     1.25520  0.0
     78     53     54     80   5     0.00000     0.00000     1.25520  0.0
     78     53     54     81   5     0.00000     0.00000     1.25520  0.0
     79     53     54     55   5     0.00000     0.00000     1.25520  0.0
     79     53     54     80   5     0.00000     0.00000     1.25520  0.0
     79     53     54     81   5     0.00000     0.00000     1.25520  0.0
     53     54     55     56   5     4.74884    -0.63178     1.67360  0.0
     53     54     55     82   5     0.00000     0.00000     1.25520  0.0
     53     54     55     83   5     0.00000     0.00000     1.25520  0.0
     80     54     55     56   5     0.00000     0.00000     1.25520  0.0
     80     54     55     82   5     0.00000     0.00000     1.25520  0.0
     80     54     55     83   5     0.00000     0.00000     1.25520  0.0
     81     54     55     56   5     0.00000     0.00000     1.25520  0.0
     81     54     55     82   5     0.00000     0.00000     1.25520  0.0
     81     54     55     83   5     0.00000     0.00000     1.25520  0.0
     54     55     56     57   5     4.74884    -0.63178     1.67360  0.0
     54     55     56     84   5     0.00000     0.00000     1.25520  0.0
     54     55     56     85   5     0.00000     0.00000     1.25520  0.0
     82     55     56     57   5     0.00000     0.00000     1.25520  0.0
     82     55     56     84   5     0.00000     0.00000     1.25520  0.0
     82     55     56     85   5     0.00000     0.00000     1.25520  0.0
     83     55     56     57   5     0.00000     0.00000     1.25520  0.0
     83     55     56     84   5     0.00000     0.00000     1.25520  0.0
     83     55     56     85   5     0.00000     0.00000     1.25520  0.0
     55     56     57     58   5     4.74884    -0.63178     1.67360  0.0
     55     56     57     86   5     0.00000     0.00000     1.25520  0.0
     55     56     57     87   5     0.00000     0.00000     1.25520  0.0
     84     56     57     58   5     0.00000     0.00000     1.25520  0.0
     84     56     57     86   5     0.00000     0.00000     1.25520  0.0
     84     56     57     87   5     0.00000     0.00000     1.25520  0.0
     85     56     57     58   5     0.00000     0.00000     1.25520  0.0
     85     56     57     86   5     0.00000     0.00000     1.25520  0.0
     85     56     57     87   5     0.00000     0.00000     1.25520  0.0
     56     57     58     59   5     4.74884    -0.63178     1.67360  0.0
     56     57     58     88   5     0.00000     0.00000     1.25520  0.0
     56     57     58     89   5     0.00000     0.00000     1.25520  0.0
     86     57     58     59   5     0.00000     0.00000     1.25520  0.0
     86     57     58     88   5     0.00000     0.00000     1.25520  0.0
     86     57     58     89   5     0.00000     0.00000     1.25520  0.0
     87     57     58     59   5     0.00000     0.00000     1.25520  0.0
     87     57     58     88   5     0.00000     0.00000     1.25520  0.0
     87     57     58     89   5     0.00000     0.00000     1.25520  0.0
     57     58     59     60   5     5.25092    -2.58990     2.28446  0.0
     57     58     59     90   5     0.00000     0.00000     1.25520  0.0
     57     58     59     91   5     0.00000     0.00000     1.25520  0.0
     88     58     59     60   5     0.00000     0.00000     1.95811  0.0
     88     58     59     90   5     0.00000     0.00000     1.25520  0.0
     88     58     59     91   5     0.00000     0.00000     1.25520  0.0
     89     58     59     60   5     0.00000     0.00000     1.95811  0.0
     89     58     59     90   5     0.00000     0.00000     1.25520  0.0
     89     58     59     91   5     0.00000     0.00000     1.25520  0.0
     58     59     60     61   5    -2.16731    -3.93296     0.98324  0.0
     90     59     60     61   5     0.00000     0.00000     0.67362  0.0
     91     59     60     61   5     0.00000     0.00000     0.67362  0.0
     59     60     61     62   5     0.00000    25.10400     0.00000  0.0
     59     60     61     63   5     5.01662    27.18345     0.00000  0.0
     60     61     63     64   5     0.00000     8.26340     0.00000  0.0
     60     61     63     71   5     0.00000     8.26340     0.00000  0.0
     62     61     63     64   5     0.00000     8.78640     0.00000  0.0
     62     61     63     71   5     0.00000     8.78640     0.00000  0.0
     61     63     64     65   5     0.00000    30.33400     0.00000  0.0
     61     63     64     92   5     0.00000    30.33400     0.00000  0.0
     71     63     64     65   5     0.00000    30.33400     0.00000  0.0
     71     63     64     92   5     0.00000    30.33400     0.00000  0.0
     61     63     71     70   5     0.00000    30.33400     0.00000  0.0
     61     63     71     95   5     0.00000    30.33400     0.00000  0.0
     64     63     71     70   5     0.00000    30.33400     0.00000  0.0
     64     63     71     95   5     0.00000    30.33400     0.00000  0.0
     63     64     65     66   5     0.00000    30.33400     0.00000  0.0
     63     64     65     93   5     0.00000    30.33400     0.00000  0.0
     92     64     65     66   5     0.00000    30.33400     0.00000  0.0
     92     64     65     93   5     0.00000    30.33400     0.00000  0.0
     64     65     66     67   5     0.00000    30.33400     0.00000  0.0
     64     65     66     70   5     0.00000    30.33400     0.00000  0.0
     93     65     66     67   5     0.00000    30.33400     0.00000  0.0
     93     65     66     70   5     0.00000    30.33400     0.00000  0.0
     65     66     67     68   5     0.00000     8.78640     0.00000  0.0
     65     66     67     69   5     0.00000     8.26340     0.00000  0.0
     70     66     67     68   5     0.00000     8.78640     0.00000  0.0
     70     66     67     69   5     0.00000     8.26340     0.00000  0.0
     65     66     70     71   5     0.00000    30.33400     0.00000  0.0
     65     66     70     94   5     0.00000    30.33400     0.00000  0.0
     67     66     70     71   5     0.00000    30.33400     0.00000  0.0
     67     66     70     94   5     0.00000    30.33400     0.00000  0.0
     66     67     69     96   5     0.00000    16.73600     0.00000  0.0
     68     67     69     96   5     0.00000    25.10400     0.00000  0.0
     67     69     96     97   5     0.00000   -20.92000     0.00000  0.0
     66     70     71     63   5     0.00000    30.33400     0.00000  0.0
     66     70     71     95   5     0.00000    30.33400     0.00000  0.0
     94     70     71     63   5     0.00000    30.33400     0.00000  0.0
     94     70     71     95   5     0.00000    30.33400     0.00000  0.0
     69     96     97     98   5     0.00000     0.00000     3.13800  0.0
     69     96     97    119   5     0.00000     0.00000     3.13800  0.0
     69     96     97    120   5     0.00000     0.00000     3.13800  0.0
     96     97     98     99   5     5.25092    -2.58990     2.28446  0.0
     96     97     98    121   5     0.00000     0.00000     1.95811  0.0
     96     97     98    122   5     0.00000     0.00000     1.95811  0.0
    119     97     98     99   5     0.00000     0.00000     1.25520  0.0
    119     97     98    121   5     0.00000     0.00000     1.25520  0.0
    119     97     98    122   5     0.00000     0.00000     1.25520  0.0
    120     97     98     99   5     0.00000     0.00000     1.25520  0.0
    120     97     98    121   5     0.00000     0.00000     1.25520  0.0
    120     97     98    122   5     0.00000     0.00000     1.25520  0.0
     97     98     99    100   5     4.74884    -0.63178     1.67360  0.0
     97     98     99    123   5     0.00000     0.00000     1.25520  0.0
     97     98     99    124   5     0.00000     0.00000     1.25520  0.0
    121     98     99    100   5     0.00000     0.00000     1.25520  0.0
    121     98     99    123   5     0.00000     0.00000     1.25520  0.0
    121     98     99    124   5     0.00000     0.00000     1.25520  0.0
    122     98     99    100   5     0.00000     0.00000     1.25520  0.0
    122     98     99    123   5     0.00000     0.00000     1.25520  0.0
    122     98     99    124   5     0.00000     0.00000     1.25520  0.0
     98     99    100    101   5     4.74884    -0.63178     1.67360  0.0
     98     99    100    125   5     0.00000     0.00000     1.25520  0.0
     98     99    100    126   5     0.00000     0.00000     1.25520  0.0
    123     99    100    101   5     0.00000     0.00000     1.25520  0.0
    123     99    100    125   5     0.00000     0.00000     1.25520  0.0
    123     99    100    126   5     0.00000     0.00000     1.25520  0.0
    124     99    100    101   5     0.00000     0.00000     1.25520  0.0
    124     99    100    125   5     0.00000     0.00000     1.25520  0.0
    124     99    100    126   5     0.00000     0.00000     1.25520  0.0
     99    100    101    102   5     4.74884    -0.63178     1.67360  0.0
     99    100    101    127   5     0.00000     0.00000     1.25520  0.0
     99    100    101    128   5     0.00000     0.00000     1.25520  0.0
    125    100    101    102   5     0.00000     0.00000     1.25520  0.0
    125    100    101    127   5     0.00000     0.00000     1.25520  0.0
    125    100    101    128   5     0.00000     0.00000     1.25520  0.0
    126    100    101    102   5     0.00000     0.00000     1.25520  0.0
    126    100    101    127   5     0.00000     0.00000     1.25520  0.0
    126    100    101    128   5     0.00000     0.00000     1.25520  0.0
    100    101    102    103   5     4.74884    -0.63178     1.67360  0.0
    100    101    102    129   5     0.00000     0.00000     1.25520  0.0
    100    101    102    130   5     0.00000     0.00000     1.25520  0.0
    127    101    102    103   5     0.00000     0.00000     1.25520  0.0
    127    101    102    129   5     0.00000     0.00000     1.25520  0.0
    127    101    102    130   5     0.00000     0.00000     1.25520  0.0
    128    101    102    103   5     0.00000     0.00000     1.25520  0.0
    128    101    102    129   5     0.00000     0.00000     1.25520  0.0
    128    101    102    130   5     0.00000     0.00000     1.25520  0.0
    101    102    103    104   5     4.74884    -0.63178     1.67360  0.0
    101    102    103    131   5     0.00000     0.00000     1.25520  0.0
    101    102    103    132   5     0.00000     0.00000     1.25520  0.0
    129    102    103    104   5     0.00000     0.00000     1.25520  0.0
    129    102    103    131   5     0.00000     0.00000     1.25520  0.0
    129    102    103    132   5     0.00000     0.00000     1.25520  0.0
    130    102    103    104   5     0.00000     0.00000     1.25520  0.0
    130    102    103    131   5     0.00000     0.00000     1.25520  0.0
    130    102    103    132   5     0.00000     0.00000     1.25520  0.0
    102    103    104    105   5     4.74884    -0.63178     1.67360  0.0
    102    103    104    133   5     0.00000     0.00000     1.25520  0.0
    102    103    104    134   5     0.00000     0.00000     1.25520  0.0
    131    103    104    105   5     0.00000     0.00000     1.25520  0.0
    131    103    104    133   5     0.00000     0.00000     1.25520  0.0
    131    103    104    134   5     0.00000     0.00000     1.25520  0.0
    132    103    104    105   5     0.00000     0.00000     1.25520  0.0
    132    103    104    133   5     0.00000     0.00000     1.25520  0.0
    132    103    104    134   5     0.00000     0.00000     1.25520  0.0
    103    104    105    106   5     4.74884    -0.63178     1.67360  0.0
    103    104    105    135   5     0.00000     0.00000     1.25520  0.0
    103    104    105    136   5     0.00000     0.00000     1.25520  0.0
    133    104    105    106   5     0.00000     0.00000     1.25520  0.0
    133    104    105    135   5     0.00000     0.00000     1.25520  0.0
    133    104    105    136   5     0.00000     0.00000     1.25520  0.0
    134    104    105    106   5     0.00000     0.00000     1.25520  0.0
    134    104    105    135   5     0.00000     0.00000     1.25520  0.0
    134    104    105    136   5     0.00000     0.00000     1.25520  0.0
    104    105    106    107   5     5.25092    -2.58990     2.28446  0.0
    104    105    106    137   5     0.00000     0.00000     1.25520  0.0
    104    105    106    138   5     0.00000     0.00000     1.25520  0.0
    135    105    106    107   5     0.00000     0.00000     1.95811  0.0
    135    105    106    137   5     0.00000     0.00000     1.25520  0.0
    135    105    106    138   5     0.00000     0.00000     1.25520  0.0
    136    105    106    107   5     0.00000     0.00000     1.95811  0.0
    136    105    106    137   5     0.00000     0.00000     1.25520  0.0
    136    105    106    138   5     0.00000     0.00000     1.25520  0.0
    105    106    107    108   5    -2.16731    -3.93296     0.98324  0.0
    137    106    107    108   5     0.00000     0.00000     0.67362  0.0
    138    106    107    108   5     0.00000     0.00000     0.67362  0.0
    106    107    108    109   5     0.00000    25.10400     0.00000  0.0
    106    107    108    110   5     5.01662    27.18345     0.00000  0.0
    107    108    110    111   5     0.00000     8.26340     0.00000  0.0
    107    108    110    118   5     0.00000     8.26340     0.00000  0.0
    109    108    110    111   5     0.00000     8.78640     0.00000  0.0
    109    108    110    118   5     0.00000     8.78640     0.00000  0.0
    108    110    111    112   5     0.00000    30.33400     0.00000  0.0
    108    110    111    139   5     0.00000    30.33400     0.00000  0.0
    118    110    111    112   5     0.00000    30.33400     0.00000  0.0
    118    110    111    139   5     0.00000    30.33400     0.00000  0.0
    108    110    118    117   5     0.00000    30.33400     0.00000  0.0
    108    110    118    142   5     0.00000    30.33400     0.00000  0.0
    111    110    118    117   5     0.00000    30.33400     0.00000  0.0
    111    110    118    142   5     0.00000    30.33400     0.00000  0.0
    110    111    112    113   5     0.00000    30.33400     0.00000  0.0
    110    111    112    140   5     0.00000    30.33400     0.00000  0.0
    139    111    112    113   5     0.00000    30.33400     0.00000  0.0
    139    111    112    140   5     0.00000    30.33400     0.00000  0.0
    111    112    113    114   5     0.00000    30.33400     0.00000  0.0
    111    112    113    117   5     0.00000    30.33400     0.00000  0.0
    140    112    113    114   5     0.00000    30.33400     0.00000  0.0
    140    112    113    117   5     0.00000    30.33400     0.00000  0.0
    112    113    114    115   5     0.00000     8.78640     0.00000  0.0
    112    113    114    116   5     0.00000     8.26340     0.00000  0.0
    117    113    114    115   5     0.00000     8.78640     0.00000  0.0
    117    113    114    116   5     0.00000     8.26340     0.00000  0.0
    112    113    117    118   5     0.00000    30.33400     0.00000  0.0
    112    113    117    141   5     0.00000    30.33400     0.00000  0.0
    114    113    117    118   5     0.00000    30.33400     0.00000  0.0
    114    113    117    141   5     0.00000    30.33400     0.00000  0.0
    113    114    116    143   5     0.00000    16.73600     0.00000  0.0
    115    114    116    143   5     0.00000    25.10400     0.00000  0.0
    114    116    143    144   5     0.00000   -20.92000     0.00000  0.0
    113    117    118    110   5     0.00000    30.33400     0.00000  0.0
    113    117    118    142   5     0.00000    30.33400     0.00000  0.0
    141    117    118    110   5     0.00000    30.33400     0.00000  0.0
    141    117    118    142   5     0.00000    30.33400     0.00000  0.0
    116    143    144    145   5     0.00000     0.00000     3.13800  0.0
    116    143    144    166   5     0.00000     0.00000     3.13800  0.0
    116    143    144    167   5     0.00000     0.00000     3.13800  0.0
    143    144    145    146   5     5.25092    -2.58990     2.28446  0.0
    143    144    145    168   5     0.00000     0.00000     1.95811  0.0
    143    144    145    169   5     0.00000     0.00000     1.95811  0.0
    166    144    145    146   5     0.00000     0.00000     1.25520  0.0
    166    144    145    168   5     0.00000     0.00000     1.25520  0.0
    166    144    145    169   5     0.00000     0.00000     1.25520  0.0
    167    144    145    146   5     0.00000     0.00000     1.25520  0.0
    167    144    145    168   5     0.00000     0.00000     1.25520  0.0
    167    144    145    169   5     0.00000     0.00000     1.25520  0.0
    144    145    146    147   5     4.74884    -0.63178     1.67360  0.0
    144    145    146    170   5     0.00000     0.00000     1.25520  0.0
    144    145    146    171   5     0.00000     0.00000     1.25520  0.0
    168    145    146    147   5     0.00000     0.00000     1.25520  0.0
    168    145    146    170   5     0.00000     0.00000     1.25520  0.0
    168    145    146    171   5     0.00000     0.00000     1.25520  0.0
    169    145    146    147   5     0.00000     0.00000     1.25520  0.0
    169    145    146    170   5     0.00000     0.00000     1.25520  0.0
    169    145    146    171   5     0.00000     0.00000     1.25520  0.0
    145    146    147    148   5     4.74884    -0.63178     1.67360  0.0
    145    146    147    172   5     0.00000     0.00000     1.25520  0.0
    145    146    147    173   5     0.00000     0.00000     1.25520  0.0
    170    146    147    148   5     0.00000     0.00000     1.25520  0.0
    170    146    147    172   5     0.00000     0.00000     1.25520  0.0
    170    146    147    173   5     0.00000     0.00000     1.25520  0.0
    171    146    147    148   5     0.00000     0.00000     1.25520  0.0
    171    146    147    172   5     0.00000     0.00000     1.25520  0.0
    171    146    147    173   5     0.00000     0.00000     1.25520  0.0
    146    147    148    149   5     4.74884    -0.63178     1.67360  0.0
    146    147    148    174   5     0.00000     0.00000     1.25520  0.0
    146    147    148    175   5     0.00000     0.00000     1.25520  0.0
    172    147    148    149   5     0.00000     0.00000     1.25520  0.0
    172    147    148    174   5     0.00000     0.00000     1.25520  0.0
    172    147    148    175   5     0.00000     0.00000     1.25520  0.0
    173    147    148    149   5     0.00000     0.00000     1.25520  0.0
    173    147    148    174   5     0.00000     0.00000     1.25520  0.0
    173    147    148    175   5     0.00000     0.00000     1.25520  0.0
    147    148    149    150   5     4.74884    -0.63178     1.67360  0.0
    147    148    149    176   5     0.00000     0.00000     1.25520  0.0
    147    148    149    177   5     0.00000     0.00000     1.25520  0.0
    174    148    149    150   5     0.00000     0.00000     1.25520  0.0
    174    148    149    176   5     0.00000     0.00000     1.25520  0.0
    174    148    149    177   5     0.00000     0.00000     1.25520  0.0
    175    148    149    150   5     0.00000     0.00000     1.25520  0.0
    175    148    149    176   5     0.00000     0.00000     1.25520  0.0
    175    148    149    177   5     0.00000     0.00000     1.25520  0.0
    148    149    150    151   5     4.74884    -0.63178     1.67360  0.0
    148    149    150    178   5     0.00000     0.00000     1.25520  0.0
    148    149    150    179   5     0.00000     0.00000     1.25520  0.0
    176    149    150    151   5     0.00000     0.00000     1.25520  0.0
    176    149    150    178   5     0.00000     0.00000     1.25520  0.0
    176    149    150    179   5     0.00000     0.00000     1.25520  0.0
    177    149    150    151   5     0.00000     0.00000     1.25520  0.0
    177    149    150    178   5     0.00000     0.00000     1.25520  0.0
    177    149    150    179   5     0.00000     0.00000     1.25520  0.0
    149    150    151    152   5     4.74884    -0.63178     1.67360  0.0
    149    150    151    180   5     0.00000     0.00000     1.25520  0.0
    149    150    151    181   5     0.00000     0.00000     1.25520  0.0
    178    150    151    152   5     0.00000     0.00000     1.25520  0.0
    178    150    151    180   5     0.00000     0.00000     1.25520  0.0
    178    150    151    181   5     0.00000     0.00000     1.25520  0.0
    179    150    151    152   5     0.00000     0.00000     1.25520  0.0
    179    150    151    180   5     0.00000     0.00000     1.25520  0.0
    179    150    151    181   5     0.00000     0.00000     1.25520  0.0
    150    151    152    153   5     4.74884    -0.63178     1.67360  0.0
    150    151    152    182   5     0.00000     0.00000     1.25520  0.0
    150    151    152    183   5     0.00000     0.00000     1.25520  0.0
    180    151    152    153   5     0.00000     0.00000     1.25520  0.0
    180    151    152    182   5     0.00000     0.00000     1.25520  0.0
    180    151    152    183   5     0.00000     0.00000     1.25520  0.0
    181    151    152    153   5     0.00000     0.00000     1.25520  0.0
    181    151    152    182   5     0.00000     0.00000     1.25520  0.0
    181    151    152    183   5     0.00000     0.00000     1.25520  0.0
    151    152    153    154   5     5.25092    -2.58990     2.28446  0.0
    151    152    153    184   5     0.00000     0.00000     1.25520  0.0
    151    152    153    185   5     0.00000     0.00000     1.25520  0.0
    182    152    153    154   5     0.00000     0.00000     1.95811  0.0
    182    152    153    184   5     0.00000     0.00000     1.25520  0.0
    182    152    153    185   5     0.00000     0.00000     1.25520  0.0
    183    152    153    154   5     0.00000     0.00000     1.95811  0.0
    183    152    153    184   5     0.00000     0.00000     1.25520  0.0
    183    152    153    185   5     0.00000     0.00000     1.25520  0.0
    152    153    154    155   5    -2.16731    -3.93296     0.98324  0.0
    184    153    154    155   5     0.00000     0.00000     0.67362  0.0
    185    153    154    155   5     0.00000     0.00000     0.67362  0.0
    153    154    155    156   5     0.00000    25.10400     0.00000  0.0
    153    154    155    157   5     5.01662    27.18345     0.00000  0.0
    154    155    157    158   5     0.00000     8.26340     0.00000  0.0
    154    155    157    165   5     0.00000     8.26340     0.00000  0.0
    156    155    157    158   5     0.00000     8.78640     0.00000  0.0
    156    155    157    165   5     0.00000     8.78640     0.00000  0.0
    155    157    158    159   5     0.00000    30.33400     0.00000  0.0
    155    157    158    186   5     0.00000    30.33400     0.00000  0.0
    165    157    158    159   5     0.00000    30.33400     0.00000  0.0
    165    157    158    186   5     0.00000    30.33400     0.00000  0.0
    155    157    165    164   5     0.00000    30.33400     0.00000  0.0
    155    157    165    189   5     0.00000    30.33400     0.00000  0.0
    158    157    165    164   5     0.00000    30.33400     0.00000  0.0
    158    157    165    189   5     0.00000    30.33400     0.00000  0.0
    157    158    159    160   5     0.00000    30.33400     0.00000  0.0
    157    158    159    187   5     0.00000    30.33400     0.00000  0.0
    186    158    159    160   5     0.00000    30.33400     0.00000  0.0
    186    158    159    187   5     0.00000    30.33400     0.00000  0.0
    158    159    160    161   5     0.00000    30.33400     0.00000  0.0
    158    159    160    164   5     0.00000    30.33400     0.00000  0.0
    187    159    160    161   5     0.00000    30.33400     0.00000  0.0
    187    159    160    164   5     0.00000    30.33400     0.00000  0.0
    159    160    161    162   5     0.00000     8.78640     0.00000  0.0
    159    160    161    163   5     0.00000     8.26340     0.00000  0.0
    164    160    161    162   5     0.00000     8.78640     0.00000  0.0
    164    160    161    163   5     0.00000     8.26340     0.00000  0.0
    159    160    164    165   5     0.00000    30.33400     0.00000  0.0
    159    160    164    188   5     0.00000    30.33400     0.00000  0.0
    161    160    164    165   5     0.00000    30.33400     0.00000  0.0
    161    160    164    188   5     0.00000    30.33400     0.00000  0.0
    160    161    163    190   5     0.00000    16.73600     0.00000  0.0
    162    161    163    190   5     0.00000    25.10400     0.00000  0.0
    161    163    190    191   5     0.00000   -20.92000     0.00000  0.0
    160    164    165    157   5     0.00000    30.33400     0.00000  0.0
    160    164    165    189   5     0.00000    30.33400     0.00000  0.0
    188    164    165    157   5     0.00000    30.33400     0.00000  0.0
    188    164    165    189   5     0.00000    30.33400     0.00000  0.0
    163    190    191    192   5     0.00000     0.00000     3.13800  0.0
    163    190    191    213   5     0.00000     0.00000     3.13800  0.0
    163    190    191    214   5     0.00000     0.00000     3.13800  0.0
    190    191    192    193   5     5.25092    -2.58990     2.28446  0.0
    190    191    192    215   5     0.00000     0.00000     1.95811  0.0
    190    191    192    216   5     0.00000     0.00000     1.95811  0.0
    213    191    192    193   5     0.00000     0.00000     1.25520  0.0
    213    191    192    215   5     0.00000     0.00000     1.25520  0.0
    213    191    192    216   5     0.00000     0.00000     1.25520  0.0
    214    191    192    193   5     0.00000     0.00000     1.25520  0.0
    214    191    192    215   5     0.00000     0.00000     1.25520  0.0
    214    191    192    216   5     0.00000     0.00000     1.25520  0.0
    191    192    193    194   5     4.74884    -0.63178     1.67360  0.0
    191    192    193    217   5     0.00000     0.00000     1.25520  0.0
    191    192    193    218   5     0.00000     0.00000     1.25520  0.0
    215    192    193    194   5     0.00000     0.00000     1.25520  0.0
    215    192    193    217   5     0.00000     0.00000     1.25520  0.0
    215    192    193    218   5     0.00000     0.00000     1.25520  0.0
    216    192    193    194   5     0.00000     0.00000     1.25520  0.0
    216    192    193    217   5     0.00000     0.00000     1.25520  0.0
    216    192    193    218   5     0.00000     0.00000     1.25520  0.0
    192    193    194    195   5     4.74884    -0.63178     1.67360  0.0
    192    193    194    219   5     0.00000     0.00000     1.25520  0.0
    192    193    194    220   5     0.00000     0.00000     1.25520  0.0
    217    193    194    195   5     0.00000     0.00000     1.25520  0.0
    217    193    194    219   5     0.00000     0.00000     1.25520  0.0
    217    193    194    220   5     0.00000     0.00000     1.25520  0.0
    218    193    194    195   5     0.00000     0.00000     1.25520  0.0
    218    193    194    219   5     0.00000     0.00000     1.25520  0.0
    218    193    194    220   5     0.00000     0.00000     1.25520  0.0
    193    194    195    196   5     4.74884    -0.63178     1.67360  0.0
    193    194    195    221   5     0.00000     0.00000     1.25520  0.0
    193    194    195    222   5     0.00000     0.00000     1.25520  0.0
    219    194    195    196   5     0.00000     0.00000     1.25520  0.0
    219    194    195    221   5     0.00000     0.00000     1.25520  0.0
    219    194    195    222   5     0.00000     0.00000     1.25520  0.0
    220    194    195    196   5     0.00000     0.00000     1.25520  0.0
    220    194    195    221   5     0.00000     0.00000     1.25520  0.0
    220    194    195    222   5     0.00000     0.00000     1.25520  0.0
    194    195    196    197   5     4.74884    -0.63178     1.67360  0.0
    194    195    196    223   5     0.00000     0.00000     1.25520  0.0
    194    195    196    224   5     0.00000     0.00000     1.25520  0.0
    221    195    196    197   5     0.00000     0.00000     1.25520  0.0
    221    195    196    223   5     0.00000     0.00000     1.25520  0.0
    221    195    196    224   5     0.00000     0.00000     1.25520  0.0
    222    195    196    197   5     0.00000     0.00000     1.25520  0.0
    222    195    196    223   5     0.00000     0.00000     1.25520  0.0
    222    195    196    224   5     0.00000     0.00000     1.25520  0.0
    195    196    197    198   5     4.74884    -0.63178     1.67360  0.0
    195    196    197    225   5     0.00000     0.00000     1.25520  0.0
    195    196    197    226   5     0.00000     0.00000     1.25520  0.0
    223    196    197    198   5     0.00000     0.00000     1.25520  0.0
    223    196    197    225   5     0.00000     0.00000     1.25520  0.0
    223    196    197    226   5     0.00000     0.00000     1.25520  0.0
    224    196    197    198   5     0.00000     0.00000     1.25520  0.0
    224    196    197    225   5     0.00000     0.00000     1.25520  0.0
    224    196    197    226   5     0.00000     0.00000     1.25520  0.0
    196    197    198    199   5     4.74884    -0.63178     1.67360  0.0
    196    197    198    227   5     0.00000     0.00000     1.25520  0.0
    196    197    198    228   5     0.00000     0.00000     1.25520  0.0
    225    197    198    199   5     0.00000     0.00000     1.25520  0.0
    225    197    198    227   5     0.00000     0.00000     1.25520  0.0
    225    197    198    228   5     0.00000     0.00000     1.25520  0.0
    226    197    198    199   5     0.00000     0.00000     1.25520  0.0
    226    197    198    227   5     0.00000     0.00000     1.25520  0.0
    226    197    198    228   5     0.00000     0.00000     1.25520  0.0
    197    198    199    200   5     4.74884    -0.63178     1.67360  0.0
    197    198    199    229   5     0.00000     0.00000     1.25520  0.0
    197    198    199    230   5     0.00000     0.00000     1.25520  0.0
    227    198    199    200   5     0.00000     0.00000     1.25520  0.0
    227    198    199    229   5     0.00000     0.00000     1.25520  0.0
    227    198    199    230   5     0.00000     0.00000     1.25520  0.0
    228    198    199    200   5     0.00000     0.00000     1.25520  0.0
    228    198    199    229   5     0.00000     0.00000     1.25520  0.0
    228    198    199    230   5     0.00000     0.00000     1.25520  0.0
    198    199    200    201   5     5.25092    -2.58990     2.28446  0.0
    198    199    200    231   5     0.00000     0.00000     1.25520  0.0
    198    199    200    232   5     0.00000     0.00000     1.25520  0.0
    229    199    200    201   5     0.00000     0.00000     1.95811  0.0
    229    199    200    231   5     0.00000     0.00000     1.25520  0.0
    229    199    200    232   5     0.00000     0.00000     1.25520  0.0
    230    199    200    201   5     0.00000     0.00000     1.95811  0.0
    230    199    200    231   5     0.00000     0.00000     1.25520  0.0
    230    199    200    232   5     0.00000     0.00000     1.25520  0.0
    199    200    201    202   5    -2.16731    -3.93296     0.98324  0.0
    231    200    201    202   5     0.00000     0.00000     0.67362  0.0
    232    200    201    202   5     0.00000     0.00000     0.67362  0.0
    200    201    202    203   5     0.00000    25.10400     0.00000  0.0
    200    201    202    204   5     5.01662    27.18345     0.00000  0.0
    201    202    204    205   5     0.00000     8.26340     0.00000  0.0
    201    202    204    212   5     0.00000     8.26340     0.00000  0.0
    203    202    204    205   5     0.00000     8.78640     0.00000  0.0
    203    202    204    212   5     0.00000     8.78640     0.00000  0.0
    202    204    205    206   5     0.00000    30.33400     0.00000  0.0
    202    204    205    233   5     0.00000    30.33400     0.00000  0.0
    212    204    205    206   5     0.00000    30.33400     0.00000  0.0
    212    204    205    233   5     0.00000    30.33400     0.00000  0.0
    202    204    212    211   5     0.00000    30.33400     0.00000  0.0
    202    204    212    236   5     0.00000    30.33400     0.00000  0.0
    205    204    212    211   5     0.00000    30.33400     0.00000  0.0
    205    204    212    236   5     0.00000    30.33400     0.00000  0.0
    204    205    206    207   5     0.00000    30.33400     0.00000  0.0
    204    205    206    234   5     0.00000    30.33400     0.00000  0.0
    233    205    206    207   5     0.00000    30.33400     0.00000  0.0
    233    205    206    234   5     0.00000    30.33400     0.00000  0.0
    205    206    207    208   5     0.00000    30.33400     0.00000  0.0
    205    206    207    211   5     0.00000    30.33400     0.00000  0.0
    234    206    207    208   5     0.00000    30.33400     0.00000  0.0
    234    206    207    211   5     0.00000    30.33400     0.00000  0.0
    206    207    208    209   5     0.00000     8.78640     0.00000  0.0
    206    207    208    210   5     0.00000     8.26340     0.00000  0.0
    211    207    208    209   5     0.00000     8.78640     0.00000  0.0
    211    207    208    210   5     0.00000     8.26340     0.00000  0.0
    206    207    211    212   5     0.00000    30.33400     0.00000  0.0
    206    207    211    235   5     0.00000    30.33400     0.00000  0.0
    208    207    211    212   5     0.00000    30.33400     0.00000  0.0
    208    207    211    235   5     0.00000    30.33400     0.00000  0.0
    207    208    210    237   5     0.00000    16.73600     0.00000  0.0
    209    208    210    237   5     0.00000    25.10400     0.00000  0.0
    208    210    237    238   5     0.00000   -20.92000     0.00000  0.0
    207    211    212    204   5     0.00000    30.33400     0.00000  0.0
    207    211    212    236   5     0.00000    30.33400     0.00000  0.0
    235    211    212    204   5     0.00000    30.33400     0.00000  0.0
    235    211    212    236   5     0.00000    30.33400     0.00000  0.0
    210    237    238    239   5     0.00000     0.00000     3.13800  0.0
    210    237    238    260   5     0.00000     0.00000     3.13800  0.0
    210    237    238    261   5     0.00000     0.00000     3.13800  0.0
    237    238    239    240   5     5.25092    -2.58990     2.28446  0.0
    237    238    239    262   5     0.00000     0.00000     1.95811  0.0
    237    238    239    263   5     0.00000     0.00000     1.95811  0.0
    260    238    239    240   5     0.00000     0.00000     1.25520  0.0
    260    238    239    262   5     0.00000     0.00000     1.25520  0.0
    260    238    239    263   5     0.00000     0.00000     1.25520  0.0
    261    238    239    240   5     0.00000     0.00000     1.25520  0.0
    261    238    239    262   5     0.00000     0.00000     1.25520  0.0
    261    238    239    263   5     0.00000     0.00000     1.25520  0.0
    238    239    240    241   5     4.74884    -0.63178     1.67360  0.0
    238    239    240    264   5     0.00000     0.00000     1.25520  0.0
    238    239    240    265   5     0.00000     0.00000     1.25520  0.0
    262    239    240    241   5     0.00000     0.00000     1.25520  0.0
    262    239    240    264   5     0.00000     0.00000     1.25520  0.0
    262    239    240    265   5     0.00000     0.00000     1.25520  0.0
    263    239    240    241   5     0.00000     0.00000     1.25520  0.0
    263    239    240    264   5     0.00000     0.00000     1.25520  0.0
    263    239    240    265   5     0.00000     0.00000     1.25520  0.0
    239    240    241    242   5     4.74884    -0.63178     1.67360  0.0
    239    240    241    266   5     0.00000     0.00000     1.25520  0.0
    239    240    241    267   5     0.00000     0.00000     1.25520  0.0
    264    240    241    242   5     0.00000     0.00000     1.25520  0.0
    264    240    241    266   5     0.00000     0.00000     1.25520  0.0
    264    240    241    267   5     0.00000     0.00000     1.25520  0.0
    265    240    241    242   5     0.00000     0.00000     1.25520  0.0
    265    240    241    266   5     0.00000     0.00000     1.25520  0.0
    265    240    241    267   5     0.00000     0.00000     1.25520  0.0
    240    241    242    243   5     4.74884    -0.63178     1.67360  0.0
    240    241    242    268   5     0.00000     0.00000     1.25520  0.0
    240    241    242    269   5     0.00000     0.00000     1.25520  0.0
    266    241    242    243   5     0.00000     0.00000     1.25520  0.0
    266    241    242    268   5     0.00000     0.00000     1.25520  0.0
    266    241    242    269   5     0.00000     0.00000     1.25520  0.0
    267    241    242    243   5     0.00000     0.00000     1.25520  0.0
    267    241    242    268   5     0.00000     0.00000     1.25520  0.0
    267    241    242    269   5     0.00000     0.00000     1.25520  0.0
    241    242    243    244   5     4.74884    -0.63178     1.67360  0.0
    241    242    243    270   5     0.00000     0.00000     1.25520  0.0
    241    242    243    271   5     0.00000     0.00000     1.25520  0.0
    268    242    243    244   5     0.00000     0.00000     1.25520  0.0
    268    242    243    270   5     0.00000     0.00000     1.25520  0.0
    268    242    243    271   5     0.00000     0.00000     1.25520  0.0
    269    242    243    244   5     0.00000     0.00000     1.25520  0.0
    269    242    243    270   5     0.00000     0.00000     1.25520  0.0
    269    242    243    271   5     0.00000     0.00000     1.25520  0.0
    242    243    244    245   5     4.74884    -0.63178     1.67360  0.0
    242    243    244    272   5     0.00000     0.00000     1.25520  0.0
    242    243    244    273   5     0.00000     0.00000     1.25520  0.0
    270    243    244    245   5     0.00000     0.00000     1.25520  0.0
    270    243    244    272   5     0.00000     0.00000     1.25520  0.0
    270    243    244    273   5     0.00000     0.00000     1.25520  0.0
    271    243    244    245   5     0.00000     0.00000     1.25520  0.0
    271    243    244    272   5     0.00000     0.00000     1.25520  0.0
    271    243    244    273   5     0.00000     0.00000     1.25520  0.0
    243    244    245    246   5     4.74884    -0.63178     1.67360  0.0
    243    244    245    274   5     0.00000     0.00000     1.25520  0.0
    243    244    245    275   5     0.00000     0.00000     1.25520  0.0
    272    244    245    246   5     0.00000     0.00000     1.25520  0.0
    272    244    245    274   5     0.00000     0.00000     1.25520  0.0
    272    244    245    275   5     0.00000     0.00000     1.25520  0.0
    273    244    245    246   5     0.00000     0.00000     1.25520  0.0
    273    244    245    274   5     0.00000     0.00000     1.25520  0.0
    273    244    245    275   5     0.00000     0.00000     1.25520  0.0
    244    245    246    247   5     4.74884    -0.63178     1.67360  0.0
    244    245    246    276   5     0.00000     0.00000     1.25520  0.0
    244    245    246    277   5     0.00000     0.00000     1.25520  0.0
    274    245    246    247   5     0.00000     0.00000     1.25520  0.0
    274    245    246    276   5     0.00000     0.00000     1.25520  0.0
    274    245    246    277   5     0.00000     0.00000     1.25520  0.0
    275    245    246    247   5     0.00000     0.00000     1.25520  0.0
    275    245    246    276   5     0.00000     0.00000     1.25520  0.0
    275    245    246    277   5     0.00000     0.00000     1.25520  0.0
    245    246    247    248   5     5.25092    -2.58990     2.28446  0.0
    245    246    247    278   5     0.00000     0.00000     1.25520  0.0
    245    246    247    279   5     0.00000     0.00000     1.25520  0.0
    276    246    247    248   5     0.00000     0.00000     1.95811  0.0
    276    246    247    278   5     0.00000     0.00000     1.25520  0.0
    276    246    247    279   5     0.00000     0.00000     1.25520  0.0
    277    246    247    248   5     0.00000     0.00000     1.95811  0.0
    277    246    247    278   5     0.00000     0.00000     1.25520  0.0
    277    246    247    279   5     0.00000     0.00000     1.25520  0.0
    246    247    248    249   5    -2.16731    -3.93296     0.98324  0.0
    278    247    248    249   5     0.00000     0.00000     0.67362  0.0
    279    247    248    249   5     0.00000     0.00000     0.67362  0.0
    247    248    249    250   5     0.00000    25.10400     0.00000  0.0
    247    248    249    251   5     5.01662    27.18345     0.00000  0.0
    248    249    251    252   5     0.00000     8.26340     0.00000  0.0
    248    249    251    259   5     0.00000     8.26340     0.00000  0.0
    250    249    251    252   5     0.00000     8.78640     0.00000  0.0
    250    249    251    259   5     0.00000     8.78640     0.00000  0.0
    249    251    252    253   5     0.00000    30.33400     0.00000  0.0
    249    251    252    280   5     0.00000    30.33400     0.00000  0.0
    259    251    252    253   5     0.00000    30.33400     0.00000  0.0
    259    251    252    280   5     0.00000    30.33400     0.00000  0.0
    249    251    259    258   5     0.00000    30.33400     0.00000  0.0
    249    251    259    283   5     0.00000    30.33400     0.00000  0.0
    252    251    259    258   5     0.00000    30.33400     0.00000  0.0
    252    251    259    283   5     0.00000    30.33400     0.00000  0.0
    251    252    253    254   5     0.00000    30.33400     0.00000  0.0
    251    252    253    281   5     0.00000    30.33400     0.00000  0.0
    280    252    253    254   5     0.00000    30.33400     0.00000  0.0
    280    252    253    281   5     0.00000    30.33400     0.00000  0.0
    252    253    254    255   5     0.00000    30.33400     0.00000  0.0
    252    253    254    258   5     0.00000    30.33400     0.00000  0.0
    281    253    254    255   5     0.00000    30.33400     0.00000  0.0
    281    253    254    258   5     0.00000    30.33400     0.00000  0.0
    253    254    255    256   5     0.00000     8.78640     0.00000  0.0
    253    254    255    257   5     0.00000     8.26340     0.00000  0.0
    258    254    255    256   5     0.00000     8.78640     0.00000  0.0
    258    254    255    257   5     0.00000     8.26340     0.00000  0.0
    253    254    258    259   5     0.00000    30.33400     0.00000  0.0
    253    254    258    282   5     0.00000    30.33400     0.00000  0.0
    255    254    258    259   5     0.00000    30.33400     0.00000  0.0
    255    254    258    282   5     0.00000    30.33400     0.00000  0.0
    254    255    257    284   5     0.00000    16.73600     0.00000  0.0
    256    255    257    284   5     0.00000    25.10400     0.00000  0.0
    255    257    284    285   5     0.00000   -20.92000     0.00000  0.0
    254    258    259    251   5     0.00000    30.33400     0.00000  0.0
    254    258    259    283   5     0.00000    30.33400     0.00000  0.0
    282    258    259    251   5     0.00000    30.33400     0.00000  0.0
    282    258    259    283   5     0.00000    30.33400     0.00000  0.0
    257    284    285    286   5     0.00000     0.00000     3.13800  0.0
    257    284    285    307   5     0.00000     0.00000     3.13800  0.0
    257    284    285    308   5     0.00000     0.00000     3.13800  0.0
    284    285    286    287   5     5.25092    -2.58990     2.28446  0.0
    284    285    286    309   5     0.00000     0.00000     1.95811  0.0
    284    285    286    310   5     0.00000     0.00000     1.95811  0.0
    307    285    286    287   5     0.00000     0.00000     1.25520  0.0
    307    285    286    309   5     0.00000     0.00000     1.25520  0.0
    307    285    286    310   5     0.00000     0.00000     1.25520  0.0
    308    285    286    287   5     0.00000     0.00000     1.25520  0.0
    308    285    286    309   5     0.00000     0.00000     1.25520  0.0
    308    285    286    310   5     0.00000     0.00000     1.25520  0.0
    285    286    287    288   5     4.74884    -0.63178     1.67360  0.0
    285    286    287    311   5     0.00000     0.00000     1.25520  0.0
    285    286    287    312   5     0.00000     0.00000     1.25520  0.0
    309    286    287    288   5     0.00000     0.00000     1.25520  0.0
    309    286    287    311   5     0.00000     0.00000     1.25520  0.0
    309    286    287    312   5     0.00000     0.00000     1.25520  0.0
    310    286    287    288   5     0.00000     0.00000     1.25520  0.0
    310    286    287    311   5     0.00000     0.00000     1.25520  0.0
    310    286    287    312   5     0.00000     0.00000     1.25520  0.0
    286    287    288    289   5     4.74884    -0.63178     1.67360  0.0
    286    287    288    313   5     0.00000     0.00000     1.25520  0.0
    286    287    288    314   5     0.00000     0.00000     1.25520  0.0
    311    287    288    289   5     0.00000     0.00000     1.25520  0.0
    311    287    288    313   5     0.00000     0.00000     1.25520  0.0
    311    287    288    314   5     0.00000     0.00000     1.25520  0.0
    312    287    288    289   5     0.00000     0.00000     1.25520  0.0
    312    287    288    313   5     0.00000     0.00000     1.25520  0.0
    312    287    288    314   5     0.00000     0.00000     1.25520  0.0
    287    288    289    290   5     4.74884    -0.63178     1.67360  0.0
    287    288    289    315   5     0.00000     0.00000     1.25520  0.0
    287    288    289    316   5     0.00000     0.00000     1.25520  0.0
    313    288    289    290   5     0.00000     0.00000     1.25520  0.0
    313    288    289    315   5     0.00000     0.00000     1.25520  0.0
    313    288    289    316   5     0.00000     0.00000     1.25520  0.0
    314    288    289    290   5     0.00000     0.00000     1.25520  0.0
    314    288    289    315   5     0.00000     0.00000     1.25520  0.0
    314    288    289    316   5     0.00000     0.00000     1.25520  0.0
    288    289    290    291   5     4.74884    -0.63178     1.67360  0.0
    288    289    290    317   5     0.00000     0.00000     1.25520  0.0
    288    289    290    318   5     0.00000     0.00000     1.25520  0.0
    315    289    290    291   5     0.00000     0.00000     1.25520  0.0
    315    289    290    317   5     0.00000     0.00000     1.25520  0.0
    315    289    290    318   5     0.00000     0.00000     1.25520  0.0
    316    289    290    291   5     0.00000     0.00000     1.25520  0.0
    316    289    290    317   5     0.00000     0.00000     1.25520  0.0
    316    289    290    318   5     0.00000     0.00000     1.25520  0.0
    289    290    291    292   5     4.74884    -0.63178     1.67360  0.0
    289    290    291    319   5     0.00000     0.00000     1.25520  0.0
    289    290    291    320   5     0.00000     0.00000     1.25520  0.0
    317    290    291    292   5     0.00000     0.00000     1.25520  0.0
    317    290    291    319   5     0.00000     0.00000     1.25520  0.0
    317    290    291    320   5     0.00000     0.00000     1.25520  0.0
    318    290    291    292   5     0.00000     0.00000     1.25520  0.0
    318    290    291    319   5     0.00000     0.00000     1.25520  0.0
    318    290    291    320   5     0.00000     0.00000     1.25520  0.0
    290    291    292    293   5     4.74884    -0.63178     1.67360  0.0
    290    291    292    321   5     0.00000     0.00000     1.25520  0.0
    290    291    292    322   5     0.00000     0.00000     1.25520  0.0
    319    291    292    293   5     0.00000     0.00000     1.25520  0.0
    319    291    292    321   5     0.00000     0.00000     1.25520  0.0
    319    291    292    322   5     0.00000     0.00000     1.25520  0.0
    320    291    292    293   5     0.00000     0.00000     1.25520  0.0
    320    291    292    321   5     0.00000     0.00000     1.25520  0.0
    320    291    292    322   5     0.00000     0.00000     1.25520  0.0
    291    292    293    294   5     4.74884    -0.63178     1.67360  0.0
    291    292    293    323   5     0.00000     0.00000     1.25520  0.0
    291    292    293    324   5     0.00000     0.00000     1.25520  0.0
    321    292    293    294   5     0.00000     0.00000     1.25520  0.0
    321    292    293    323   5     0.00000     0.00000     1.25520  0.0
    321    292    293    324   5     0.00000     0.00000     1.25520  0.0
    322    292    293    294   5     0.00000     0.00000     1.25520  0.0
    322    292    293    323   5     0.00000     0.00000     1.25520  0.0
    322    292    293    324   5     0.00000     0.00000     1.25520  0.0
    292    293    294    295   5     5.25092    -2.58990     2.28446  0.0
    292    293    294    325   5     0.00000     0.00000     1.25520  0.0
    292    293    294    326   5     0.00000     0.00000     1.25520  0.0
    323    293    294    295   5     0.00000     0.00000     1.95811  0.0
    323    293    294    325   5     0.00000     0.00000     1.25520  0.0
    323    293    294    326   5     0.00000     0.00000     1.25520  0.0
    324    293    294    295   5     0.00000     0.00000     1.95811  0.0
    324    293    294    325   5     0.00000     0.00000     1.25520  0.0
    324    293    294    326   5     0.00000     0.00000     1.25520  0.0
    293    294    295    296   5    -2.16731    -3.93296     0.98324  0.0
    325    294    295    296   5     0.00000     0.00000     0.67362  0.0
    326    294    295    296   5     0.00000     0.00000     0.67362  0.0
    294    295    296    297   5     0.00000    25.10400     0.00000  0.0
    294    295    296    298   5     5.01662    27.18345     0.00000  0.0
    295    296    298    299   5     0.00000     8.26340     0.00000  0.0
    295    296    298    306   5     0.00000     8.26340     0.00000  0.0
    297    296    298    299   5     0.00000     8.78640     0.00000  0.0
    297    296    298    306   5     0.00000     8.78640     0.00000  0.0
    296    298    299    300   5     0.00000    30.33400     0.00000  0.0
    296    298    299    327   5     0.00000    30.33400     0.00000  0.0
    306    298    299    300   5     0.00000    30.33400     0.00000  0.0
    306    298    299    327   5     0.00000    30.33400     0.00000  0.0
    296    298    306    305   5     0.00000    30.33400     0.00000  0.0
    296    298    306    330   5     0.00000    30.33400     0.00000  0.0
    299    298    306    305   5     0.00000    30.33400     0.00000  0.0
    299    298    306    330   5     0.00000    30.33400     0.00000  0.0
    298    299    300    301   5     0.00000    30.33400     0.00000  0.0
    298    299    300    328   5     0.00000    30.33400     0.00000  0.0
    327    299    300    301   5     0.00000    30.33400     0.00000  0.0
    327    299    300    328   5     0.00000    30.33400     0.00000  0.0
    299    300    301    302   5     0.00000    30.33400     0.00000  0.0
    299    300    301    305   5     0.00000    30.33400     0.00000  0.0
    328    300    301    302   5     0.00000    30.33400     0.00000  0.0
    328    300    301    305   5     0.00000    30.33400     0.00000  0.0
    300    301    302    303   5     0.00000     8.78640     0.00000  0.0
    300    301    302    304   5     0.00000     8.26340     0.00000  0.0
    305    301    302    303   5     0.00000     8.78640     0.00000  0.0
    305    301    302    304   5     0.00000     8.26340     0.00000  0.0
    300    301    305    306   5     0.00000    30.33400     0.00000  0.0
    300    301    305    329   5     0.00000    30.33400     0.00000  0.0
    302    301    305    306   5     0.00000    30.33400     0.00000  0.0
    302    301    305    329   5     0.00000    30.33400     0.00000  0.0
    301    302    304    331   5     0.00000    16.73600     0.00000  0.0
    303    302    304    331   5     0.00000    25.10400     0.00000  0.0
    302    304    331    332   5     0.00000   -20.92000     0.00000  0.0
    301    305    306    298   5     0.00000    30.33400     0.00000  0.0
    301    305    306    330   5     0.00000    30.33400     0.00000  0.0
    329    305    306    298   5     0.00000    30.33400     0.00000  0.0
    329    305    306    330   5     0.00000    30.33400     0.00000  0.0
    304    331    332    333   5     0.00000     0.00000     3.13800  0.0
    304    331    332    354   5     0.00000     0.00000     3.13800  0.0
    304    331    332    355   5     0.00000     0.00000     3.13800  0.0
    331    332    333    334   5     5.25092    -2.58990     2.28446  0.0
    331    332    333    356   5     0.00000     0.00000     1.95811  0.0
    331    332    333    357   5     0.00000     0.00000     1.95811  0.0
    354    332    333    334   5     0.00000     0.00000     1.25520  0.0
    354    332    333    356   5     0.00000     0.00000     1.25520  0.0
    354    332    333    357   5     0.00000     0.00000     1.25520  0.0
    355    332    333    334   5     0.00000     0.00000     1.25520  0.0
    355    332    333    356   5     0.00000     0.00000     1.25520  0.0
    355    332    333    357   5     0.00000     0.00000     1.25520  0.0
    332    333    334    335   5     4.74884    -0.63178     1.67360  0.0
    332    333    334    358   5     0.00000     0.00000     1.25520  0.0
    332    333    334    359   5     0.00000     0.00000     1.25520  0.0
    356    333    334    335   5     0.00000     0.00000     1.25520  0.0
    356    333    334    358   5     0.00000     0.00000     1.25520  0.0
    356    333    334    359   5     0.00000     0.00000     1.25520  0.0
    357    333    334    335   5     0.00000     0.00000     1.25520  0.0
    357    333    334    358   5     0.00000     0.00000     1.25520  0.0
    357    333    334    359   5     0.00000     0.00000     1.25520  0.0
    333    334    335    336   5     4.74884    -0.63178     1.67360  0.0
    333    334    335    360   5     0.00000     0.00000     1.25520  0.0
    333    334    335    361   5     0.00000     0.00000     1.25520  0.0
    358    334    335    336   5     0.00000     0.00000     1.25520  0.0
    358    334    335    360   5     0.00000     0.00000     1.25520  0.0
    358    334    335    361   5     0.00000     0.00000     1.25520  0.0
    359    334    335    336   5     0.00000     0.00000     1.25520  0.0
    359    334    335    360   5     0.00000     0.00000     1.25520  0.0
    359    334    335    361   5     0.00000     0.00000     1.25520  0.0
    334    335    336    337   5     4.74884    -0.63178     1.67360  0.0
    334    335    336    362   5     0.00000     0.00000     1.25520  0.0
    334    335    336    363   5     0.00000     0.00000     1.25520  0.0
    360    335    336    337   5     0.00000     0.00000     1.25520  0.0
    360    335    336    362   5     0.00000     0.00000     1.25520  0.0
    360    335    336    363   5     0.00000     0.00000     1.25520  0.0
    361    335    336    337   5     0.00000     0.00000     1.25520  0.0
    361    335    336    362   5     0.00000     0.00000     1.25520  0.0
    361    335    336    363   5     0.00000     0.00000     1.25520  0.0
    335    336    337    338   5     4.74884    -0.63178     1.67360  0.0
    335    336    337    364   5     0.00000     0.00000     1.25520  0.0
    335    336    337    365   5     0.00000     0.00000     1.25520  0.0
    362    336    337    338   5     0.00000     0.00000     1.25520  0.0
    362    336    337    364   5     0.00000     0.00000     1.25520  0.0
    362    336    337    365   5     0.00000     0.00000     1.25520  0.0
    363    336    337    338   5     0.00000     0.00000     1.25520  0.0
    363    336    337    364   5     0.00000     0.00000     1.25520  0.0
    363    336    337    365   5     0.00000     0.00000     1.25520  0.0
    336    337    338    339   5     4.74884    -0.63178     1.67360  0.0
    336    337    338    366   5     0.00000     0.00000     1.25520  0.0
    336    337    338    367   5     0.00000     0.00000     1.25520  0.0
    364    337    338    339   5     0.00000     0.00000     1.25520  0.0
    364    337    338    366   5     0.00000     0.00000     1.25520  0.0
    364    337    338    367   5     0.00000     0.00000     1.25520  0.0
    365    337    338    339   5     0.00000     0.00000     1.25520  0.0
    365    337    338    366   5     0.00000     0.00000     1.25520  0.0
    365    337    338    367   5     0.00000     0.00000     1.25520  0.0
    337    338    339    340   5     4.74884    -0.63178     1.67360  0.0
    337    338    339    368   5     0.00000     0.00000     1.25520  0.0
    337    338    339    369   5     0.00000     0.00000     1.25520  0.0
    366    338    339    340   5     0.00000     0.00000     1.25520  0.0
    366    338    339    368   5     0.00000     0.00000     1.25520  0.0
    366    338    339    369   5     0.00000     0.00000     1.25520  0.0
    367    338    339    340   5     0.00000     0.00000     1.25520  0.0
    367    338    339    368   5     0.00000     0.00000     1.25520  0.0
    367    338    339    369   5     0.00000     0.00000     1.25520  0.0
    338    339    340    341   5     4.74884    -0.63178     1.67360  0.0
    338    339    340    370   5     0.00000     0.00000     1.25520  0.0
    338    339    340    371   5     0.00000     0.00000     1.25520  0.0
    368    339    340    341   5     0.00000     0.00000     1.25520  0.0
    368    339    340    370   5     0.00000     0.00000     1.25520  0.0
    368    339    340    371   5     0.00000     0.00000     1.25520  0.0
    369    339    340    341   5     0.00000     0.00000     1.25520  0.0
    369    339    340    370   5     0.00000     0.00000     1.25520  0.0
    369    339    340    371   5     0.00000     0.00000     1.25520  0.0
    339    340    341    342   5     5.25092    -2.58990     2.28446  0.0
    339    340    341    372   5     0.00000     0.00000     1.25520  0.0
    339    340    341    373   5     0.00000     0.00000     1.25520  0.0
    370    340    341    342   5     0.00000     0.00000     1.95811  0.0
    370    340    341    372   5     0.00000     0.00000     1.25520  0.0
    370    340    341    373   5     0.00000     0.00000     1.25520  0.0
    371    340    341    342   5     0.00000     0.00000     1.95811  0.0
    371    340    341    372   5     0.00000     0.00000     1.25520  0.0
    371    340    341    373   5     0.00000     0.00000     1.25520  0.0
    340    341    342    343   5    -2.16731    -3.93296     0.98324  0.0
    372    341    342    343   5     0.00000     0.00000     0.67362  0.0
    373    341    342    343   5     0.00000     0.00000     0.67362  0.0
    341    342    343    344   5     0.00000    25.10400     0.00000  0.0
    341    342    343    345   5     5.01662    27.18345     0.00000  0.0
    342    343    345    346   5     0.00000     8.26340     0.00000  0.0
    342    343    345    353   5     0.00000     8.26340     0.00000  0.0
    344    343    345    346   5     0.00000     8.78640     0.00000  0.0
    344    343    345    353   5     0.00000     8.78640     0.00000  0.0
    343    345    346    347   5     0.00000    30.33400     0.00000  0.0
    343    345    346    374   5     0.00000    30.33400     0.00000  0.0
    353    345    346    347   5     0.00000    30.33400     0.00000  0.0
    353    345    346    374   5     0.00000    30.33400     0.00000  0.0
    343    345    353    352   5     0.00000    30.33400     0.00000  0.0
    343    345    353    377   5     0.00000    30.33400     0.00000  0.0
    346    345    353    352   5     0.00000    30.33400     0.00000  0.0
    346    345    353    377   5     0.00000    30.33400     0.00000  0.0
    345    346    347    348   5     0.00000    30.33400     0.00000  0.0
    345    346    347    375   5     0.00000    30.33400     0.00000  0.0
    374    346    347    348   5     0.00000    30.33400     0.00000  0.0
    374    346    347    375   5     0.00000    30.33400     0.00000  0.0
    346    347    348    349   5     0.00000    30.33400     0.00000  0.0
    346    347    348    352   5     0.00000    30.33400     0.00000  0.0
    375    347    348    349   5     0.00000    30.33400     0.00000  0.0
    375    347    348    352   5     0.00000    30.33400     0.00000  0.0
    347    348    349    350   5     0.00000     8.78640     0.00000  0.0
    347    348    349    351   5     0.00000     8.26340     0.00000  0.0
    352    348    349    350   5     0.00000     8.78640     0.00000  0.0
    352    348    349    351   5     0.00000     8.26340     0.00000  0.0
    347    348    352    353   5     0.00000    30.33400     0.00000  0.0
    347    348    352    376   5     0.00000    30.33400     0.00000  0.0
    349    348    352    353   5     0.00000    30.33400     0.00000  0.0
    349    348    352    376   5     0.00000    30.33400     0.00000  0.0
    348    349    351    378   5     0.00000    16.73600     0.00000  0.0
    350    349    351    378   5     0.00000    25.10400     0.00000  0.0
    349    351    378    379   5     0.00000   -20.92000     0.00000  0.0
    348    352    353    345   5     0.00000    30.33400     0.00000  0.0
    348    352    353    377   5     0.00000    30.33400     0.00000  0.0
    376    352    353    345   5     0.00000    30.33400     0.00000  0.0
    376    352    353    377   5     0.00000    30.33400     0.00000  0.0
    351    378    379    380   5     0.00000     0.00000     3.13800  0.0
    351    378    379    401   5     0.00000     0.00000     3.13800  0.0
    351    378    379    402   5     0.00000     0.00000     3.13800  0.0
    378    379    380    381   5     5.25092    -2.58990     2.28446  0.0
    378    379    380    403   5     0.00000     0.00000     1.95811  0.0
    378    379    380    404   5     0.00000     0.00000     1.95811  0.0
    401    379    380    381   5     0.00000     0.00000     1.25520  0.0
    401    379    380    403   5     0.00000     0.00000     1.25520  0.0
    401    379    380    404   5     0.00000     0.00000     1.25520  0.0
    402    379    380    381   5     0.00000     0.00000     1.25520  0.0
    402    379    380    403   5     0.00000     0.00000     1.25520  0.0
    402    379    380    404   5     0.00000     0.00000     1.25520  0.0
    379    380    381    382   5     4.74884    -0.63178     1.67360  0.0
    379    380    381    405   5     0.00000     0.00000     1.25520  0.0
    379    380    381    406   5     0.00000     0.00000     1.25520  0.0
    403    380    381    382   5     0.00000     0.00000     1.25520  0.0
    403    380    381    405   5     0.00000     0.00000     1.25520  0.0
    403    380    381    406   5     0.00000     0.00000     1.25520  0.0
    404    380    381    382   5     0.00000     0.00000     1.25520  0.0
    404    380    381    405   5     0.00000     0.00000     1.25520  0.0
    404    380    381    406   5     0.00000     0.00000     1.25520  0.0
    380    381    382    383   5     4.74884    -0.63178     1.67360  0.0
    380    381    382    407   5     0.00000     0.00000     1.25520  0.0
    380    381    382    408   5     0.00000     0.00000     1.25520  0.0
    405    381    382    383   5     0.00000     0.00000     1.25520  0.0
    405    381    382    407   5     0.00000     0.00000     1.25520  0.0
    405    381    382    408   5     0.00000     0.00000     1.25520  0.0
    406    381    382    383   5     0.00000     0.00000     1.25520  0.0
    406    381    382    407   5     0.00000     0.00000     1.25520  0.0
    406    381    382    408   5     0.00000     0.00000     1.25520  0.0
    381    382    383    384   5     4.74884    -0.63178     1.67360  0.0
    381    382    383    409   5     0.00000     0.00000     1.25520  0.0
    381    382    383    410   5     0.00000     0.00000     1.25520  0.0
    407    382    383    384   5     0.00000     0.00000     1.25520  0.0
    407    382    383    409   5     0.00000     0.00000     1.25520  0.0
    407    382    383    410   5     0.00000     0.00000     1.25520  0.0
    408    382    383    384   5     0.00000     0.00000     1.25520  0.0
    408    382    383    409   5     0.00000     0.00000     1.25520  0.0
    408    382    383    410   5     0.00000     0.00000     1.25520  0.0
    382    383    384    385   5     4.74884    -0.63178     1.67360  0.0
    382    383    384    411   5     0.00000     0.00000     1.25520  0.0
    382    383    384    412   5     0.00000     0.00000     1.25520  0.0
    409    383    384    385   5     0.00000     0.00000     1.25520  0.0
    409    383    384    411   5     0.00000     0.00000     1.25520  0.0
    409    383    384    412   5     0.00000     0.00000     1.25520  0.0
    410    383    384    385   5     0.00000     0.00000     1.25520  0.0
    410    383    384    411   5     0.00000     0.00000     1.25520  0.0
    410    383    384    412   5     0.00000     0.00000     1.25520  0.0
    383    384    385    386   5     4.74884    -0.63178     1.67360  0.0
    383    384    385    413   5     0.00000     0.00000     1.25520  0.0
    383    384    385    414   5     0.00000     0.00000     1.25520  0.0
    411    384    385    386   5     0.00000     0.00000     1.25520  0.0
    411    384    385    413   5     0.00000     0.00000     1.25520  0.0
    411    384    385    414   5     0.00000     0.00000     1.25520  0.0
    412    384    385    386   5     0.00000     0.00000     1.25520  0.0
    412    384    385    413   5     0.00000     0.00000     1.25520  0.0
    412    384    385    414   5     0.00000     0.00000     1.25520  0.0
    384    385    386    387   5     4.74884    -0.63178     1.67360  0.0
    384    385    386    415   5     0.00000     0.00000     1.25520  0.0
    384    385    386    416   5     0.00000     0.00000     1.25520  0.0
    413    385    386    387   5     0.00000     0.00000     1.25520  0.0
    413    385    386    415   5     0.00000     0.00000     1.25520  0.0
    413    385    386    416   5     0.00000     0.00000     1.25520  0.0
    414    385    386    387   5     0.00000     0.00000     1.25520  0.0
    414    385    386    415   5     0.00000     0.00000     1.25520  0.0
    414    385    386    416   5     0.00000     0.00000     1.25520  0.0
    385    386    387    388   5     4.74884    -0.63178     1.67360  0.0
    385    386    387    417   5     0.00000     0.00000     1.25520  0.0
    385    386    387    418   5     0.00000     0.00000     1.25520  0.0
    415    386    387    388   5     0.00000     0.00000     1.25520  0.0
    415    386    387    417   5     0.00000     0.00000     1.25520  0.0
    415    386    387    418   5     0.00000     0.00000     1.25520  0.0
    416    386    387    388   5     0.00000     0.00000     1.25520  0.0
    416    386    387    417   5     0.00000     0.00000     1.25520  0.0
    416    386    387    418   5     0.00000     0.00000     1.25520  0.0
    386    387    388    389   5     5.25092    -2.58990     2.28446  0.0
    386    387    388    419   5     0.00000     0.00000     1.25520  0.0
    386    387    388    420   5     0.00000     0.00000     1.25520  0.0
    417    387    388    389   5     0.00000     0.00000     1.95811  0.0
    417    387    388    419   5     0.00000     0.00000     1.25520  0.0
    417    387    388    420   5     0.00000     0.00000     1.25520  0.0
    418    387    388    389   5     0.00000     0.00000     1.95811  0.0
    418    387    388    419   5     0.00000     0.00000     1.25520  0.0
    418    387    388    420   5     0.00000     0.00000     1.25520  0.0
    387    388    389    390   5    -2.16731    -3.93296     0.98324  0.0
    419    388    389    390   5     0.00000     0.00000     0.67362  0.0
    420    388    389    390   5     0.00000     0.00000     0.67362  0.0
    388    389    390    391   5     0.00000    25.10400     0.00000  0.0
    388    389    390    392   5     5.01662    27.18345     0.00000  0.0
    389    390    392    393   5     0.00000     8.26340     0.00000  0.0
    389    390    392    400   5     0.00000     8.26340     0.00000  0.0
    391    390    392    393   5     0.00000     8.78640     0.00000  0.0
    391    390    392    400   5     0.00000     8.78640     0.00000  0.0
    390    392    393    394   5     0.00000    30.33400     0.00000  0.0
    390    392    393    421   5     0.00000    30.33400     0.00000  0.0
    400    392    393    394   5     0.00000    30.33400     0.00000  0.0
    400    392    393    421   5     0.00000    30.33400     0.00000  0.0
    390    392    400    399   5     0.00000    30.33400     0.00000  0.0
    390    392    400    424   5     0.00000    30.33400     0.00000  0.0
    393    392    400    399   5     0.00000    30.33400     0.00000  0.0
    393    392    400    424   5     0.00000    30.33400     0.00000  0.0
    392    393    394    395   5     0.00000    30.33400     0.00000  0.0
    392    393    394    422   5     0.00000    30.33400     0.00000  0.0
    421    393    394    395   5     0.00000    30.33400     0.00000  0.0
    421    393    394    422   5     0.00000    30.33400     0.00000  0.0
    393    394    395    396   5     0.00000    30.33400     0.00000  0.0
    393    394    395    399   5     0.00000    30.33400     0.00000  0.0
    422    394    395    396   5     0.00000    30.33400     0.00000  0.0
    422    394    395    399   5     0.00000    30.33400     0.00000  0.0
    394    395    396    397   5     0.00000     8.78640     0.00000  0.0
    394    395    396    398   5     0.00000     8.26340     0.00000  0.0
    399    395    396    397   5     0.00000     8.78640     0.00000  0.0
    399    395    396    398   5     0.00000     8.26340     0.00000  0.0
    394    395    399    400   5     0.00000    30.33400     0.00000  0.0
    394    395    399    423   5     0.00000    30.33400     0.00000  0.0
    396    395    399    400   5     0.00000    30.33400     0.00000  0.0
    396    395    399    423   5     0.00000    30.33400     0.00000  0.0
    395    396    398    425   5     0.00000    16.73600     0.00000  0.0
    397    396    398    425   5     0.00000    25.10400     0.00000  0.0
    396    398    425    426   5     0.00000   -20.92000     0.00000  0.0
    395    399    400    392   5     0.00000    30.33400     0.00000  0.0
    395    399    400    424   5     0.00000    30.33400     0.00000  0.0
    423    399    400    392   5     0.00000    30.33400     0.00000  0.0
    423    399    400    424   5     0.00000    30.33400     0.00000  0.0
    398    425    426    427   5     0.00000     0.00000     3.13800  0.0
    398    425    426    448   5     0.00000     0.00000     3.13800  0.0
    398    425    426    449   5     0.00000     0.00000     3.13800  0.0
    425    426    427    428   5     5.25092    -2.58990     2.28446  0.0
    425    426    427    450   5     0.00000     0.00000     1.95811  0.0
    425    426    427    451   5     0.00000     0.00000     1.95811  0.0
    448    426    427    428   5     0.00000     0.00000     1.25520  0.0
    448    426    427    450   5     0.00000     0.00000     1.25520  0.0
    448    426    427    451   5     0.00000     0.00000     1.25520  0.0
    449    426    427    428   5     0.00000     0.00000     1.25520  0.0
    449    426    427    450   5     0.00000     0.00000     1.25520  0.0
    449    426    427    451   5     0.00000     0.00000     1.25520  0.0
    426    427    428    429   5     4.74884    -0.63178     1.67360  0.0
    426    427    428    452   5     0.00000     0.00000     1.25520  0.0
    426    427    428    453   5     0.00000     0.00000     1.25520  0.0
    450    427    428    429   5     0.00000     0.00000     1.25520  0.0
    450    427    428    452   5     0.00000     0.00000     1.25520  0.0
    450    427    428    453   5     0.00000     0.00000     1.25520  0.0
    451    427    428    429   5     0.00000     0.00000     1.25520  0.0
    451    427    428    452   5     0.00000     0.00000     1.25520  0.0
    451    427    428    453   5     0.00000     0.00000     1.25520  0.0
    427    428    429    430   5     4.74884    -0.63178     1.67360  0.0
    427    428    429    454   5     0.00000     0.00000     1.25520  0.0
    427    428    429    455   5     0.00000     0.00000     1.25520  0.0
    452    428    429    430   5     0.00000     0.00000     1.25520  0.0
    452    428    429    454   5     0.00000     0.00000     1.25520  0.0
    452    428    429    455   5     0.00000     0.00000     1.25520  0.0
    453    428    429    430   5     0.00000     0.00000     1.25520  0.0
    453    428    429    454   5     0.00000     0.00000     1.25520  0.0
    453    428    429    455   5     0.00000     0.00000     1.25520  0.0
    428    429    430    431   5     4.74884    -0.63178     1.67360  0.0
    428    429    430    456   5     0.00000     0.00000     1.25520  0.0
    428    429    430    457   5     0.00000     0.00000     1.25520  0.0
    454    429    430    431   5     0.00000     0.00000     1.25520  0.0
    454    429    430    456   5     0.00000     0.00000     1.25520  0.0
    454    429    430    457   5     0.00000     0.00000     1.25520  0.0
    455    429    430    431   5     0.00000     0.00000     1.25520  0.0
    455    429    430    456   5     0.00000     0.00000     1.25520  0.0
    455    429    430    457   5     0.00000     0.00000     1.25520  0.0
    429    430    431    432   5     4.74884    -0.63178     1.67360  0.0
    429    430    431    458   5     0.00000     0.00000     1.25520  0.0
    429    430    431    459   5     0.00000     0.00000     1.25520  0.0
    456    430    431    432   5     0.00000     0.00000     1.25520  0.0
    456    430    431    458   5     0.00000     0.00000     1.25520  0.0
    456    430    431    459   5     0.00000     0.00000     1.25520  0.0
    457    430    431    432   5     0.00000     0.00000     1.25520  0.0
    457    430    431    458   5     0.00000     0.00000     1.25520  0.0
    457    430    431    459   5     0.00000     0.00000     1.25520  0.0
    430    431    432    433   5     4.74884    -0.63178     1.67360  0.0
    430    431    432    460   5     0.00000     0.00000     1.25520  0.0
    430    431    432    461   5     0.00000     0.00000     1.25520  0.0
    458    431    432    433   5     0.00000     0.00000     1.25520  0.0
    458    431    432    460   5     0.00000     0.00000     1.25520  0.0
    458    431    432    461   5     0.00000     0.00000     1.25520  0.0
    459    431    432    433   5     0.00000     0.00000     1.25520  0.0
    459    431    432    460   5     0.00000     0.00000     1.25520  0.0
    459    431    432    461   5     0.00000     0.00000     1.25520  0.0
    431    432    433    434   5     4.74884    -0.63178     1.67360  0.0
    431    432    433    462   5     0.00000     0.00000     1.25520  0.0
    431    432    433    463   5     0.00000     0.00000     1.25520  0.0
    460    432    433    434   5     0.00000     0.00000     1.25520  0.0
    460    432    433    462   5     0.00000     0.00000     1.25520  0.0
    460    432    433    463   5     0.00000     0.00000     1.25520  0.0
    461    432    433    434   5     0.00000     0.00000     1.25520  0.0
    461    432    433    462   5     0.00000     0.00000     1.25520  0.0
    461    432    433    463   5     0.00000     0.00000     1.25520  0.0
    432    433    434    435   5     4.74884    -0.63178     1.67360  0.0
    432    433    434    464   5     0.00000     0.00000     1.25520  0.0
    432    433    434    465   5     0.00000     0.00000     1.25520  0.0
    462    433    434    435   5     0.00000     0.00000     1.25520  0.0
    462    433    434    464   5     0.00000     0.00000     1.25520  0.0
    462    433    434    465   5     0.00000     0.00000     1.25520  0.0
    463    433    434    435   5     0.00000     0.00000     1.25520  0.0
    463    433    434    464   5     0.00000     0.00000     1.25520  0.0
    463    433    434    465   5     0.00000     0.00000     1.25520  0.0
    433    434    435    436   5     5.25092    -2.58990     2.28446  0.0
    433    434    435    466   5     0.00000     0.00000     1.25520  0.0
    433    434    435    467   5     0.00000     0.00000     1.25520  0.0
    464    434    435    436   5     0.00000     0.00000     1.95811  0.0
    464    434    435    466   5     0.00000     0.00000     1.25520  0.0
    464    434    435    467   5     0.00000     0.00000     1.25520  0.0
    465    434    435    436   5     0.00000     0.00000     1.95811  0.0
    465    434    435    466   5     0.00000     0.00000     1.25520  0.0
    465    434    435    467   5     0.00000     0.00000     1.25520  0.0
    434    435    436    437   5    -2.16731    -3.93296     0.98324  0.0
    466    435    436    437   5     0.00000     0.00000     0.67362  0.0
    467    435    436    437   5     0.00000     0.00000     0.67362  0.0
    435    436    437    438   5     0.00000    25.10400     0.00000  0.0
    435    436    437    439   5     5.01662    27.18345     0.00000  0.0
    436    437    439    440   5     0.00000     8.26340     0.00000  0.0
    436    437    439    447   5     0.00000     8.26340     0.00000  0.0
    438    437    439    440   5     0.00000     8.78640     0.00000  0.0
    438    437    439    447   5     0.00000     8.78640     0.00000  0.0
    437    439    440    441   5     0.00000    30.33400     0.00000  0.0
    437    439    440    468   5     0.00000    30.33400     0.00000  0.0
    447    439    440    441   5     0.00000    30.33400     0.00000  0.0
    447    439    440    468   5     0.00000    30.33400     0.00000  0.0
    437    439    447    446   5     0.00000    30.33400     0.00000  0.0
    437    439    447    471   5     0.00000    30.33400     0.00000  0.0
    440    439    447    446   5     0.00000    30.33400     0.00000  0.0
    440    439    447    471   5     0.00000    30.33400     0.00000  0.0
    439    440    441    442   5     0.00000    30.33400     0.00000  0.0
    439    440    441    469   5     0.00000    30.33400     0.00000  0.0
    468    440    441    442   5     0.00000    30.33400     0.00000  0.0
    468    440    441    469   5     0.00000    30.33400     0.00000  0.0
    440    441    442    443   5     0.00000    30.33400     0.00000  0.0
    440    441    442    446   5     0.00000    30.33400     0.00000  0.0
    469    441    442    443   5     0.00000    30.33400     0.00000  0.0
    469    441    442    446   5     0.00000    30.33400     0.00000  0.0
    441    442    443    444   5     0.00000     8.78640     0.00000  0.0
    441    442    443    445   5     0.00000     8.26340     0.00000  0.0
    446    442    443    444   5     0.00000     8.78640     0.00000  0.0
    446    442    443    445   5     0.00000     8.26340     0.00000  0.0
    441    442    446    447   5     0.00000    30.33400     0.00000  0.0
    441    442    446    470   5     0.00000    30.33400     0.00000  0.0
    443    442    446    447   5     0.00000    30.33400     0.00000  0.0
    443    442    446    470   5     0.00000    30.33400     0.00000  0.0
    442    443    445    472   5     0.00000    16.73600     0.00000  0.0
    444    443    445    472   5     0.00000    25.10400     0.00000  0.0
    443    445    472    473   5     0.00000   -20.92000     0.00000  0.0
    442    446    447    439   5     0.00000    30.33400     0.00000  0.0
    442    446    447    471   5     0.00000    30.33400     0.00000  0.0
    470    446    447    439   5     0.00000    30.33400     0.00000  0.0
    470    446    447    471   5     0.00000    30.33400     0.00000  0.0
    445    472    473    474   5     0.00000     0.00000     3.13800  0.0
    445    472    473    495   5     0.00000     0.00000     3.13800  0.0
    445    472    473    496   5     0.00000     0.00000     3.13800  0.0
    472    473    474    475   5     5.25092    -2.58990     2.28446  0.0
    472    473    474    497   5     0.00000     0.00000     1.95811  0.0
    472    473    474    498   5     0.00000     0.00000     1.95811  0.0
    495    473    474    475   5     0.00000     0.00000     1.25520  0.0
    495    473    474    497   5     0.00000     0.00000     1.25520  0.0
    495    473    474    498   5     0.00000     0.00000     1.25520  0.0
    496    473    474    475   5     0.00000     0.00000     1.25520  0.0
    496    473    474    497   5     0.00000     0.00000     1.25520  0.0
    496    473    474    498   5     0.00000     0.00000     1.25520  0.0
    473    474    475    476   5     4.74884    -0.63178     1.67360  0.0
    473    474    475    499   5     0.00000     0.00000     1.25520  0.0
    473    474    475    500   5     0.00000     0.00000     1.25520  0.0
    497    474    475    476   5     0.00000     0.00000     1.25520  0.0
    497    474    475    499   5     0.00000     0.00000     1.25520  0.0
    497    474    475    500   5     0.00000     0.00000     1.25520  0.0
    498    474    475    476   5     0.00000     0.00000     1.25520  0.0
    498    474    475    499   5     0.00000     0.00000     1.25520  0.0
    498    474    475    500   5     0.00000     0.00000     1.25520  0.0
    474    475    476    477   5     4.74884    -0.63178     1.67360  0.0
    474    475    476    501   5     0.00000     0.00000     1.25520  0.0
    474    475    476    502   5     0.00000     0.00000     1.25520  0.0
    499    475    476    477   5     0.00000     0.00000     1.25520  0.0
    499    475    476    501   5     0.00000     0.00000     1.25520  0.0
    499    475    476    502   5     0.00000     0.00000     1.25520  0.0
    500    475    476    477   5     0.00000     0.00000     1.25520  0.0
    500    475    476    501   5     0.00000     0.00000     1.25520  0.0
    500    475    476    502   5     0.00000     0.00000     1.25520  0.0
    475    476    477    478   5     4.74884    -0.63178     1.67360  0.0
    475    476    477    503   5     0.00000     0.00000     1.25520  0.0
    475    476    477    504   5     0.00000     0.00000     1.25520  0.0
    501    476    477    478   5     0.00000     0.00000     1.25520  0.0
    501    476    477    503   5     0.00000     0.00000     1.25520  0.0
    501    476    477    504   5     0.00000     0.00000     1.25520  0.0
    502    476    477    478   5     0.00000     0.00000     1.25520  0.0
    502    476    477    503   5     0.00000     0.00000     1.25520  0.0
    502    476    477    504   5     0.00000     0.00000     1.25520  0.0
    476    477    478    479   5     4.74884    -0.63178     1.67360  0.0
    476    477    478    505   5     0.00000     0.00000     1.25520  0.0
    476    477    478    506   5     0.00000     0.00000     1.25520  0.0
    503    477    478    479   5     0.00000     0.00000     1.25520  0.0
    503    477    478    505   5     0.00000     0.00000     1.25520  0.0
    503    477    478    506   5     0.00000     0.00000     1.25520  0.0
    504    477    478    479   5     0.00000     0.00000     1.25520  0.0
    504    477    478    505   5     0.00000     0.00000     1.25520  0.0
    504    477    478    506   5     0.00000     0.00000     1.25520  0.0
    477    478    479    480   5     4.74884    -0.63178     1.67360  0.0
    477    478    479    507   5     0.00000     0.00000     1.25520  0.0
    477    478    479    508   5     0.00000     0.00000     1.25520  0.0
    505    478    479    480   5     0.00000     0.00000     1.25520  0.0
    505    478    479    507   5     0.00000     0.00000     1.25520  0.0
    505    478    479    508   5     0.00000     0.00000     1.25520  0.0
    506    478    479    480   5     0.00000     0.00000     1.25520  0.0
    506    478    479    507   5     0.00000     0.00000     1.25520  0.0
    506    478    479    508   5     0.00000     0.00000     1.25520  0.0
    478    479    480    481   5     4.74884    -0.63178     1.67360  0.0
    478    479    480    509   5     0.00000     0.00000     1.25520  0.0
    478    479    480    510   5     0.00000     0.00000     1.25520  0.0
    507    479    480    481   5     0.00000     0.00000     1.25520  0.0
    507    479    480    509   5     0.00000     0.00000     1.25520  0.0
    507    479    480    510   5     0.00000     0.00000     1.25520  0.0
    508    479    480    481   5     0.00000     0.00000     1.25520  0.0
    508    479    480    509   5     0.00000     0.00000     1.25520  0.0
    508    479    480    510   5     0.00000     0.00000     1.25520  0.0
    479    480    481    482   5     4.74884    -0.63178     1.67360  0.0
    479    480    481    511   5     0.00000     0.00000     1.25520  0.0
    479    480    481    512   5     0.00000     0.00000     1.25520  0.0
    509    480    481    482   5     0.00000     0.00000     1.25520  0.0
    509    480    481    511   5     0.00000     0.00000     1.25520  0.0
    509    480    481    512   5     0.00000     0.00000     1.25520  0.0
    510    480    481    482   5     0.00000     0.00000     1.25520  0.0
    510    480    481    511   5     0.00000     0.00000     1.25520  0.0
    510    480    481    512   5     0.00000     0.00000     1.25520  0.0
    480    481    482    483   5     5.25092    -2.58990     2.28446  0.0
    480    481    482    513   5     0.00000     0.00000     1.25520  0.0
    480    481    482    514   5     0.00000     0.00000     1.25520  0.0
    511    481    482    483   5     0.00000     0.00000     1.95811  0.0
    511    481    482    513   5     0.00000     0.00000     1.25520  0.0
    511    481    482    514   5     0.00000     0.00000     1.25520  0.0
    512    481    482    483   5     0.00000     0.00000     1.95811  0.0
    512    481    482    513   5     0.00000     0.00000     1.25520  0.0
    512    481    482    514   5     0.00000     0.00000     1.25520  0.0
    481    482    483    484   5    -2.16731    -3.93296     0.98324  0.0
    513    482    483    484   5     0.00000     0.00000     0.67362  0.0
    514    482    483    484   5     0.00000     0.00000     0.67362  0.0
    482    483    484    485   5     0.00000    25.10400     0.00000  0.0
    482    483    484    486   5     5.01662    27.18345     0.00000  0.0
    483    484    486    487   5     0.00000     8.26340     0.00000  0.0
    483    484    486    494   5     0.00000     8.26340     0.00000  0.0
    485    484    486    487   5     0.00000     8.78640     0.00000  0.0
    485    484    486    494   5     0.00000     8.78640     0.00000  0.0
    484    486    487    488   5     0.00000    30.33400     0.00000  0.0
    484    486    487    515   5     0.00000    30.33400     0.00000  0.0
    494    486    487    488   5     0.00000    30.33400     0.00000  0.0
    494    486    487    515   5     0.00000    30.33400     0.00000  0.0
    484    486    494    493   5     0.00000    30.33400     0.00000  0.0
    484    486    494    518   5     0.00000    30.33400     0.00000  0.0
    487    486    494    493   5     0.00000    30.33400     0.00000  0.0
    487    486    494    518   5     0.00000    30.33400     0.00000  0.0
    486    487    488    489   5     0.00000    30.33400     0.00000  0.0
    486    487    488    516   5     0.00000    30.33400     0.00000  0.0
    515    487    488    489   5     0.00000    30.33400     0.00000  0.0
    515    487    488    516   5     0.00000    30.33400     0.00000  0.0
    487    488    489    490   5     0.00000    30.33400     0.00000  0.0
    487    488    489    493   5     0.00000    30.33400     0.00000  0.0
    516    488    489    490   5     0.00000    30.33400     0.00000  0.0
    516    488    489    493   5     0.00000    30.33400     0.00000  0.0
    488    489    490    491   5     0.00000     8.78640     0.00000  0.0
    488    489    490    492   5     0.00000     8.26340     0.00000  0.0
    493    489    490    491   5     0.00000     8.78640     0.00000  0.0
    493    489    490    492   5     0.00000     8.26340     0.00000  0.0
    488    489    493    494   5     0.00000    30.33400     0.00000  0.0
    488    489    493    517   5     0.00000    30.33400     0.00000  0.0
    490    489    493    494   5     0.00000    30.33400     0.00000  0.0
    490    489    493    517   5     0.00000    30.33400     0.00000  0.0
    489    490    492    519   5     0.00000    16.73600     0.00000  0.0
    491    490    492    519   5     0.00000    25.10400     0.00000  0.0
    490    492    519    520   5     0.00000   -20.92000     0.00000  0.0
    489    493    494    486   5     0.00000    30.33400     0.00000  0.0
    489    493    494    518   5     0.00000    30.33400     0.00000  0.0
    517    493    494    486   5     0.00000    30.33400     0.00000  0.0
    517    493    494    518   5     0.00000    30.33400     0.00000  0.0
    492    519    520    521   5     0.00000     0.00000     3.13800  0.0
    492    519    520    542   5     0.00000     0.00000     3.13800  0.0
    492    519    520    543   5     0.00000     0.00000     3.13800  0.0
    519    520    521    522   5     5.25092    -2.58990     2.28446  0.0
    519    520    521    544   5     0.00000     0.00000     1.95811  0.0
    519    520    521    545   5     0.00000     0.00000     1.95811  0.0
    542    520    521    522   5     0.00000     0.00000     1.25520  0.0
    542    520    521    544   5     0.00000     0.00000     1.25520  0.0
    542    520    521    545   5     0.00000     0.00000     1.25520  0.0
    543    520    521    522   5     0.00000     0.00000     1.25520  0.0
    543    520    521    544   5     0.00000     0.00000     1.25520  0.0
    543    520    521    545   5     0.00000     0.00000     1.25520  0.0
    520    521    522    523   5     4.74884    -0.63178     1.67360  0.0
    520    521    522    546   5     0.00000     0.00000     1.25520  0.0
    520    521    522    547   5     0.00000     0.00000     1.25520  0.0
    544    521    522    523   5     0.00000     0.00000     1.25520  0.0
    544    521    522    546   5     0.00000     0.00000     1.25520  0.0
    544    521    522    547   5     0.00000     0.00000     1.25520  0.0
    545    521    522    523   5     0.00000     0.00000     1.25520  0.0
    545    521    522    546   5     0.00000     0.00000     1.25520  0.0
    545    521    522    547   5     0.00000     0.00000     1.25520  0.0
    521    522    523    524   5     4.74884    -0.63178     1.67360  0.0
    521    522    523    548   5     0.00000     0.00000     1.25520  0.0
    521    522    523    549   5     0.00000     0.00000     1.25520  0.0
    546    522    523    524   5     0.00000     0.00000     1.25520  0.0
    546    522    523    548   5     0.00000     0.00000     1.25520  0.0
    546    522    523    549   5     0.00000     0.00000     1.25520  0.0
    547    522    523    524   5     0.00000     0.00000     1.25520  0.0
    547    522    523    548   5     0.00000     0.00000     1.25520  0.0
    547    522    523    549   5     0.00000     0.00000     1.25520  0.0
    522    523    524    525   5     4.74884    -0.63178     1.67360  0.0
    522    523    524    550   5     0.00000     0.00000     1.25520  0.0
    522    523    524    551   5     0.00000     0.00000     1.25520  0.0
    548    523    524    525   5     0.00000     0.00000     1.25520  0.0
    548    523    524    550   5     0.00000     0.00000     1.25520  0.0
    548    523    524    551   5     0.00000     0.00000     1.25520  0.0
    549    523    524    525   5     0.00000     0.00000     1.25520  0.0
    549    523    524    550   5     0.00000     0.00000     1.25520  0.0
    549    523    524    551   5     0.00000     0.00000     1.25520  0.0
    523    524    525    526   5     4.74884    -0.63178     1.67360  0.0
    523    524    525    552   5     0.00000     0.00000     1.25520  0.0
    523    524    525    553   5     0.00000     0.00000     1.25520  0.0
    550    524    525    526   5     0.00000     0.00000     1.25520  0.0
    550    524    525    552   5     0.00000     0.00000     1.25520  0.0
    550    524    525    553   5     0.00000     0.00000     1.25520  0.0
    551    524    525    526   5     0.00000     0.00000     1.25520  0.0
    551    524    525    552   5     0.00000     0.00000     1.25520  0.0
    551    524    525    553   5     0.00000     0.00000     1.25520  0.0
    524    525    526    527   5     4.74884    -0.63178     1.67360  0.0
    524    525    526    554   5     0.00000     0.00000     1.25520  0.0
    524    525    526    555   5     0.00000     0.00000     1.25520  0.0
    552    525    526    527   5     0.00000     0.00000     1.25520  0.0
    552    525    526    554   5     0.00000     0.00000     1.25520  0.0
    552    525    526    555   5     0.00000     0.00000     1.25520  0.0
    553    525    526    527   5     0.00000     0.00000     1.25520  0.0
    553    525    526    554   5     0.00000     0.00000     1.25520  0.0
    553    525    526    555   5     0.00000     0.00000     1.25520  0.0
    525    526    527    528   5     4.74884    -0.63178     1.67360  0.0
    525    526    527    556   5     0.00000     0.00000     1.25520  0.0
    525    526    527    557   5     0.00000     0.00000     1.25520  0.0
    554    526    527    528   5     0.00000     0.00000     1.25520  0.0
    554    526    527    556   5     0.00000     0.00000     1.25520  0.0
    554    526    527    557   5     0.00000     0.00000     1.25520  0.0
    555    526    527    528   5     0.00000     0.00000     1.25520  0.0
    555    526    527    556   5     0.00000     0.00000     1.25520  0.0
    555    526    527    557   5     0.00000     0.00000     1.25520  0.0
    526    527    528    529   5     4.74884    -0.63178     1.67360  0.0
    526    527    528    558   5     0.00000     0.00000     1.25520  0.0
    526    527    528    559   5     0.00000     0.00000     1.25520  0.0
    556    527    528    529   5     0.00000     0.00000     1.25520  0.0
    556    527    528    558   5     0.00000     0.00000     1.25520  0.0
    556    527    528    559   5     0.00000     0.00000     1.25520  0.0
    557    527    528    529   5     0.00000     0.00000     1.25520  0.0
    557    527    528    558   5     0.00000     0.00000     1.25520  0.0
    557    527    528    559   5     0.00000     0.00000     1.25520  0.0
    527    528    529    530   5     5.25092    -2.58990     2.28446  0.0
    527    528    529    560   5     0.00000     0.00000     1.25520  0.0
    527    528    529    561   5     0.00000     0.00000     1.25520  0.0
    558    528    529    530   5     0.00000     0.00000     1.95811  0.0
    558    528    529    560   5     0.00000     0.00000     1.25520  0.0
    558    528    529    561   5     0.00000     0.00000     1.25520  0.0
    559    528    529    530   5     0.00000     0.00000     1.95811  0.0
    559    528    529    560   5     0.00000     0.00000     1.25520  0.0
    559    528    529    561   5     0.00000     0.00000     1.25520  0.0
    528    529    530    531   5    -2.16731    -3.93296     0.98324  0.0
    560    529    530    531   5     0.00000     0.00000     0.67362  0.0
    561    529    530    531   5     0.00000     0.00000     0.67362  0.0
    529    530    531    532   5     0.00000    25.10400     0.00000  0.0
    529    530    531    533   5     5.01662    27.18345     0.00000  0.0
    530    531    533    534   5     0.00000     8.26340     0.00000  0.0
    530    531    533    541   5     0.00000     8.26340     0.00000  0.0
    532    531    533    534   5     0.00000     8.78640     0.00000  0.0
    532    531    533    541   5     0.00000     8.78640     0.00000  0.0
    531    533    534    535   5     0.00000    30.33400     0.00000  0.0
    531    533    534    562   5     0.00000    30.33400     0.00000  0.0
    541    533    534    535   5     0.00000    30.33400     0.00000  0.0
    541    533    534    562   5     0.00000    30.33400     0.00000  0.0
    531    533    541    540   5     0.00000    30.33400     0.00000  0.0
    531    533    541    565   5     0.00000    30.33400     0.00000  0.0
    534    533    541    540   5     0.00000    30.33400     0.00000  0.0
    534    533    541    565   5     0.00000    30.33400     0.00000  0.0
    533    534    535    536   5     0.00000    30.33400     0.00000  0.0
    533    534    535    563   5     0.00000    30.33400     0.00000  0.0
    562    534    535    536   5     0.00000    30.33400     0.00000  0.0
    562    534    535    563   5     0.00000    30.33400     0.00000  0.0
    534    535    536    537   5     0.00000    30.33400     0.00000  0.0
    534    535    536    540   5     0.00000    30.33400     0.00000  0.0
    563    535    536    537   5     0.00000    30.33400     0.00000  0.0
    563    535    536    540   5     0.00000    30.33400     0.00000  0.0
    535    536    537    538   5     0.00000     8.78640     0.00000  0.0
    535    536    537    539   5     0.00000     8.26340     0.00000  0.0
    540    536    537    538   5     0.00000     8.78640     0.00000  0.0
    540    536    537    539   5     0.00000     8.26340     0.00000  0.0
    535    536    540    541   5     0.00000    30.33400     0.00000  0.0
    535    536    540    564   5     0.00000    30.33400     0.00000  0.0
    537    536    540    541   5     0.00000    30.33400     0.00000  0.0
    537    536    540    564   5     0.00000    30.33400     0.00000  0.0
    536    537    539    566   5     0.00000    16.73600     0.00000  0.0
    538    537    539    566   5     0.00000    25.10400     0.00000  0.0
    537    539    566    567   5     0.00000   -20.92000     0.00000  0.0
    536    540    541    533   5     0.00000    30.33400     0.00000  0.0
    536    540    541    565   5     0.00000    30.33400     0.00000  0.0
    564    540    541    533   5     0.00000    30.33400     0.00000  0.0
    564    540    541    565   5     0.00000    30.33400     0.00000  0.0
    539    566    567    568   5     0.00000     0.00000     3.13800  0.0
    539    566    567    589   5     0.00000     0.00000     3.13800  0.0
    539    566    567    590   5     0.00000     0.00000     3.13800  0.0
    566    567    568    569   5     5.25092    -2.58990     2.28446  0.0
    566    567    568    591   5     0.00000     0.00000     1.95811  0.0
    566    567    568    592   5     0.00000     0.00000     1.95811  0.0
    589    567    568    569   5     0.00000     0.00000     1.25520  0.0
    589    567    568    591   5     0.00000     0.00000     1.25520  0.0
    589    567    568    592   5     0.00000     0.00000     1.25520  0.0
    590    567    568    569   5     0.00000     0.00000     1.25520  0.0
    590    567    568    591   5     0.00000     0.00000     1.25520  0.0
    590    567    568    592   5     0.00000     0.00000     1.25520  0.0
    567    568    569    570   5     4.74884    -0.63178     1.67360  0.0
    567    568    569    593   5     0.00000     0.00000     1.25520  0.0
    567    568    569    594   5     0.00000     0.00000     1.25520  0.0
    591    568    569    570   5     0.00000     0.00000     1.25520  0.0
    591    568    569    593   5     0.00000     0.00000     1.25520  0.0
    591    568    569    594   5     0.00000     0.00000     1.25520  0.0
    592    568    569    570   5     0.00000     0.00000     1.25520  0.0
    592    568    569    593   5     0.00000     0.00000     1.25520  0.0
    592    568    569    594   5     0.00000     0.00000     1.25520  0.0
    568    569    570    571   5     4.74884    -0.63178     1.67360  0.0
    568    569    570    595   5     0.00000     0.00000     1.25520  0.0
    568    569    570    596   5     0.00000     0.00000     1.25520  0.0
    593    569    570    571   5     0.00000     0.00000     1.25520  0.0
    593    569    570    595   5     0.00000     0.00000     1.25520  0.0
    593    569    570    596   5     0.00000     0.00000     1.25520  0.0
    594    569    570    571   5     0.00000     0.00000     1.25520  0.0
    594    569    570    595   5     0.00000     0.00000     1.25520  0.0
    594    569    570    596   5     0.00000     0.00000     1.25520  0.0
    569    570    571    572   5     4.74884    -0.63178     1.67360  0.0
    569    570    571    597   5     0.00000     0.00000     1.25520  0.0
    569    570    571    598   5     0.00000     0.00000     1.25520  0.0
    595    570    571    572   5     0.00000     0.00000     1.25520  0.0
    595    570    571    597   5     0.00000     0.00000     1.25520  0.0
    595    570    571    598   5     0.00000     0.00000     1.25520  0.0
    596    570    571    572   5     0.00000     0.00000     1.25520  0.0
    596    570    571    597   5     0.00000     0.00000     1.25520  0.0
    596    570    571    598   5     0.00000     0.00000     1.25520  0.0
    570    571    572    573   5     4.74884    -0.63178     1.67360  0.0
    570    571    572    599   5     0.00000     0.00000     1.25520  0.0
    570    571    572    600   5     0.00000     0.00000     1.25520  0.0
    597    571    572    573   5     0.00000     0.00000     1.25520  0.0
    597    571    572    599   5     0.00000     0.00000     1.25520  0.0
    597    571    572    600   5     0.00000     0.00000     1.25520  0.0
    598    571    572    573   5     0.00000     0.00000     1.25520  0.0
    598    571    572    599   5     0.00000     0.00000     1.25520  0.0
    598    571    572    600   5     0.00000     0.00000     1.25520  0.0
    571    572    573    574   5     4.74884    -0.63178     1.67360  0.0
    571    572    573    601   5     0.00000     0.00000     1.25520  0.0
    571    572    573    602   5     0.00000     0.00000     1.25520  0.0
    599    572    573    574   5     0.00000     0.00000     1.25520  0.0
    599    572    573    601   5     0.00000     0.00000     1.25520  0.0
    599    572    573    602   5     0.00000     0.00000     1.25520  0.0
    600    572    573    574   5     0.00000     0.00000     1.25520  0.0
    600    572    573    601   5     0.00000     0.00000     1.25520  0.0
    600    572    573    602   5     0.00000     0.00000     1.25520  0.0
    572    573    574    575   5     4.74884    -0.63178     1.67360  0.0
    572    573    574    603   5     0.00000     0.00000     1.25520  0.0
    572    573    574    604   5     0.00000     0.00000     1.25520  0.0
    601    573    574    575   5     0.00000     0.00000     1.25520  0.0
    601    573    574    603   5     0.00000     0.00000     1.25520  0.0
    601    573    574    604   5     0.00000     0.00000     1.25520  0.0
    602    573    574    575   5     0.00000     0.00000     1.25520  0.0
    602    573    574    603   5     0.00000     0.00000     1.25520  0.0
    602    573    574    604   5     0.00000     0.00000     1.25520  0.0
    573    574    575    576   5     4.74884    -0.63178     1.67360  0.0
    573    574    575    605   5     0.00000     0.00000     1.25520  0.0
    573    574    575    606   5     0.00000     0.00000     1.25520  0.0
    603    574    575    576   5     0.00000     0.00000     1.25520  0.0
    603    574    575    605   5     0.00000     0.00000     1.25520  0.0
    603    574    575    606   5     0.00000     0.00000     1.25520  0.0
    604    574    575    576   5     0.00000     0.00000     1.25520  0.0
    604    574    575    605   5     0.00000     0.00000     1.25520  0.0
    604    574    575    606   5     0.00000     0.00000     1.25520  0.0
    574    575    576    577   5     5.25092    -2.58990     2.28446  0.0
    574    575    576    607   5     0.00000     0.00000     1.25520  0.0
    574    575    576    608   5     0.00000     0.00000     1.25520  0.0
    605    575    576    577   5     0.00000     0.00000     1.95811  0.0
    605    575    576    607   5     0.00000     0.00000     1.25520  0.0
    605    575    576    608   5     0.00000     0.00000     1.25520  0.0
    606    575    576    577   5     0.00000     0.00000     1.95811  0.0
    606    575    576    607   5     0.00000     0.00000     1.25520  0.0
    606    575    576    608   5     0.00000     0.00000     1.25520  0.0
    575    576    577    578   5    -2.16731    -3.93296     0.98324  0.0
    607    576    577    578   5     0.00000     0.00000     0.67362  0.0
    608    576    577    578   5     0.00000     0.00000     0.67362  0.0
    576    577    578    579   5     0.00000    25.10400     0.00000  0.0
    576    577    578    580   5     5.01662    27.18345     0.00000  0.0
    577    578    580    581   5     0.00000     8.26340     0.00000  0.0
    577    578    580    588   5     0.00000     8.26340     0.00000  0.0
    579    578    580    581   5     0.00000     8.78640     0.00000  0.0
    579    578    580    588   5     0.00000     8.78640     0.00000  0.0
    578    580    581    582   5     0.00000    30.33400     0.00000  0.0
    578    580    581    609   5     0.00000    30.33400     0.00000  0.0
    588    580    581    582   5     0.00000    30.33400     0.00000  0.0
    588    580    581    609   5     0.00000    30.33400     0.00000  0.0
    578    580    588    587   5     0.00000    30.33400     0.00000  0.0
    578    580    588    612   5     0.00000    30.33400     0.00000  0.0
    581    580    588    587   5     0.00000    30.33400     0.00000  0.0
    581    580    588    612   5     0.00000    30.33400     0.00000  0.0
    580    581    582    583   5     0.00000    30.33400     0.00000  0.0
    580    581    582    610   5     0.00000    30.33400     0.00000  0.0
    609    581    582    583   5     0.00000    30.33400     0.00000  0.0
    609    581    582    610   5     0.00000    30.33400     0.00000  0.0
    581    582    583    584   5     0.00000    30.33400     0.00000  0.0
    581    582    583    587   5     0.00000    30.33400     0.00000  0.0
    610    582    583    584   5     0.00000    30.33400     0.00000  0.0
    610    582    583    587   5     0.00000    30.33400     0.00000  0.0
    582    583    584    585   5     0.00000     8.78640     0.00000  0.0
    582    583    584    586   5     0.00000     8.26340     0.00000  0.0
    587    583    584    585   5     0.00000     8.78640     0.00000  0.0
    587    583    584    586   5     0.00000     8.26340     0.00000  0.0
    582    583    587    588   5     0.00000    30.33400     0.00000  0.0
    582    583    587    611   5     0.00000    30.33400     0.00000  0.0
    584    583    587    588   5     0.00000    30.33400     0.00000  0.0
    584    583    587    611   5     0.00000    30.33400     0.00000  0.0
    583    584    586    613   5     0.00000    16.73600     0.00000  0.0
    585    584    586    613   5     0.00000    25.10400     0.00000  0.0
    584    586    613    614   5     0.00000   -20.92000     0.00000  0.0
    583    587    588    580   5     0.00000    30.33400     0.00000  0.0
    583    587    588    612   5     0.00000    30.33400     0.00000  0.0
    611    587    588    580   5     0.00000    30.33400     0.00000  0.0
    611    587    588    612   5     0.00000    30.33400     0.00000  0.0
    586    613    614    615   5     0.00000     0.00000     3.13800  0.0
    586    613    614    636   5     0.00000     0.00000     3.13800  0.0
    586    613    614    637   5     0.00000     0.00000     3.13800  0.0
    613    614    615    616   5     5.25092    -2.58990     2.28446  0.0
    613    614    615    638   5     0.00000     0.00000     1.95811  0.0
    613    614    615    639   5     0.00000     0.00000     1.95811  0.0
    636    614    615    616   5     0.00000     0.00000     1.25520  0.0
    636    614    615    638   5     0.00000     0.00000     1.25520  0.0
    636    614    615    639   5     0.00000     0.00000     1.25520  0.0
    637    614    615    616   5     0.00000     0.00000     1.25520  0.0
    637    614    615    638   5     0.00000     0.00000     1.25520  0.0
    637    614    615    639   5     0.00000     0.00000     1.25520  0.0
    614    615    616    617   5     4.74884    -0.63178     1.67360  0.0
    614    615    616    640   5     0.00000     0.00000     1.25520  0.0
    614    615    616    641   5     0.00000     0.00000     1.25520  0.0
    638    615    616    617   5     0.00000     0.00000     1.25520  0.0
    638    615    616    640   5     0.00000     0.00000     1.25520  0.0
    638    615    616    641   5     0.00000     0.00000     1.25520  0.0
    639    615    616    617   5     0.00000     0.00000     1.25520  0.0
    639    615    616    640   5     0.00000     0.00000     1.25520  0.0
    639    615    616    641   5     0.00000     0.00000     1.25520  0.0
    615    616    617    618   5     4.74884    -0.63178     1.67360  0.0
    615    616    617    642   5     0.00000     0.00000     1.25520  0.0
    615    616    617    643   5     0.00000     0.00000     1.25520  0.0
    640    616    617    618   5     0.00000     0.00000     1.25520  0.0
    640    616    617    642   5     0.00000     0.00000     1.25520  0.0
    640    616    617    643   5     0.00000     0.00000     1.25520  0.0
    641    616    617    618   5     0.00000     0.00000     1.25520  0.0
    641    616    617    642   5     0.00000     0.00000     1.25520  0.0
    641    616    617    643   5     0.00000     0.00000     1.25520  0.0
    616    617    618    619   5     4.74884    -0.63178     1.67360  0.0
    616    617    618    644   5     0.00000     0.00000     1.25520  0.0
    616    617    618    645   5     0.00000     0.00000     1.25520  0.0
    642    617    618    619   5     0.00000     0.00000     1.25520  0.0
    642    617    618    644   5     0.00000     0.00000     1.25520  0.0
    642    617    618    645   5     0.00000     0.00000     1.25520  0.0
    643    617    618    619   5     0.00000     0.00000     1.25520  0.0
    643    617    618    644   5     0.00000     0.00000     1.25520  0.0
    643    617    618    645   5     0.00000     0.00000     1.25520  0.0
    617    618    619    620   5     4.74884    -0.63178     1.67360  0.0
    617    618    619    646   5     0.00000     0.00000     1.25520  0.0
    617    618    619    647   5     0.00000     0.00000     1.25520  0.0
    644    618    619    620   5     0.00000     0.00000     1.25520  0.0
    644    618    619    646   5     0.00000     0.00000     1.25520  0.0
    644    618    619    647   5     0.00000     0.00000     1.25520  0.0
    645    618    619    620   5     0.00000     0.00000     1.25520  0.0
    645    618    619    646   5     0.00000     0.00000     1.25520  0.0
    645    618    619    647   5     0.00000     0.00000     1.25520  0.0
    618    619    620    621   5     4.74884    -0.63178     1.67360  0.0
    618    619    620    648   5     0.00000     0.00000     1.25520  0.0
    618    619    620    649   5     0.00000     0.00000     1.25520  0.0
    646    619    620    621   5     0.00000     0.00000     1.25520  0.0
    646    619    620    648   5     0.00000     0.00000     1.25520  0.0
    646    619    620    649   5     0.00000     0.00000     1.25520  0.0
    647    619    620    621   5     0.00000     0.00000     1.25520  0.0
    647    619    620    648   5     0.00000     0.00000     1.25520  0.0
    647    619    620    649   5     0.00000     0.00000     1.25520  0.0
    619    620    621    622   5     4.74884    -0.63178     1.67360  0.0
    619    620    621    650   5     0.00000     0.00000     1.25520  0.0
    619    620    621    651   5     0.00000     0.00000     1.25520  0.0
    648    620    621    622   5     0.00000     0.00000     1.25520  0.0
    648    620    621    650   5     0.00000     0.00000     1.25520  0.0
    648    620    621    651   5     0.00000     0.00000     1.25520  0.0
    649    620    621    622   5     0.00000     0.00000     1.25520  0.0
    649    620    621    650   5     0.00000     0.00000     1.25520  0.0
    649    620    621    651   5     0.00000     0.00000     1.25520  0.0
    620    621    622    623   5     4.74884    -0.63178     1.67360  0.0
    620    621    622    652   5     0.00000     0.00000     1.25520  0.0
    620    621    622    653   5     0.00000     0.00000     1.25520  0.0
    650    621    622    623   5     0.00000     0.00000     1.25520  0.0
    650    621    622    652   5     0.00000     0.00000     1.25520  0.0
    650    621    622    653   5     0.00000     0.00000     1.25520  0.0
    651    621    622    623   5     0.00000     0.00000     1.25520  0.0
    651    621    622    652   5     0.00000     0.00000     1.25520  0.0
    651    621    622    653   5     0.00000     0.00000     1.25520  0.0
    621    622    623    624   5     5.25092    -2.58990     2.28446  0.0
    621    622    623    654   5     0.00000     0.00000     1.25520  0.0
    621    622    623    655   5     0.00000     0.00000     1.25520  0.0
    652    622    623    624   5     0.00000     0.00000     1.95811  0.0
    652    622    623    654   5     0.00000     0.00000     1.25520  0.0
    652    622    623    655   5     0.00000     0.00000     1.25520  0.0
    653    622    623    624   5     0.00000     0.00000     1.95811  0.0
    653    622    623    654   5     0.00000     0.00000     1.25520  0.0
    653    622    623    655   5     0.00000     0.00000     1.25520  0.0
    622    623    624    625   5    -2.16731    -3.93296     0.98324  0.0
    654    623    624    625   5     0.00000     0.00000     0.67362  0.0
    655    623    624    625   5     0.00000     0.00000     0.67362  0.0
    623    624    625    626   5     0.00000    25.10400     0.00000  0.0
    623    624    625    627   5     5.01662    27.18345     0.00000  0.0
    624    625    627    628   5     0.00000     8.26340     0.00000  0.0
    624    625    627    635   5     0.00000     8.26340     0.00000  0.0
    626    625    627    628   5     0.00000     8.78640     0.00000  0.0
    626    625    627    635   5     0.00000     8.78640     0.00000  0.0
    625    627    628    629   5     0.00000    30.33400     0.00000  0.0
    625    627    628    656   5     0.00000    30.33400     0.00000  0.0
    635    627    628    629   5     0.00000    30.33400     0.00000  0.0
    635    627    628    656   5     0.00000    30.33400     0.00000  0.0
    625    627    635    634   5     0.00000    30.33400     0.00000  0.0
    625    627    635    659   5     0.00000    30.33400     0.00000  0.0
    628    627    635    634   5     0.00000    30.33400     0.00000  0.0
    628    627    635    659   5     0.00000    30.33400     0.00000  0.0
    627    628    629    630   5     0.00000    30.33400     0.00000  0.0
    627    628    629    657   5     0.00000    30.33400     0.00000  0.0
    656    628    629    630   5     0.00000    30.33400     0.00000  0.0
    656    628    629    657   5     0.00000    30.33400     0.00000  0.0
    628    629    630    631   5     0.00000    30.33400     0.00000  0.0
    628    629    630    634   5     0.00000    30.33400     0.00000  0.0
    657    629    630    631   5     0.00000    30.33400     0.00000  0.0
    657    629    630    634   5     0.00000    30.33400     0.00000  0.0
    629    630    631    632   5     0.00000     8.78640     0.00000  0.0
    629    630    631    633   5     0.00000     8.26340     0.00000  0.0
    634    630    631    632   5     0.00000     8.78640     0.00000  0.0
    634    630    631    633   5     0.00000     8.26340     0.00000  0.0
    629    630    634    635   5     0.00000    30.33400     0.00000  0.0
    629    630    634    658   5     0.00000    30.33400     0.00000  0.0
    631    630    634    635   5     0.00000    30.33400     0.00000  0.0
    631    630    634    658   5     0.00000    30.33400     0.00000  0.0
    630    631    633    660   5     0.00000    16.73600     0.00000  0.0
    632    631    633    660   5     0.00000    25.10400     0.00000  0.0
    631    633    660    661   5     0.00000   -20.92000     0.00000  0.0
    630    634    635    627   5     0.00000    30.33400     0.00000  0.0
    630    634    635    659   5     0.00000    30.33400     0.00000  0.0
    658    634    635    627   5     0.00000    30.33400     0.00000  0.0
    658    634    635    659   5     0.00000    30.33400     0.00000  0.0
    633    660    661    662   5     0.00000     0.00000     3.13800  0.0
    633    660    661    683   5     0.00000     0.00000     3.13800  0.0
    633    660    661    684   5     0.00000     0.00000     3.13800  0.0
    660    661    662    663   5     5.25092    -2.58990     2.28446  0.0
    660    661    662    685   5     0.00000     0.00000     1.95811  0.0
    660    661    662    686   5     0.00000     0.00000     1.95811  0.0
    683    661    662    663   5     0.00000     0.00000     1.25520  0.0
    683    661    662    685   5     0.00000     0.00000     1.25520  0.0
    683    661    662    686   5     0.00000     0.00000     1.25520  0.0
    684    661    662    663   5     0.00000     0.00000     1.25520  0.0
    684    661    662    685   5     0.00000     0.00000     1.25520  0.0
    684    661    662    686   5     0.00000     0.00000     1.25520  0.0
    661    662    663    664   5     4.74884    -0.63178     1.67360  0.0
    661    662    663    687   5     0.00000     0.00000     1.25520  0.0
    661    662    663    688   5     0.00000     0.00000     1.25520  0.0
    685    662    663    664   5     0.00000     0.00000     1.25520  0.0
    685    662    663    687   5     0.00000     0.00000     1.25520  0.0
    685    662    663    688   5     0.00000     0.00000     1.25520  0.0
    686    662    663    664   5     0.00000     0.00000     1.25520  0.0
    686    662    663    687   5     0.00000     0.00000     1.25520  0.0
    686    662    663    688   5     0.00000     0.00000     1.25520  0.0
    662    663    664    665   5     4.74884    -0.63178     1.67360  0.0
    662    663    664    689   5     0.00000     0.00000     1.25520  0.0
    662    663    664    690   5     0.00000     0.00000     1.25520  0.0
    687    663    664    665   5     0.00000     0.00000     1.25520  0.0
    687    663    664    689   5     0.00000     0.00000     1.25520  0.0
    687    663    664    690   5     0.00000     0.00000     1.25520  0.0
    688    663    664    665   5     0.00000     0.00000     1.25520  0.0
    688    663    664    689   5     0.00000     0.00000     1.25520  0.0
    688    663    664    690   5     0.00000     0.00000     1.25520  0.0
    663    664    665    666   5     4.74884    -0.63178     1.67360  0.0
    663    664    665    691   5     0.00000     0.00000     1.25520  0.0
    663    664    665    692   5     0.00000     0.00000     1.25520  0.0
    689    664    665    666   5     0.00000     0.00000     1.25520  0.0
    689    664    665    691   5     0.00000     0.00000     1.25520  0.0
    689    664    665    692   5     0.00000     0.00000     1.25520  0.0
    690    664    665    666   5     0.00000     0.00000     1.25520  0.0
    690    664    665    691   5     0.00000     0.00000     1.25520  0.0
    690    664    665    692   5     0.00000     0.00000     1.25520  0.0
    664    665    666    667   5     4.74884    -0.63178     1.67360  0.0
    664    665    666    693   5     0.00000     0.00000     1.25520  0.0
    664    665    666    694   5     0.00000     0.00000     1.25520  0.0
    691    665    666    667   5     0.00000     0.00000     1.25520  0.0
    691    665    666    693   5     0.00000     0.00000     1.25520  0.0
    691    665    666    694   5     0.00000     0.00000     1.25520  0.0
    692    665    666    667   5     0.00000     0.00000     1.25520  0.0
    692    665    666    693   5     0.00000     0.00000     1.25520  0.0
    692    665    666    694   5     0.00000     0.00000     1.25520  0.0
    665    666    667    668   5     4.74884    -0.63178     1.67360  0.0
    665    666    667    695   5     0.00000     0.00000     1.25520  0.0
    665    666    667    696   5     0.00000     0.00000     1.25520  0.0
    693    666    667    668   5     0.00000     0.00000     1.25520  0.0
    693    666    667    695   5     0.00000     0.00000     1.25520  0.0
    693    666    667    696   5     0.00000     0.00000     1.25520  0.0
    694    666    667    668   5     0.00000     0.00000     1.25520  0.0
    694    666    667    695   5     0.00000     0.00000     1.25520  0.0
    694    666    667    696   5     0.00000     0.00000     1.25520  0.0
    666    667    668    669   5     4.74884    -0.63178     1.67360  0.0
    666    667    668    697   5     0.00000     0.00000     1.25520  0.0
    666    667    668    698   5     0.00000     0.00000     1.25520  0.0
    695    667    668    669   5     0.00000     0.00000     1.25520  0.0
    695    667    668    697   5     0.00000     0.00000     1.25520  0.0
    695    667    668    698   5     0.00000     0.00000     1.25520  0.0
    696    667    668    669   5     0.00000     0.00000     1.25520  0.0
    696    667    668    697   5     0.00000     0.00000     1.25520  0.0
    696    667    668    698   5     0.00000     0.00000     1.25520  0.0
    667    668    669    670   5     4.74884    -0.63178     1.67360  0.0
    667    668    669    699   5     0.00000     0.00000     1.25520  0.0
    667    668    669    700   5     0.00000     0.00000     1.25520  0.0
    697    668    669    670   5     0.00000     0.00000     1.25520  0.0
    697    668    669    699   5     0.00000     0.00000     1.25520  0.0
    697    668    669    700   5     0.00000     0.00000     1.25520  0.0
    698    668    669    670   5     0.00000     0.00000     1.25520  0.0
    698    668    669    699   5     0.00000     0.00000     1.25520  0.0
    698    668    669    700   5     0.00000     0.00000     1.25520  0.0
    668    669    670    671   5     5.25092    -2.58990     2.28446  0.0
    668    669    670    701   5     0.00000     0.00000     1.25520  0.0
    668    669    670    702   5     0.00000     0.00000     1.25520  0.0
    699    669    670    671   5     0.00000     0.00000     1.95811  0.0
    699    669    670    701   5     0.00000     0.00000     1.25520  0.0
    699    669    670    702   5     0.00000     0.00000     1.25520  0.0
    700    669    670    671   5     0.00000     0.00000     1.95811  0.0
    700    669    670    701   5     0.00000     0.00000     1.25520  0.0
    700    669    670    702   5     0.00000     0.00000     1.25520  0.0
    669    670    671    672   5    -2.16731    -3.93296     0.98324  0.0
    701    670    671    672   5     0.00000     0.00000     0.67362  0.0
    702    670    671    672   5     0.00000     0.00000     0.67362  0.0
    670    671    672    673   5     0.00000    25.10400     0.00000  0.0
    670    671    672    674   5     5.01662    27.18345     0.00000  0.0
    671    672    674    675   5     0.00000     8.26340     0.00000  0.0
    671    672    674    682   5     0.00000     8.26340     0.00000  0.0
    673    672    674    675   5     0.00000     8.78640     0.00000  0.0
    673    672    674    682   5     0.00000     8.78640     0.00000  0.0
    672    674    675    676   5     0.00000    30.33400     0.00000  0.0
    672    674    675    703   5     0.00000    30.33400     0.00000  0.0
    682    674    675    676   5     0.00000    30.33400     0.00000  0.0
    682    674    675    703   5     0.00000    30.33400     0.00000  0.0
    672    674    682    681   5     0.00000    30.33400     0.00000  0.0
    672    674    682    706   5     0.00000    30.33400     0.00000  0.0
    675    674    682    681   5     0.00000    30.33400     0.00000  0.0
    675    674    682    706   5     0.00000    30.33400     0.00000  0.0
    674    675    676    677   5     0.00000    30.33400     0.00000  0.0
    674    675    676    704   5     0.00000    30.33400     0.00000  0.0
    703    675    676    677   5     0.00000    30.33400     0.00000  0.0
    703    675    676    704   5     0.00000    30.33400     0.00000  0.0
    675    676    677    678   5     0.00000    30.33400     0.00000  0.0
    675    676    677    681   5     0.00000    30.33400     0.00000  0.0
    704    676    677    678   5     0.00000    30.33400     0.00000  0.0
    704    676    677    681   5     0.00000    30.33400     0.00000  0.0
    676    677    678    679   5     0.00000     8.78640     0.00000  0.0
    676    677    678    680   5     0.00000     8.26340     0.00000  0.0
    681    677    678    679   5     0.00000     8.78640     0.00000  0.0
    681    677    678    680   5     0.00000     8.26340     0.00000  0.0
    676    677    681    682   5     0.00000    30.33400     0.00000  0.0
    676    677    681    705   5     0.00000    30.33400     0.00000  0.0
    678    677    681    682   5     0.00000    30.33400     0.00000  0.0
    678    677    681    705   5     0.00000    30.33400     0.00000  0.0
    677    678    680    707   5     0.00000    16.73600     0.00000  0.0
    679    678    680    707   5     0.00000    25.10400     0.00000  0.0
    678    680    707    708   5     0.00000   -20.92000     0.00000  0.0
    677    681    682    674   5     0.00000    30.33400     0.00000  0.0
    677    681    682    706   5     0.00000    30.33400     0.00000  0.0
    705    681    682    674   5     0.00000    30.33400     0.00000  0.0
    705    681    682    706   5     0.00000    30.33400     0.00000  0.0
    680    707    708    709   5     0.00000     0.00000     3.13800  0.0
    680    707    708    730   5     0.00000     0.00000     3.13800  0.0
    680    707    708    731   5     0.00000     0.00000     3.13800  0.0
    707    708    709    710   5     5.25092    -2.58990     2.28446  0.0
    707    708    709    732   5     0.00000     0.00000     1.95811  0.0
    707    708    709    733   5     0.00000     0.00000     1.95811  0.0
    730    708    709    710   5     0.00000     0.00000     1.25520  0.0
    730    708    709    732   5     0.00000     0.00000     1.25520  0.0
    730    708    709    733   5     0.00000     0.00000     1.25520  0.0
    731    708    709    710   5     0.00000     0.00000     1.25520  0.0
    731    708    709    732   5     0.00000     0.00000     1.25520  0.0
    731    708    709    733   5     0.00000     0.00000     1.25520  0.0
    708    709    710    711   5     4.74884    -0.63178     1.67360  0.0
    708    709    710    734   5     0.00000     0.00000     1.25520  0.0
    708    709    710    735   5     0.00000     0.00000     1.25520  0.0
    732    709    710    711   5     0.00000     0.00000     1.25520  0.0
    732    709    710    734   5     0.00000     0.00000     1.25520  0.0
    732    709    710    735   5     0.00000     0.00000     1.25520  0.0
    733    709    710    711   5     0.00000     0.00000     1.25520  0.0
    733    709    710    734   5     0.00000     0.00000     1.25520  0.0
    733    709    710    735   5     0.00000     0.00000     1.25520  0.0
    709    710    711    712   5     4.74884    -0.63178     1.67360  0.0
    709    710    711    736   5     0.00000     0.00000     1.25520  0.0
    709    710    711    737   5     0.00000     0.00000     1.25520  0.0
    734    710    711    712   5     0.00000     0.00000     1.25520  0.0
    734    710    711    736   5     0.00000     0.00000     1.25520  0.0
    734    710    711    737   5     0.00000     0.00000     1.25520  0.0
    735    710    711    712   5     0.00000     0.00000     1.25520  0.0
    735    710    711    736   5     0.00000     0.00000     1.25520  0.0
    735    710    711    737   5     0.00000     0.00000     1.25520  0.0
    710    711    712    713   5     4.74884    -0.63178     1.67360  0.0
    710    711    712    738   5     0.00000     0.00000     1.25520  0.0
    710    711    712    739   5     0.00000     0.00000     1.25520  0.0
    736    711    712    713   5     0.00000     0.00000     1.25520  0.0
    736    711    712    738   5     0.00000     0.00000     1.25520  0.0
    736    711    712    739   5     0.00000     0.00000     1.25520  0.0
    737    711    712    713   5     0.00000     0.00000     1.25520  0.0
    737    711    712    738   5     0.00000     0.00000     1.25520  0.0
    737    711    712    739   5     0.00000     0.00000     1.25520  0.0
    711    712    713    714   5     4.74884    -0.63178     1.67360  0.0
    711    712    713    740   5     0.00000     0.00000     1.25520  0.0
    711    712    713    741   5     0.00000     0.00000     1.25520  0.0
    738    712    713    714   5     0.00000     0.00000     1.25520  0.0
    738    712    713    740   5     0.00000     0.00000     1.25520  0.0
    738    712    713    741   5     0.00000     0.00000     1.25520  0.0
    739    712    713    714   5     0.00000     0.00000     1.25520  0.0
    739    712    713    740   5     0.00000     0.00000     1.25520  0.0
    739    712    713    741   5     0.00000     0.00000     1.25520  0.0
    712    713    714    715   5     4.74884    -0.63178     1.67360  0.0
    712    713    714    742   5     0.00000     0.00000     1.25520  0.0
    712    713    714    743   5     0.00000     0.00000     1.25520  0.0
    740    713    714    715   5     0.00000     0.00000     1.25520  0.0
    740    713    714    742   5     0.00000     0.00000     1.25520  0.0
    740    713    714    743   5     0.00000     0.00000     1.25520  0.0
    741    713    714    715   5     0.00000     0.00000     1.25520  0.0
    741    713    714    742   5     0.00000     0.00000     1.25520  0.0
    741    713    714    743   5     0.00000     0.00000     1.25520  0.0
    713    714    715    716   5     4.74884    -0.63178     1.67360  0.0
    713    714    715    744   5     0.00000     0.00000     1.25520  0.0
    713    714    715    745   5     0.00000     0.00000     1.25520  0.0
    742    714    715    716   5     0.00000     0.00000     1.25520  0.0
    742    714    715    744   5     0.00000     0.00000     1.25520  0.0
    742    714    715    745   5     0.00000     0.00000     1.25520  0.0
    743    714    715    716   5     0.00000     0.00000     1.25520  0.0
    743    714    715    744   5     0.00000     0.00000     1.25520  0.0
    743    714    715    745   5     0.00000     0.00000     1.25520  0.0
    714    715    716    717   5     4.74884    -0.63178     1.67360  0.0
    714    715    716    746   5     0.00000     0.00000     1.25520  0.0
    714    715    716    747   5     0.00000     0.00000     1.25520  0.0
    744    715    716    717   5     0.00000     0.00000     1.25520  0.0
    744    715    716    746   5     0.00000     0.00000     1.25520  0.0
    744    715    716    747   5     0.00000     0.00000     1.25520  0.0
    745    715    716    717   5     0.00000     0.00000     1.25520  0.0
    745    715    716    746   5     0.00000     0.00000     1.25520  0.0
    745    715    716    747   5     0.00000     0.00000     1.25520  0.0
    715    716    717    718   5     5.25092    -2.58990     2.28446  0.0
    715    716    717    748   5     0.00000     0.00000     1.25520  0.0
    715    716    717    749   5     0.00000     0.00000     1.25520  0.0
    746    716    717    718   5     0.00000     0.00000     1.95811  0.0
    746    716    717    748   5     0.00000     0.00000     1.25520  0.0
    746    716    717    749   5     0.00000     0.00000     1.25520  0.0
    747    716    717    718   5     0.00000     0.00000     1.95811  0.0
    747    716    717    748   5     0.00000     0.00000     1.25520  0.0
    747    716    717    749   5     0.00000     0.00000     1.25520  0.0
    716    717    718    719   5    -2.16731    -3.93296     0.98324  0.0
    748    717    718    719   5     0.00000     0.00000     0.67362  0.0
    749    717    718    719   5     0.00000     0.00000     0.67362  0.0
    717    718    719    720   5     0.00000    25.10400     0.00000  0.0
    717    718    719    721   5     5.01662    27.18345     0.00000  0.0
    718    719    721    722   5     0.00000     8.26340     0.00000  0.0
    718    719    721    729   5     0.00000     8.26340     0.00000  0.0
    720    719    721    722   5     0.00000     8.78640     0.00000  0.0
    720    719    721    729   5     0.00000     8.78640     0.00000  0.0
    719    721    722    723   5     0.00000    30.33400     0.00000  0.0
    719    721    722    750   5     0.00000    30.33400     0.00000  0.0
    729    721    722    723   5     0.00000    30.33400     0.00000  0.0
    729    721    722    750   5     0.00000    30.33400     0.00000  0.0
    719    721    729    728   5     0.00000    30.33400     0.00000  0.0
    719    721    729    753   5     0.00000    30.33400     0.00000  0.0
    722    721    729    728   5     0.00000    30.33400     0.00000  0.0
    722    721    729    753   5     0.00000    30.33400     0.00000  0.0
    721    722    723    724   5     0.00000    30.33400     0.00000  0.0
    721    722    723    751   5     0.00000    30.33400     0.00000  0.0
    750    722    723    724   5     0.00000    30.33400     0.00000  0.0
    750    722    723    751   5     0.00000    30.33400     0.00000  0.0
    722    723    724    725   5     0.00000    30.33400     0.00000  0.0
    722    723    724    728   5     0.00000    30.33400     0.00000  0.0
    751    723    724    725   5     0.00000    30.33400     0.00000  0.0
    751    723    724    728   5     0.00000    30.33400     0.00000  0.0
    723    724    725    726   5     0.00000     8.78640     0.00000  0.0
    723    724    725    727   5     0.00000     8.26340     0.00000  0.0
    728    724    725    726   5     0.00000     8.78640     0.00000  0.0
    728    724    725    727   5     0.00000     8.26340     0.00000  0.0
    723    724    728    729   5     0.00000    30.33400     0.00000  0.0
    723    724    728    752   5     0.00000    30.33400     0.00000  0.0
    725    724    728    729   5     0.00000    30.33400     0.00000  0.0
    725    724    728    752   5     0.00000    30.33400     0.00000  0.0
    724    725    727    754   5     0.00000    16.73600     0.00000  0.0
    726    725    727    754   5     0.00000    25.10400     0.00000  0.0
    725    727    754    755   5     0.00000   -20.92000     0.00000  0.0
    724    728    729    721   5     0.00000    30.33400     0.00000  0.0
    724    728    729    753   5     0.00000    30.33400     0.00000  0.0
    752    728    729    721   5     0.00000    30.33400     0.00000  0.0
    752    728    729    753   5     0.00000    30.33400     0.00000  0.0
    727    754    755    756   5     0.00000     0.00000     3.13800  0.0
    727    754    755    777   5     0.00000     0.00000     3.13800  0.0
    727    754    755    778   5     0.00000     0.00000     3.13800  0.0
    754    755    756    757   5     5.25092    -2.58990     2.28446  0.0
    754    755    756    779   5     0.00000     0.00000     1.95811  0.0
    754    755    756    780   5     0.00000     0.00000     1.95811  0.0
    777    755    756    757   5     0.00000     0.00000     1.25520  0.0
    777    755    756    779   5     0.00000     0.00000     1.25520  0.0
    777    755    756    780   5     0.00000     0.00000     1.25520  0.0
    778    755    756    757   5     0.00000     0.00000     1.25520  0.0
    778    755    756    779   5     0.00000     0.00000     1.25520  0.0
    778    755    756    780   5     0.00000     0.00000     1.25520  0.0
    755    756    757    758   5     4.74884    -0.63178     1.67360  0.0
    755    756    757    781   5     0.00000     0.00000     1.25520  0.0
    755    756    757    782   5     0.00000     0.00000     1.25520  0.0
    779    756    757    758   5     0.00000     0.00000     1.25520  0.0
    779    756    757    781   5     0.00000     0.00000     1.25520  0.0
    779    756    757    782   5     0.00000     0.00000     1.25520  0.0
    780    756    757    758   5     0.00000     0.00000     1.25520  0.0
    780    756    757    781   5     0.00000     0.00000     1.25520  0.0
    780    756    757    782   5     0.00000     0.00000     1.25520  0.0
    756    757    758    759   5     4.74884    -0.63178     1.67360  0.0
    756    757    758    783   5     0.00000     0.00000     1.25520  0.0
    756    757    758    784   5     0.00000     0.00000     1.25520  0.0
    781    757    758    759   5     0.00000     0.00000     1.25520  0.0
    781    757    758    783   5     0.00000     0.00000     1.25520  0.0
    781    757    758    784   5     0.00000     0.00000     1.25520  0.0
    782    757    758    759   5     0.00000     0.00000     1.25520  0.0
    782    757    758    783   5     0.00000     0.00000     1.25520  0.0
    782    757    758    784   5     0.00000     0.00000     1.25520  0.0
    757    758    759    760   5     4.74884    -0.63178     1.67360  0.0
    757    758    759    785   5     0.00000     0.00000     1.25520  0.0
    757    758    759    786   5     0.00000     0.00000     1.25520  0.0
    783    758    759    760   5     0.00000     0.00000     1.25520  0.0
    783    758    759    785   5     0.00000     0.00000     1.25520  0.0
    783    758    759    786   5     0.00000     0.00000     1.25520  0.0
    784    758    759    760   5     0.00000     0.00000     1.25520  0.0
    784    758    759    785   5     0.00000     0.00000     1.25520  0.0
    784    758    759    786   5     0.00000     0.00000     1.25520  0.0
    758    759    760    761   5     4.74884    -0.63178     1.67360  0.0
    758    759    760    787   5     0.00000     0.00000     1.25520  0.0
    758    759    760    788   5     0.00000     0.00000     1.25520  0.0
    785    759    760    761   5     0.00000     0.00000     1.25520  0.0
    785    759    760    787   5     0.00000     0.00000     1.25520  0.0
    785    759    760    788   5     0.00000     0.00000     1.25520  0.0
    786    759    760    761   5     0.00000     0.00000     1.25520  0.0
    786    759    760    787   5     0.00000     0.00000     1.25520  0.0
    786    759    760    788   5     0.00000     0.00000     1.25520  0.0
    759    760    761    762   5     4.74884    -0.63178     1.67360  0.0
    759    760    761    789   5     0.00000     0.00000     1.25520  0.0
    759    760    761    790   5     0.00000     0.00000     1.25520  0.0
    787    760    761    762   5     0.00000     0.00000     1.25520  0.0
    787    760    761    789   5     0.00000     0.00000     1.25520  0.0
    787    760    761    790   5     0.00000     0.00000     1.25520  0.0
    788    760    761    762   5     0.00000     0.00000     1.25520  0.0
    788    760    761    789   5     0.00000     0.00000     1.25520  0.0
    788    760    761    790   5     0.00000     0.00000     1.25520  0.0
    760    761    762    763   5     4.74884    -0.63178     1.67360  0.0
    760    761    762    791   5     0.00000     0.00000     1.25520  0.0
    760    761    762    792   5     0.00000     0.00000     1.25520  0.0
    789    761    762    763   5     0.00000     0.00000     1.25520  0.0
    789    761    762    791   5     0.00000     0.00000     1.25520  0.0
    789    761    762    792   5     0.00000     0.00000     1.25520  0.0
    790    761    762    763   5     0.00000     0.00000     1.25520  0.0
    790    761    762    791   5     0.00000     0.00000     1.25520  0.0
    790    761    762    792   5     0.00000     0.00000     1.25520  0.0
    761    762    763    764   5     4.74884    -0.63178     1.67360  0.0
    761    762    763    793   5     0.00000     0.00000     1.25520  0.0
    761    762    763    794   5     0.00000     0.00000     1.25520  0.0
    791    762    763    764   5     0.00000     0.00000     1.25520  0.0
    791    762    763    793   5     0.00000     0.00000     1.25520  0.0
    791    762    763    794   5     0.00000     0.00000     1.25520  0.0
    792    762    763    764   5     0.00000     0.00000     1.25520  0.0
    792    762    763    793   5     0.00000     0.00000     1.25520  0.0
    792    762    763    794   5     0.00000     0.00000     1.25520  0.0
    762    763    764    765   5     5.25092    -2.58990     2.28446  0.0
    762    763    764    795   5     0.00000     0.00000     1.25520  0.0
    762    763    764    796   5     0.00000     0.00000     1.25520  0.0
    793    763    764    765   5     0.00000     0.00000     1.95811  0.0
    793    763    764    795   5     0.00000     0.00000     1.25520  0.0
    793    763    764    796   5     0.00000     0.00000     1.25520  0.0
    794    763    764    765   5     0.00000     0.00000     1.95811  0.0
    794    763    764    795   5     0.00000     0.00000     1.25520  0.0
    794    763    764    796   5     0.00000     0.00000     1.25520  0.0
    763    764    765    766   5    -2.16731    -3.93296     0.98324  0.0
    795    764    765    766   5     0.00000     0.00000     0.67362  0.0
    796    764    765    766   5     0.00000     0.00000     0.67362  0.0
    764    765    766    767   5     0.00000    25.10400     0.00000  0.0
    764    765    766    768   5     5.01662    27.18345     0.00000  0.0
    765    766    768    769   5     0.00000     8.26340     0.00000  0.0
    765    766    768    776   5     0.00000     8.26340     0.00000  0.0
    767    766    768    769   5     0.00000     8.78640     0.00000  0.0
    767    766    768    776   5     0.00000     8.78640     0.00000  0.0
    766    768    769    770   5     0.00000    30.33400     0.00000  0.0
    766    768    769    797   5     0.00000    30.33400     0.00000  0.0
    776    768    769    770   5     0.00000    30.33400     0.00000  0.0
    776    768    769    797   5     0.00000    30.33400     0.00000  0.0
    766    768    776    775   5     0.00000    30.33400     0.00000  0.0
    766    768    776    800   5     0.00000    30.33400     0.00000  0.0
    769    768    776    775   5     0.00000    30.33400     0.00000  0.0
    769    768    776    800   5     0.00000    30.33400     0.00000  0.0
    768    769    770    771   5     0.00000    30.33400     0.00000  0.0
    768    769    770    798   5     0.00000    30.33400     0.00000  0.0
    797    769    770    771   5     0.00000    30.33400     0.00000  0.0
    797    769    770    798   5     0.00000    30.33400     0.00000  0.0
    769    770    771    772   5     0.00000    30.33400     0.00000  0.0
    769    770    771    775   5     0.00000    30.33400     0.00000  0.0
    798    770    771    772   5     0.00000    30.33400     0.00000  0.0
    798    770    771    775   5     0.00000    30.33400     0.00000  0.0
    770    771    772    773   5     0.00000     8.78640     0.00000  0.0
    770    771    772    774   5     0.00000     8.26340     0.00000  0.0
    775    771    772    773   5     0.00000     8.78640     0.00000  0.0
    775    771    772    774   5     0.00000     8.26340     0.00000  0.0
    770    771    775    776   5     0.00000    30.33400     0.00000  0.0
    770    771    775    799   5     0.00000    30.33400     0.00000  0.0
    772    771    775    776   5     0.00000    30.33400     0.00000  0.0
    772    771    775    799   5     0.00000    30.33400     0.00000  0.0
    771    772    774    801   5     0.00000    16.73600     0.00000  0.0
    773    772    774    801   5     0.00000    25.10400     0.00000  0.0
    772    774    801    802   5     0.00000   -20.92000     0.00000  0.0
    771    775    776    768   5     0.00000    30.33400     0.00000  0.0
    771    775    776    800   5     0.00000    30.33400     0.00000  0.0
    799    775    776    768   5     0.00000    30.33400     0.00000  0.0
    799    775    776    800   5     0.00000    30.33400     0.00000  0.0
    774    801    802    803   5     0.00000     0.00000     3.13800  0.0
    774    801    802    824   5     0.00000     0.00000     3.13800  0.0
    774    801    802    825   5     0.00000     0.00000     3.13800  0.0
    801    802    803    804   5     5.25092    -2.58990     2.28446  0.0
    801    802    803    826   5     0.00000     0.00000     1.95811  0.0
    801    802    803    827   5     0.00000     0.00000     1.95811  0.0
    824    802    803    804   5     0.00000     0.00000     1.25520  0.0
    824    802    803    826   5     0.00000     0.00000     1.25520  0.0
    824    802    803    827   5     0.00000     0.00000     1.25520  0.0
    825    802    803    804   5     0.00000     0.00000     1.25520  0.0
    825    802    803    826   5     0.00000     0.00000     1.25520  0.0
    825    802    803    827   5     0.00000     0.00000     1.25520  0.0
    802    803    804    805   5     4.74884    -0.63178     1.67360  0.0
    802    803    804    828   5     0.00000     0.00000     1.25520  0.0
    802    803    804    829   5     0.00000     0.00000     1.25520  0.0
    826    803    804    805   5     0.00000     0.00000     1.25520  0.0
    826    803    804    828   5     0.00000     0.00000     1.25520  0.0
    826    803    804    829   5     0.00000     0.00000     1.25520  0.0
    827    803    804    805   5     0.00000     0.00000     1.25520  0.0
    827    803    804    828   5     0.00000     0.00000     1.25520  0.0
    827    803    804    829   5     0.00000     0.00000     1.25520  0.0
    803    804    805    806   5     4.74884    -0.63178     1.67360  0.0
    803    804    805    830   5     0.00000     0.00000     1.25520  0.0
    803    804    805    831   5     0.00000     0.00000     1.25520  0.0
    828    804    805    806   5     0.00000     0.00000     1.25520  0.0
    828    804    805    830   5     0.00000     0.00000     1.25520  0.0
    828    804    805    831   5     0.00000     0.00000     1.25520  0.0
    829    804    805    806   5     0.00000     0.00000     1.25520  0.0
    829    804    805    830   5     0.00000     0.00000     1.25520  0.0
    829    804    805    831   5     0.00000     0.00000     1.25520  0.0
    804    805    806    807   5     4.74884    -0.63178     1.67360  0.0
    804    805    806    832   5     0.00000     0.00000     1.25520  0.0
    804    805    806    833   5     0.00000     0.00000     1.25520  0.0
    830    805    806    807   5     0.00000     0.00000     1.25520  0.0
    830    805    806    832   5     0.00000     0.00000     1.25520  0.0
    830    805    806    833   5     0.00000     0.00000     1.25520  0.0
    831    805    806    807   5     0.00000     0.00000     1.25520  0.0
    831    805    806    832   5     0.00000     0.00000     1.25520  0.0
    831    805    806    833   5     0.00000     0.00000     1.25520  0.0
    805    806    807    808   5     4.74884    -0.63178     1.67360  0.0
    805    806    807    834   5     0.00000     0.00000     1.25520  0.0
    805    806    807    835   5     0.00000     0.00000     1.25520  0.0
    832    806    807    808   5     0.00000     0.00000     1.25520  0.0
    832    806    807    834   5     0.00000     0.00000     1.25520  0.0
    832    806    807    835   5     0.00000     0.00000     1.25520  0.0
    833    806    807    808   5     0.00000     0.00000     1.25520  0.0
    833    806    807    834   5     0.00000     0.00000     1.25520  0.0
    833    806    807    835   5     0.00000     0.00000     1.25520  0.0
    806    807    808    809   5     4.74884    -0.63178     1.67360  0.0
    806    807    808    836   5     0.00000     0.00000     1.25520  0.0
    806    807    808    837   5     0.00000     0.00000     1.25520  0.0
    834    807    808    809   5     0.00000     0.00000     1.25520  0.0
    834    807    808    836   5     0.00000     0.00000     1.25520  0.0
    834    807    808    837   5     0.00000     0.00000     1.25520  0.0
    835    807    808    809   5     0.00000     0.00000     1.25520  0.0
    835    807    808    836   5     0.00000     0.00000     1.25520  0.0
    835    807    808    837   5     0.00000     0.00000     1.25520  0.0
    807    808    809    810   5     4.74884    -0.63178     1.67360  0.0
    807    808    809    838   5     0.00000     0.00000     1.25520  0.0
    807    808    809    839   5     0.00000     0.00000     1.25520  0.0
    836    808    809    810   5     0.00000     0.00000     1.25520  0.0
    836    808    809    838   5     0.00000     0.00000     1.25520  0.0
    836    808    809    839   5     0.00000     0.00000     1.25520  0.0
    837    808    809    810   5     0.00000     0.00000     1.25520  0.0
    837    808    809    838   5     0.00000     0.00000     1.25520  0.0
    837    808    809    839   5     0.00000     0.00000     1.25520  0.0
    808    809    810    811   5     4.74884    -0.63178     1.67360  0.0
    808    809    810    840   5     0.00000     0.00000     1.25520  0.0
    808    809    810    841   5     0.00000     0.00000     1.25520  0.0
    838    809    810    811   5     0.00000     0.00000     1.25520  0.0
    838    809    810    840   5     0.00000     0.00000     1.25520  0.0
    838    809    810    841   5     0.00000     0.00000     1.25520  0.0
    839    809    810    811   5     0.00000     0.00000     1.25520  0.0
    839    809    810    840   5     0.00000     0.00000     1.25520  0.0
    839    809    810    841   5     0.00000     0.00000     1.25520  0.0
    809    810    811    812   5     5.25092    -2.58990     2.28446  0.0
    809    810    811    842   5     0.00000     0.00000     1.25520  0.0
    809    810    811    843   5     0.00000     0.00000     1.25520  0.0
    840    810    811    812   5     0.00000     0.00000     1.95811  0.0
    840    810    811    842   5     0.00000     0.00000     1.25520  0.0
    840    810    811    843   5     0.00000     0.00000     1.25520  0.0
    841    810    811    812   5     0.00000     0.00000     1.95811  0.0
    841    810    811    842   5     0.00000     0.00000     1.25520  0.0
    841    810    811    843   5     0.00000     0.00000     1.25520  0.0
    810    811    812    813   5    -2.16731    -3.93296     0.98324  0.0
    842    811    812    813   5     0.00000     0.00000     0.67362  0.0
    843    811    812    813   5     0.00000     0.00000     0.67362  0.0
    811    812    813    814   5     0.00000    25.10400     0.00000  0.0
    811    812    813    815   5     5.01662    27.18345     0.00000  0.0
    812    813    815    816   5     0.00000     8.26340     0.00000  0.0
    812    813    815    823   5     0.00000     8.26340     0.00000  0.0
    814    813    815    816   5     0.00000     8.78640     0.00000  0.0
    814    813    815    823   5     0.00000     8.78640     0.00000  0.0
    813    815    816    817   5     0.00000    30.33400     0.00000  0.0
    813    815    816    844   5     0.00000    30.33400     0.00000  0.0
    823    815    816    817   5     0.00000    30.33400     0.00000  0.0
    823    815    816    844   5     0.00000    30.33400     0.00000  0.0
    813    815    823    822   5     0.00000    30.33400     0.00000  0.0
    813    815    823    847   5     0.00000    30.33400     0.00000  0.0
    816    815    823    822   5     0.00000    30.33400     0.00000  0.0
    816    815    823    847   5     0.00000    30.33400     0.00000  0.0
    815    816    817    818   5     0.00000    30.33400     0.00000  0.0
    815    816    817    845   5     0.00000    30.33400     0.00000  0.0
    844    816    817    818   5     0.00000    30.33400     0.00000  0.0
    844    816    817    845   5     0.00000    30.33400     0.00000  0.0
    816    817    818    819   5     0.00000    30.33400     0.00000  0.0
    816    817    818    822   5     0.00000    30.33400     0.00000  0.0
    845    817    818    819   5     0.00000    30.33400     0.00000  0.0
    845    817    818    822   5     0.00000    30.33400     0.00000  0.0
    817    818    819    820   5     0.00000     8.78640     0.00000  0.0
    817    818    819    821   5     0.00000     8.26340     0.00000  0.0
    822    818    819    820   5     0.00000     8.78640     0.00000  0.0
    822    818    819    821   5     0.00000     8.26340     0.00000  0.0
    817    818    822    823   5     0.00000    30.33400     0.00000  0.0
    817    818    822    846   5     0.00000    30.33400     0.00000  0.0
    819    818    822    823   5     0.00000    30.33400     0.00000  0.0
    819    818    822    846   5     0.00000    30.33400     0.00000  0.0
    818    819    821    848   5     0.00000    16.73600     0.00000  0.0
    820    819    821    848   5     0.00000    25.10400     0.00000  0.0
    819    821    848    849   5     0.00000   -20.92000     0.00000  0.0
    818    822    823    815   5     0.00000    30.33400     0.00000  0.0
    818    822    823    847   5     0.00000    30.33400     0.00000  0.0
    846    822    823    815   5     0.00000    30.33400     0.00000  0.0
    846    822    823    847   5     0.00000    30.33400     0.00000  0.0
    821    848    849    850   5     0.00000     0.00000     3.13800  0.0
    821    848    849    871   5     0.00000     0.00000     3.13800  0.0
    821    848    849    872   5     0.00000     0.00000     3.13800  0.0
    848    849    850    851   5     5.25092    -2.58990     2.28446  0.0
    848    849    850    873   5     0.00000     0.00000     1.95811  0.0
    848    849    850    874   5     0.00000     0.00000     1.95811  0.0
    871    849    850    851   5     0.00000     0.00000     1.25520  0.0
    871    849    850    873   5     0.00000     0.00000     1.25520  0.0
    871    849    850    874   5     0.00000     0.00000     1.25520  0.0
    872    849    850    851   5     0.00000     0.00000     1.25520  0.0
    872    849    850    873   5     0.00000     0.00000     1.25520  0.0
    872    849    850    874   5     0.00000     0.00000     1.25520  0.0
    849    850    851    852   5     4.74884    -0.63178     1.67360  0.0
    849    850    851    875   5     0.00000     0.00000     1.25520  0.0
    849    850    851    876   5     0.00000     0.00000     1.25520  0.0
    873    850    851    852   5     0.00000     0.00000     1.25520  0.0
    873    850    851    875   5     0.00000     0.00000     1.25520  0.0
    873    850    851    876   5     0.00000     0.00000     1.25520  0.0
    874    850    851    852   5     0.00000     0.00000     1.25520  0.0
    874    850    851    875   5     0.00000     0.00000     1.25520  0.0
    874    850    851    876   5     0.00000     0.00000     1.25520  0.0
    850    851    852    853   5     4.74884    -0.63178     1.67360  0.0
    850    851    852    877   5     0.00000     0.00000     1.25520  0.0
    850    851    852    878   5     0.00000     0.00000     1.25520  0.0
    875    851    852    853   5     0.00000     0.00000     1.25520  0.0
    875    851    852    877   5     0.00000     0.00000     1.25520  0.0
    875    851    852    878   5     0.00000     0.00000     1.25520  0.0
    876    851    852    853   5     0.00000     0.00000     1.25520  0.0
    876    851    852    877   5     0.00000     0.00000     1.25520  0.0
    876    851    852    878   5     0.00000     0.00000     1.25520  0.0
    851    852    853    854   5     4.74884    -0.63178     1.67360  0.0
    851    852    853    879   5     0.00000     0.00000     1.25520  0.0
    851    852    853    880   5     0.00000     0.00000     1.25520  0.0
    877    852    853    854   5     0.00000     0.00000     1.25520  0.0
    877    852    853    879   5     0.00000     0.00000     1.25520  0.0
    877    852    853    880   5     0.00000     0.00000     1.25520  0.0
    878    852    853    854   5     0.00000     0.00000     1.25520  0.0
    878    852    853    879   5     0.00000     0.00000     1.25520  0.0
    878    852    853    880   5     0.00000     0.00000     1.25520  0.0
    852    853    854    855   5     4.74884    -0.63178     1.67360  0.0
    852    853    854    881   5     0.00000     0.00000     1.25520  0.0
    852    853    854    882   5     0.00000     0.00000     1.25520  0.0
    879    853    854    855   5     0.00000     0.00000     1.25520  0.0
    879    853    854    881   5     0.00000     0.00000     1.25520  0.0
    879    853    854    882   5     0.00000     0.00000     1.25520  0.0
    880    853    854    855   5     0.00000     0.00000     1.25520  0.0
    880    853    854    881   5     0.00000     0.00000     1.25520  0.0
    880    853    854    882   5     0.00000     0.00000     1.25520  0.0
    853    854    855    856   5     4.74884    -0.63178     1.67360  0.0
    853    854    855    883   5     0.00000     0.00000     1.25520  0.0
    853    854    855    884   5     0.00000     0.00000     1.25520  0.0
    881    854    855    856   5     0.00000     0.00000     1.25520  0.0
    881    854    855    883   5     0.00000     0.00000     1.25520  0.0
    881    854    855    884   5     0.00000     0.00000     1.25520  0.0
    882    854    855    856   5     0.00000     0.00000     1.25520  0.0
    882    854    855    883   5     0.00000     0.00000     1.25520  0.0
    882    854    855    884   5     0.00000     0.00000     1.25520  0.0
    854    855    856    857   5     4.74884    -0.63178     1.67360  0.0
    854    855    856    885   5     0.00000     0.00000     1.25520  0.0
    854    855    856    886   5     0.00000     0.00000     1.25520  0.0
    883    855    856    857   5     0.00000     0.00000     1.25520  0.0
    883    855    856    885   5     0.00000     0.00000     1.25520  0.0
    883    855    856    886   5     0.00000     0.00000     1.25520  0.0
    884    855    856    857   5     0.00000     0.00000     1.25520  0.0
    884    855    856    885   5     0.00000     0.00000     1.25520  0.0
    884    855    856    886   5     0.00000     0.00000     1.25520  0.0
    855    856    857    858   5     4.74884    -0.63178     1.67360  0.0
    855    856    857    887   5     0.00000     0.00000     1.25520  0.0
    855    856    857    888   5     0.00000     0.00000     1.25520  0.0
    885    856    857    858   5     0.00000     0.00000     1.25520  0.0
    885    856    857    887   5     0.00000     0.00000     1.25520  0.0
    885    856    857    888   5     0.00000     0.00000     1.25520  0.0
    886    856    857    858   5     0.00000     0.00000     1.25520  0.0
    886    856    857    887   5     0.00000     0.00000     1.25520  0.0
    886    856    857    888   5     0.00000     0.00000     1.25520  0.0
    856    857    858    859   5     5.25092    -2.58990     2.28446  0.0
    856    857    858    889   5     0.00000     0.00000     1.25520  0.0
    856    857    858    890   5     0.00000     0.00000     1.25520  0.0
    887    857    858    859   5     0.00000     0.00000     1.95811  0.0
    887    857    858    889   5     0.00000     0.00000     1.25520  0.0
    887    857    858    890   5     0.00000     0.00000     1.25520  0.0
    888    857    858    859   5     0.00000     0.00000     1.95811  0.0
    888    857    858    889   5     0.00000     0.00000     1.25520  0.0
    888    857    858    890   5     0.00000     0.00000     1.25520  0.0
    857    858    859    860   5    -2.16731    -3.93296     0.98324  0.0
    889    858    859    860   5     0.00000     0.00000     0.67362  0.0
    890    858    859    860   5     0.00000     0.00000     0.67362  0.0
    858    859    860    861   5     0.00000    25.10400     0.00000  0.0
    858    859    860    862   5     5.01662    27.18345     0.00000  0.0
    859    860    862    863   5     0.00000     8.26340     0.00000  0.0
    859    860    862    870   5     0.00000     8.26340     0.00000  0.0
    861    860    862    863   5     0.00000     8.78640     0.00000  0.0
    861    860    862    870   5     0.00000     8.78640     0.00000  0.0
    860    862    863    864   5     0.00000    30.33400     0.00000  0.0
    860    862    863    891   5     0.00000    30.33400     0.00000  0.0
    870    862    863    864   5     0.00000    30.33400     0.00000  0.0
    870    862    863    891   5     0.00000    30.33400     0.00000  0.0
    860    862    870    869   5     0.00000    30.33400     0.00000  0.0
    860    862    870    894   5     0.00000    30.33400     0.00000  0.0
    863    862    870    869   5     0.00000    30.33400     0.00000  0.0
    863    862    870    894   5     0.00000    30.33400     0.00000  0.0
    862    863    864    865   5     0.00000    30.33400     0.00000  0.0
    862    863    864    892   5     0.00000    30.33400     0.00000  0.0
    891    863    864    865   5     0.00000    30.33400     0.00000  0.0
    891    863    864    892   5     0.00000    30.33400     0.00000  0.0
    863    864    865    866   5     0.00000    30.33400     0.00000  0.0
    863    864    865    869   5     0.00000    30.33400     0.00000  0.0
    892    864    865    866   5     0.00000    30.33400     0.00000  0.0
    892    864    865    869   5     0.00000    30.33400     0.00000  0.0
    864    865    866    867   5     0.00000     8.78640     0.00000  0.0
    864    865    866    868   5     0.00000     8.26340     0.00000  0.0
    869    865    866    867   5     0.00000     8.78640     0.00000  0.0
    869    865    866    868   5     0.00000     8.26340     0.00000  0.0
    864    865    869    870   5     0.00000    30.33400     0.00000  0.0
    864    865    869    893   5     0.00000    30.33400     0.00000  0.0
    866    865    869    870   5     0.00000    30.33400     0.00000  0.0
    866    865    869    893   5     0.00000    30.33400     0.00000  0.0
    865    866    868    895   5     0.00000    16.73600     0.00000  0.0
    867    866    868    895   5     0.00000    25.10400     0.00000  0.0
    866    868    895    896   5     0.00000   -20.92000     0.00000  0.0
    865    869    870    862   5     0.00000    30.33400     0.00000  0.0
    865    869    870    894   5     0.00000    30.33400     0.00000  0.0
    893    869    870    862   5     0.00000    30.33400     0.00000  0.0
    893    869    870    894   5     0.00000    30.33400     0.00000  0.0
    868    895    896    897   5     0.00000     0.00000     3.13800  0.0
    868    895    896    918   5     0.00000     0.00000     3.13800  0.0
    868    895    896    919   5     0.00000     0.00000     3.13800  0.0
    895    896    897    898   5     5.25092    -2.58990     2.28446  0.0
    895    896    897    920   5     0.00000     0.00000     1.95811  0.0
    895    896    897    921   5     0.00000     0.00000     1.95811  0.0
    918    896    897    898   5     0.00000     0.00000     1.25520  0.0
    918    896    897    920   5     0.00000     0.00000     1.25520  0.0
    918    896    897    921   5     0.00000     0.00000     1.25520  0.0
    919    896    897    898   5     0.00000     0.00000     1.25520  0.0
    919    896    897    920   5     0.00000     0.00000     1.25520  0.0
    919    896    897    921   5     0.00000     0.00000     1.25520  0.0
    896    897    898    899   5     4.74884    -0.63178     1.67360  0.0
    896    897    898    922   5     0.00000     0.00000     1.25520  0.0
    896    897    898    923   5     0.00000     0.00000     1.25520  0.0
    920    897    898    899   5     0.00000     0.00000     1.25520  0.0
    920    897    898    922   5     0.00000     0.00000     1.25520  0.0
    920    897    898    923   5     0.00000     0.00000     1.25520  0.0
    921    897    898    899   5     0.00000     0.00000     1.25520  0.0
    921    897    898    922   5     0.00000     0.00000     1.25520  0.0
    921    897    898    923   5     0.00000     0.00000     1.25520  0.0
    897    898    899    900   5     4.74884    -0.63178     1.67360  0.0
    897    898    899    924   5     0.00000     0.00000     1.25520  0.0
    897    898    899    925   5     0.00000     0.00000     1.25520  0.0
    922    898    899    900   5     0.00000     0.00000     1.25520  0.0
    922    898    899    924   5     0.00000     0.00000     1.25520  0.0
    922    898    899    925   5     0.00000     0.00000     1.25520  0.0
    923    898    899    900   5     0.00000     0.00000     1.25520  0.0
    923    898    899    924   5     0.00000     0.00000     1.25520  0.0
    923    898    899    925   5     0.00000     0.00000     1.25520  0.0
    898    899    900    901   5     4.74884    -0.63178     1.67360  0.0
    898    899    900    926   5     0.00000     0.00000     1.25520  0.0
    898    899    900    927   5     0.00000     0.00000     1.25520  0.0
    924    899    900    901   5     0.00000     0.00000     1.25520  0.0
    924    899    900    926   5     0.00000     0.00000     1.25520  0.0
    924    899    900    927   5     0.00000     0.00000     1.25520  0.0
    925    899    900    901   5     0.00000     0.00000     1.25520  0.0
    925    899    900    926   5     0.00000     0.00000     1.25520  0.0
    925    899    900    927   5     0.00000     0.00000     1.25520  0.0
    899    900    901    902   5     4.74884    -0.63178     1.67360  0.0
    899    900    901    928   5     0.00000     0.00000     1.25520  0.0
    899    900    901    929   5     0.00000     0.00000     1.25520  0.0
    926    900    901    902   5     0.00000     0.00000     1.25520  0.0
    926    900    901    928   5     0.00000     0.00000     1.25520  0.0
    926    900    901    929   5     0.00000     0.00000     1.25520  0.0
    927    900    901    902   5     0.00000     0.00000     1.25520  0.0
    927    900    901    928   5     0.00000     0.00000     1.25520  0.0
    927    900    901    929   5     0.00000     0.00000     1.25520  0.0
    900    901    902    903   5     4.74884    -0.63178     1.67360  0.0
    900    901    902    930   5     0.00000     0.00000     1.25520  0.0
    900    901    902    931   5     0.00000     0.00000     1.25520  0.0
    928    901    902    903   5     0.00000     0.00000     1.25520  0.0
    928    901    902    930   5     0.00000     0.00000     1.25520  0.0
    928    901    902    931   5     0.00000     0.00000     1.25520  0.0
    929    901    902    903   5     0.00000     0.00000     1.25520  0.0
    929    901    902    930   5     0.00000     0.00000     1.25520  0.0
    929    901    902    931   5     0.00000     0.00000     1.25520  0.0
    901    902    903    904   5     4.74884    -0.63178     1.67360  0.0
    901    902    903    932   5     0.00000     0.00000     1.25520  0.0
    901    902    903    933   5     0.00000     0.00000     1.25520  0.0
    930    902    903    904   5     0.00000     0.00000     1.25520  0.0
    930    902    903    932   5     0.00000     0.00000     1.25520  0.0
    930    902    903    933   5     0.00000     0.00000     1.25520  0.0
    931    902    903    904   5     0.00000     0.00000     1.25520  0.0
    931    902    903    932   5     0.00000     0.00000     1.25520  0.0
    931    902    903    933   5     0.00000     0.00000     1.25520  0.0
    902    903    904    905   5     4.74884    -0.63178     1.67360  0.0
    902    903    904    934   5     0.00000     0.00000     1.25520  0.0
    902    903    904    935   5     0.00000     0.00000     1.25520  0.0
    932    903    904    905   5     0.00000     0.00000     1.25520  0.0
    932    903    904    934   5     0.00000     0.00000     1.25520  0.0
    932    903    904    935   5     0.00000     0.00000     1.25520  0.0
    933    903    904    905   5     0.00000     0.00000     1.25520  0.0
    933    903    904    934   5     0.00000     0.00000     1.25520  0.0
    933    903    904    935   5     0.00000     0.00000     1.25520  0.0
    903    904    905    906   5     5.25092    -2.58990     2.28446  0.0
    903    904    905    936   5     0.00000     0.00000     1.25520  0.0
    903    904    905    937   5     0.00000     0.00000     1.25520  0.0
    934    904    905    906   5     0.00000     0.00000     1.95811  0.0
    934    904    905    936   5     0.00000     0.00000     1.25520  0.0
    934    904    905    937   5     0.00000     0.00000     1.25520  0.0
    935    904    905    906   5     0.00000     0.00000     1.95811  0.0
    935    904    905    936   5     0.00000     0.00000     1.25520  0.0
    935    904    905    937   5     0.00000     0.00000     1.25520  0.0
    904    905    906    907   5    -2.16731    -3.93296     0.98324  0.0
    936    905    906    907   5     0.00000     0.00000     0.67362  0.0
    937    905    906    907   5     0.00000     0.00000     0.67362  0.0
    905    906    907    908   5     0.00000    25.10400     0.00000  0.0
    905    906    907    909   5     5.01662    27.18345     0.00000  0.0
    906    907    909    910   5     0.00000     8.26340     0.00000  0.0
    906    907    909    917   5     0.00000     8.26340     0.00000  0.0
    908    907    909    910   5     0.00000     8.78640     0.00000  0.0
    908    907    909    917   5     0.00000     8.78640     0.00000  0.0
    907    909    910    911   5     0.00000    30.33400     0.00000  0.0
    907    909    910    938   5     0.00000    30.33400     0.00000  0.0
    917    909    910    911   5     0.00000    30.33400     0.00000  0.0
    917    909    910    938   5     0.00000    30.33400     0.00000  0.0
    907    909    917    916   5     0.00000    30.33400     0.00000  0.0
    907    909    917    941   5     0.00000    30.33400     0.00000  0.0
    910    909    917    916   5     0.00000    30.33400     0.00000  0.0
    910    909    917    941   5     0.00000    30.33400     0.00000  0.0
    909    910    911    912   5     0.00000    30.33400     0.00000  0.0
    909    910    911    939   5     0.00000    30.33400     0.00000  0.0
    938    910    911    912   5     0.00000    30.33400     0.00000  0.0
    938    910    911    939   5     0.00000    30.33400     0.00000  0.0
    910    911    912    913   5     0.00000    30.33400     0.00000  0.0
    910    911    912    916   5     0.00000    30.33400     0.00000  0.0
    939    911    912    913   5     0.00000    30.33400     0.00000  0.0
    939    911    912    916   5     0.00000    30.33400     0.00000  0.0
    911    912    913    914   5     0.00000     8.78640     0.00000  0.0
    911    912    913    915   5     0.00000     3.01248     0.00000  0.0
    916    912    913    914   5     0.00000     8.78640     0.00000  0.0
    916    912    913    915   5     0.00000     3.01248     0.00000  0.0
    911    912    916    917   5     0.00000    30.33400     0.00000  0.0
    911    912    916    940   5     0.00000    30.33400     0.00000  0.0
    913    912    916    917   5     0.00000    30.33400     0.00000  0.0
    913    912    916    940   5     0.00000    30.33400     0.00000  0.0
    912    913    915    942   5    18.89076   -16.12514     0.00000  0.0
    914    913    915    942   5     7.71530    31.30469     0.00000  0.0
    912    916    917    909   5     0.00000    30.33400     0.00000  0.0
    912    916    917    941   5     0.00000    30.33400     0.00000  0.0
    940    916    917    909   5     0.00000    30.33400     0.00000  0.0
    940    916    917    941   5     0.00000    30.33400     0.00000  0.0

[ dihedrals ]
; Improper dihedrals
; h   i   j   k   funct
     12     14     13     15   5     0.00000    87.86400     0.00000  0.0
     13     16     15     23   5     0.00000    33.47200     0.00000  0.0
     15     17     16     44   5     0.00000     9.20480     0.00000  0.0
     16     18     17     45   5     0.00000     9.20480     0.00000  0.0
     17     19     18     22   5     0.00000    33.47200     0.00000  0.0
     18     20     19     21   5     0.00000    87.86400     0.00000  0.0
     18     23     22     46   5     0.00000     9.20480     0.00000  0.0
     15     22     23     47   5     0.00000     9.20480     0.00000  0.0
     60     62     61     63   5     0.00000    87.86400     0.00000  0.0
     61     64     63     71   5     0.00000    33.47200     0.00000  0.0
     63     65     64     92   5     0.00000     9.20480     0.00000  0.0
     64     66     65     93   5     0.00000     9.20480     0.00000  0.0
     65     67     66     70   5     0.00000    33.47200     0.00000  0.0
     66     68     67     69   5     0.00000    87.86400     0.00000  0.0
     66     71     70     94   5     0.00000     9.20480     0.00000  0.0
     63     70     71     95   5     0.00000     9.20480     0.00000  0.0
    107    109    108    110   5     0.00000    87.86400     0.00000  0.0
    108    111    110    118   5     0.00000    33.47200     0.00000  0.0
    110    112    111    139   5     0.00000     9.20480     0.00000  0.0
    111    113    112    140   5     0.00000     9.20480     0.00000  0.0
    112    114    113    117   5     0.00000    33.47200     0.00000  0.0
    113    115    114    116   5     0.00000    87.86400     0.00000  0.0
    113    118    117    141   5     0.00000     9.20480     0.00000  0.0
    110    117    118    142   5     0.00000     9.20480     0.00000  0.0
    154    156    155    157   5     0.00000    87.86400     0.00000  0.0
    155    158    157    165   5     0.00000    33.47200     0.00000  0.0
    157    159    158    186   5     0.00000     9.20480     0.00000  0.0
    158    160    159    187   5     0.00000     9.20480     0.00000  0.0
    159    161    160    164   5     0.00000    33.47200     0.00000  0.0
    160    162    161    163   5     0.00000    87.86400     0.00000  0.0
    160    165    164    188   5     0.00000     9.20480     0.00000  0.0
    157    164    165    189   5     0.00000     9.20480     0.00000  0.0
    201    203    202    204   5     0.00000    87.86400     0.00000  0.0
    202    205    204    212   5     0.00000    33.47200     0.00000  0.0
    204    206    205    233   5     0.00000     9.20480     0.00000  0.0
    205    207    206    234   5     0.00000     9.20480     0.00000  0.0
    206    208    207    211   5     0.00000    33.47200     0.00000  0.0
    207    209    208    210   5     0.00000    87.86400     0.00000  0.0
    207    212    211    235   5     0.00000     9.20480     0.00000  0.0
    204    211    212    236   5     0.00000     9.20480     0.00000  0.0
    248    250    249    251   5     0.00000    87.86400     0.00000  0.0
    249    252    251    259   5     0.00000    33.47200     0.00000  0.0
    251    253    252    280   5     0.00000     9.20480     0.00000  0.0
    252    254    253    281   5     0.00000     9.20480     0.00000  0.0
    253    255    254    258   5     0.00000    33.47200     0.00000  0.0
    254    256    255    257   5     0.00000    87.86400     0.00000  0.0
    254    259    258    282   5     0.00000     9.20480     0.00000  0.0
    251    258    259    283   5     0.00000     9.20480     0.00000  0.0
    295    297    296    298   5     0.00000    87.86400     0.00000  0.0
    296    299    298    306   5     0.00000    33.47200     0.00000  0.0
    298    300    299    327   5     0.00000     9.20480     0.00000  0.0
    299    301    300    328   5     0.00000     9.20480     0.00000  0.0
    300    302    301    305   5     0.00000    33.47200     0.00000  0.0
    301    303    302    304   5     0.00000    87.86400     0.00000  0.0
    301    306    305    329   5     0.00000     9.20480     0.00000  0.0
    298    305    306    330   5     0.00000     9.20480     0.00000  0.0
    342    344    343    345   5     0.00000    87.86400     0.00000  0.0
    343    346    345    353   5     0.00000    33.47200     0.00000  0.0
    345    347    346    374   5     0.00000     9.20480     0.00000  0.0
    346    348    347    375   5     0.00000     9.20480     0.00000  0.0
    347    349    348    352   5     0.00000    33.47200     0.00000  0.0
    348    350    349    351   5     0.00000    87.86400     0.00000  0.0
    348    353    352    376   5     0.00000     9.20480     0.00000  0.0
    345    352    353    377   5     0.00000     9.20480     0.00000  0.0
    389    391    390    392   5     0.00000    87.86400     0.00000  0.0
    390    393    392    400   5     0.00000    33.47200     0.00000  0.0
    392    394    393    421   5     0.00000     9.20480     0.00000  0.0
    393    395    394    422   5     0.00000     9.20480     0.00000  0.0
    394    396    395    399   5     0.00000    33.47200     0.00000  0.0
    395    397    396    398   5     0.00000    87.86400     0.00000  0.0
    395    400    399    423   5     0.00000     9.20480     0.00000  0.0
    392    399    400    424   5     0.00000     9.20480     0.00000  0.0
    436    438    437    439   5     0.00000    87.86400     0.00000  0.0
    437    440    439    447   5     0.00000    33.47200     0.00000  0.0
    439    441    440    468   5     0.00000     9.20480     0.00000  0.0
    440    442    441    469   5     0.00000     9.20480     0.00000  0.0
    441    443    442    446   5     0.00000    33.47200     0.00000  0.0
    442    444    443    445   5     0.00000    87.86400     0.00000  0.0
    442    447    446    470   5     0.00000     9.20480     0.00000  0.0
    439    446    447    471   5     0.00000     9.20480     0.00000  0.0
    483    485    484    486   5     0.00000    87.86400     0.00000  0.0
    484    487    486    494   5     0.00000    33.47200     0.00000  0.0
    486    488    487    515   5     0.00000     9.20480     0.00000  0.0
    487    489    488    516   5     0.00000     9.20480     0.00000  0.0
    488    490    489    493   5     0.00000    33.47200     0.00000  0.0
    489    491    490    492   5     0.00000    87.86400     0.00000  0.0
    489    494    493    517   5     0.00000     9.20480     0.00000  0.0
    486    493    494    518   5     0.00000     9.20480     0.00000  0.0
    530    532    531    533   5     0.00000    87.86400     0.00000  0.0
    531    534    533    541   5     0.00000    33.47200     0.00000  0.0
    533    535    534    562   5     0.00000     9.20480     0.00000  0.0
    534    536    535    563   5     0.00000     9.20480     0.00000  0.0
    535    537    536    540   5     0.00000    33.47200     0.00000  0.0
    536    538    537    539   5     0.00000    87.86400     0.00000  0.0
    536    541    540    564   5     0.00000     9.20480     0.00000  0.0
    533    540    541    565   5     0.00000     9.20480     0.00000  0.0
    577    579    578    580   5     0.00000    87.86400     0.00000  0.0
    578    581    580    588   5     0.00000    33.47200     0.00000  0.0
    580    582    581    609   5     0.00000     9.20480     0.00000  0.0
    581    583    582    610   5     0.00000     9.20480     0.00000  0.0
    582    584    583    587   5     0.00000    33.47200     0.00000  0.0
    583    585    584    586   5     0.00000    87.86400     0.00000  0.0
    583    588    587    611   5     0.00000     9.20480     0.00000  0.0
    580    587    588    612   5     0.00000     9.20480     0.00000  0.0
    624    626    625    627   5     0.00000    87.86400     0.00000  0.0
    625    628    627    635   5     0.00000    33.47200     0.00000  0.0
    627    629    628    656   5     0.00000     9.20480     0.00000  0.0
    628    630    629    657   5     0.00000     9.20480     0.00000  0.0
    629    631    630    634   5     0.00000    33.47200     0.00000  0.0
    630    632    631    633   5     0.00000    87.86400     0.00000  0.0
    630    635    634    658   5     0.00000     9.20480     0.00000  0.0
    627    634    635    659   5     0.00000     9.20480     0.00000  0.0
    671    673    672    674   5     0.00000    87.86400     0.00000  0.0
    672    675    674    682   5     0.00000    33.47200     0.00000  0.0
    674    676    675    703   5     0.00000     9.20480     0.00000  0.0
    675    677    676    704   5     0.00000     9.20480     0.00000  0.0
    676    678    677    681   5     0.00000    33.47200     0.00000  0.0
    677    679    678    680   5     0.00000    87.86400     0.00000  0.0
    677    682    681    705   5     0.00000     9.20480     0.00000  0.0
    674    681    682    706   5     0.00000     9.20480     0.00000  0.0
    718    720    719    721   5     0.00000    87.86400     0.00000  0.0
    719    722    721    729   5     0.00000    33.47200     0.00000  0.0
    721    723    722    750   5     0.00000     9.20480     0.00000  0.0
    722    724    723    751   5     0.00000     9.20480     0.00000  0.0
    723    725    724    728   5     0.00000    33.47200     0.00000  0.0
    724    726    725    727   5     0.00000    87.86400     0.00000  0.0
    724    729    728    752   5     0.00000     9.20480     0.00000  0.0
    721    728    729    753   5     0.00000     9.20480     0.00000  0.0
    765    767    766    768   5     0.00000    87.86400     0.00000  0.0
    766    769    768    776   5     0.00000    33.47200     0.00000  0.0
    768    770    769    797   5     0.00000     9.20480     0.00000  0.0
    769    771    770    798   5     0.00000     9.20480     0.00000  0.0
    770    772    771    775   5     0.00000    33.47200     0.00000  0.0
    771    773    772    774   5     0.00000    87.86400     0.00000  0.0
    771    776    775    799   5     0.00000     9.20480     0.00000  0.0
    768    775    776    800   5     0.00000     9.20480     0.00000  0.0
    812    814    813    815   5     0.00000    87.86400     0.00000  0.0
    813    816    815    823   5     0.00000    33.47200     0.00000  0.0
    815    817    816    844   5     0.00000     9.20480     0.00000  0.0
    816    818    817    845   5     0.00000     9.20480     0.00000  0.0
    817    819    818    822   5     0.00000    33.47200     0.00000  0.0
    818    820    819    821   5     0.00000    87.86400     0.00000  0.0
    818    823    822    846   5     0.00000     9.20480     0.00000  0.0
    815    822    823    847   5     0.00000     9.20480     0.00000  0.0
    859    861    860    862   5     0.00000    87.86400     0.00000  0.0
    860    863    862    870   5     0.00000    33.47200     0.00000  0.0
    862    864    863    891   5     0.00000     9.20480     0.00000  0.0
    863    865    864    892   5     0.00000     9.20480     0.00000  0.0
    864    866    865    869   5     0.00000    33.47200     0.00000  0.0
    865    867    866    868   5     0.00000    87.86400     0.00000  0.0
    865    870    869    893   5     0.00000     9.20480     0.00000  0.0
    862    869    870    894   5     0.00000     9.20480     0.00000  0.0
    906    908    907    909   5     0.00000    87.86400     0.00000  0.0
    907    910    909    917   5     0.00000    33.47200     0.00000  0.0
    909    911    910    938   5     0.00000     9.20480     0.00000  0.0
    910    912    911    939   5     0.00000     9.20480     0.00000  0.0
    911    913    912    916   5     0.00000    33.47200     0.00000  0.0
    912    914    913    915   5     0.00000    87.86400     0.00000  0.0
    912    917    916    940   5     0.00000     9.20480     0.00000  0.0
    909    916    917    941   5     0.00000     9.20480     0.00000  0.0
