Control file title. For DL_FIELD 4.10
49926
    1MOL     O1    1   3.625   2.309   0.189  0.3694 -0.3271 -0.0657
    1MOL     C2    2   3.659   2.403   0.090 -0.4393  0.5328 -0.4191
    1MOL     C3    3   3.652   2.344   7.930  0.3278  0.1362 -0.0117
    1MOL     C4    4   3.738   2.418   7.832 -0.6023  0.2787  0.1980
    1MOL     C5    5   3.886   2.379   7.845 -0.1117  0.2080 -0.0502
    1MOL     C6    6   3.973   2.472   7.759 -0.2827 -0.8448 -0.4916
    1MOL     C7    7   3.939   2.474   7.607  0.4249 -0.1237  0.4526
    1MOL     C8    8   4.049   2.558   7.532 -1.2673  0.4086  0.1486
    1MOL     C9    9   4.024   2.617   7.392  0.5141  0.1141 -0.2588
    1MOL    C10   10   4.158   2.668   7.336  0.3127 -0.1124 -0.2591
    1MOL    C11   11   4.139   2.730   7.197 -0.3786 -0.3057  0.2087
    1MOL    O12   12   4.098   2.627   7.110 -0.3567  0.3930 -0.1811
    1MOL    C13   13   4.092   2.644   6.978 -0.5117 -0.2138  0.0123
    1MOL    O14   14   4.095   2.753   6.927 -0.3093 -0.2688 -0.2888
    1MOL    C15   15   4.075   2.515   6.903 -0.1415  0.3149  0.6327
    1MOL    C16   16   4.076   2.519   6.764  0.4392 -0.3936 -0.5484
    1MOL    C17   17   4.046   2.405   6.683 -0.5254  0.2379 -0.0144
    1MOL    C18   18   4.033   2.283   6.744 -0.1226  0.1494 -0.1695
    1MOL    C19   19   4.023   2.153   6.665 -0.9512 -0.4604  0.6369
    1MOL    O20   20   4.000   2.050   6.719  0.3012  0.2890 -0.0855
    1MOL    O21   21   4.022   2.175   6.533 -0.0640 -0.1871  0.2035
    1MOL    C22   22   4.027   2.271   6.889  0.3865  0.2342  0.0790
    1MOL    C23   23   4.053   2.388   6.964  0.6987  0.4643  0.2632
    1MOL    H24   24   3.602   2.495   0.106 -2.1314 -0.8991  2.1837
    1MOL    H25   25   3.763   2.430   0.110  0.0051 -0.2209 -1.6783
    1MOL    H26   26   3.550   2.347   7.893 -0.3062 -0.7324  1.6180
    1MOL    H27   27   3.684   2.241   7.944 -0.6375  0.0101  1.3381
    1MOL    H28   28   3.703   2.391   7.733 -1.2242 -1.2142  0.8059
    1MOL    H29   29   3.712   2.524   7.842 -1.7963  0.0862 -0.7602
    1MOL    H30   30   3.907   2.274   7.825  0.5712  0.2090  0.6635
    1MOL    H31   31   3.912   2.402   7.948  1.1151 -0.3885 -0.2207
    1MOL    H32   32   3.978   2.572   7.801  2.2653 -1.6305  1.1598
    1MOL    H33   33   4.076   2.440   7.769 -0.0649  0.5656  1.9433
    1MOL    H34   34   3.941   2.373   7.564  1.9193  0.1544 -0.1653
    1MOL    H35   35   3.841   2.510   7.578 -0.0773 -0.9471  1.1203
    1MOL    H36   36   4.069   2.645   7.595  0.9549 -0.2504  0.3767
    1MOL    H37   37   4.143   2.503   7.533 -0.3321  1.9759 -0.7980
    1MOL    H38   38   3.997   2.534   7.327 -0.0248 -0.3944  0.6108
    1MOL    H39   39   3.950   2.697   7.391  1.3542  0.9273  0.8399
    1MOL    H40   40   4.243   2.600   7.337 -0.1730 -0.7269  0.0863
    1MOL    H41   41   4.190   2.740   7.411 -1.4256 -0.7339  1.1286
    1MOL    H42   42   4.233   2.770   7.159  0.5542 -1.9053  0.7739
    1MOL    H43   43   4.061   2.807   7.191 -0.0336  0.2990  2.7405
    1MOL    H44   44   4.111   2.611   6.718 -0.9901  0.6420  0.3956
    1MOL    H45   45   4.042   2.417   6.575 -0.4369 -1.1432 -0.1696
    1MOL    H46   46   4.007   2.175   6.934 -0.8406 -0.1048 -1.1446
    1MOL    H47   47   4.047   2.370   7.071 -1.4492 -0.1705  0.0521
    1MOL    H48   48   3.578   2.354   0.258 -0.7074  0.5387 -1.3249
    1MOL    O49   49   4.016   2.042   6.457 -0.1394 -0.6578 -0.1393
    1MOL    C50   50   4.140   2.005   6.413 -0.0478 -0.1524 -0.0267
    1MOL    C51   51   4.137   2.036   6.264 -0.1512  0.8567 -1.0282
    1MOL    C52   52   4.279   2.028   6.207  0.2395 -0.5596  0.2385
    1MOL    C53   53   4.290   2.069   6.061 -0.4793 -0.1271  0.0042
    1MOL    C54   54   4.434   2.036   6.006  0.5740  0.4217 -0.1384
    1MOL    C55   55   4.459   2.109   5.869 -0.7315  0.0868 -0.8113
    1MOL    C56   56   4.452   2.258   5.867  0.4419 -0.3873  0.3556
    1MOL    C57   57   4.398   2.307   5.733 -0.4744 -0.4216 -0.1477
    1MOL    C58   58   4.244   2.302   5.712 -0.0830  0.0973 -0.0859
    1MOL    C59   59   4.184   2.165   5.682  0.5589 -0.0149 -0.0995
    1MOL    O60   60   4.046   2.167   5.662 -0.2222  0.4582  0.5977
    1MOL    C61   61   3.964   2.160   5.761 -0.6295 -1.1524 -0.4019
    1MOL    O62   62   4.000   2.171   5.883  0.4022  0.2028  0.4789
    1MOL    C63   63   3.819   2.166   5.721  0.8752  0.2708  0.3250
    1MOL    C64   64   3.711   2.156   5.815 -0.3762 -0.0599  0.0429
    1MOL    C65   65   3.578   2.161   5.773  0.0217  0.1647  0.2024
    1MOL    C66   66   3.553   2.186   5.638  0.4456  0.1312  0.2711
    1MOL    C67   67   3.416   2.196   5.583  0.0909 -0.1765  0.3839
    1MOL    O68   68   3.391   2.229   5.471 -0.6758  0.2948  0.8684
    1MOL    O69   69   3.325   2.147   5.668  0.0982 -0.3965  0.3254
    1MOL    C70   70   3.658   2.205   5.542  0.7007  0.9481 -0.3253
    1MOL    C71   71   3.784   2.184   5.585 -0.0234  0.3038 -0.5537
    1MOL    H72   72   4.211   2.065   6.470 -1.6027  1.6342  0.0821
    1MOL    H73   73   4.145   1.897   6.428  1.3663  0.1633  2.0086
    1MOL    H74   74   4.103   2.138   6.248  2.2793  2.0471  1.0208
    1MOL    H75   75   4.061   1.972   6.219  1.1340 -1.1694 -0.3989
    1MOL    H76   76   4.351   2.090   6.260 -1.1903 -0.8322  2.5417
    1MOL    H77   77   4.308   1.923   6.216 -1.5415 -0.8404  3.4961
    1MOL    H78   78   4.270   2.176   6.055 -0.3240 -0.1323 -0.7095
    1MOL    H79   79   4.211   2.026   5.999  2.2321 -1.4456 -2.7027
    1MOL    H80   80   4.506   2.084   6.073 -0.5247  3.0915 -0.8146
    1MOL    H81   81   4.466   1.933   6.022 -0.8680  0.1714  1.3408
    1MOL    H82   82   4.560   2.092   5.831 -0.0797 -0.7231  1.2401
    1MOL    H83   83   4.389   2.070   5.795 -1.7979 -0.4079  0.4519
    1MOL    H84   84   4.396   2.305   5.947 -1.0552  0.6784 -1.2963
    1MOL    H85   85   4.552   2.298   5.885  0.6484  0.0786 -1.6611
    1MOL    H86   86   4.438   2.408   5.728 -1.3036 -0.0114  1.2001
    1MOL    H87   87   4.446   2.260   5.647 -1.7686  0.0285 -1.1326
    1MOL    H88   88   4.228   2.371   5.628 -0.6380  1.6837  1.2844
    1MOL    H89   89   4.189   2.351   5.793 -0.3380  2.3833 -1.5807
    1MOL    H90   90   4.205   2.094   5.762 -2.9693 -0.6282  0.3734
    1MOL    H91   91   4.222   2.126   5.587  0.0935  1.1654 -0.7836
    1MOL    H92   92   3.732   2.156   5.921  0.4910  0.9420 -0.1261
    1MOL    H93   93   3.501   2.146   5.847 -1.7108  0.2781 -1.5098
    1MOL    H94   94   3.640   2.242   5.442  2.9303  1.6417 -0.5120
    1MOL    H95   95   3.860   2.193   5.509 -1.8562 -2.4413 -2.8221
    1MOL    O96   96   3.197   2.110   5.596  1.3400  0.0349 -0.2217
    1MOL    C97   97   3.096   2.197   5.653 -0.2476 -0.7869  0.0238
    1MOL    C98   98   3.103   2.349   5.614  0.2005  0.2466  0.2990
    1MOL    C99   99   2.996   2.441   5.671  0.2546 -0.1674  0.3953
    1MOL   C100  100   3.012   2.587   5.633 -1.0708 -0.0950 -0.1201
    1MOL   C101  101   2.920   2.679   5.704 -0.2169  0.3315  0.0724
    1MOL   C102  102   2.925   2.824   5.661  0.7704 -0.0223 -0.3470
    1MOL   C103  103   2.839   2.915   5.744 -0.1677 -1.3715 -0.1872
    1MOL   C104  104   2.837   3.057   5.691  0.8459 -0.1582  0.0362
    1MOL   C105  105   2.971   3.127   5.694  0.4620 -0.1673 -0.1116
    1MOL   C106  106   2.958   3.276   5.664  0.0655  0.0515  0.3501
    1MOL   O107  107   2.911   3.345   5.775  0.2266 -0.0148  0.5240
    1MOL   C108  108   2.795   3.416   5.768 -0.0804 -0.6499 -0.2349
    1MOL   O109  109   2.704   3.395   5.686 -0.3209 -0.2248  0.2169
    1MOL   C110  110   2.785   3.514   5.882 -1.0304 -0.0626 -0.3694
    1MOL   C111  111   2.894   3.555   5.956 -0.4109  0.3831  0.0515
    1MOL   C112  112   2.883   3.643   6.067 -0.1954  0.5176 -0.2047
    1MOL   C113  113   2.757   3.678   6.117  0.0687 -0.0740 -0.1539
    1MOL   C114  114   2.744   3.786   6.211 -0.0911 -0.4266 -0.3759
    1MOL   O115  115   2.632   3.826   6.258 -0.3237  0.1771 -0.4413
    1MOL   O116  116   2.866   3.851   6.240 -0.1182  0.1603 -0.8751
    1MOL   C117  117   2.647   3.634   6.046 -0.2907  0.3141  0.4572
    1MOL   C118  118   2.658   3.550   5.930 -0.3135 -0.6595  0.7115
    1MOL   H119  119   2.997   2.172   5.618  0.3909  1.8368 -4.0042
    1MOL   H120  120   3.097   2.184   5.762  1.4890 -0.6003  0.0467
    1MOL   H121  121   3.098   2.359   5.506 -1.6074  2.4886  0.5566
    1MOL   H122  122   3.200   2.393   5.635  0.4535 -0.2424  0.1712
    1MOL   H123  123   2.893   2.413   5.648  0.0308  1.0582 -0.1562
    1MOL   H124  124   3.000   2.449   5.779 -2.9752 -0.1380  0.5715
    1MOL   H125  125   2.995   2.596   5.526 -0.1367  1.2147 -0.1741
    1MOL   H126  126   3.115   2.621   5.649 -0.8728  0.0044 -1.6025
    1MOL   H127  127   2.820   2.640   5.687 -0.3627 -0.3032  2.2099
    1MOL   H128  128   2.940   2.666   5.811 -1.2160 -1.5487  0.0496
    1MOL   H129  129   3.025   2.865   5.674  0.0916  1.6777 -0.3342
    1MOL   H130  130   2.906   2.838   5.555  1.2804 -0.0573 -0.4451
    1MOL   H131  131   2.737   2.875   5.739 -1.6668  2.1061  0.9658
    1MOL   H132  132   2.856   2.905   5.851  2.0567  0.4401 -0.3383
    1MOL   H133  133   2.805   3.059   5.587  3.5736  1.0968 -0.8183
    1MOL   H134  134   2.768   3.109   5.758 -0.8804 -0.4520 -1.4590
    1MOL   H135  135   3.042   3.071   5.635 -0.7045  0.8119 -2.5223
    1MOL   H136  136   2.995   3.122   5.801 -0.0100 -1.0141 -0.0411
    1MOL   H137  137   2.897   3.294   5.575 -0.1760 -0.3103  0.4436
    1MOL   H138  138   3.058   3.311   5.639  0.4126  0.2360  1.9814
    1MOL   H139  139   2.989   3.509   5.933  0.3020  0.8284  2.0013
    1MOL   H140  140   2.978   3.678   6.105 -0.6493  2.7520 -1.0259
    1MOL   H141  141   2.558   3.666   6.099 -0.7281 -0.0315 -0.0645
    1MOL   H142  142   2.564   3.523   5.884 -0.5287  0.9035  0.2036
    1MOL   O143  143   2.839   3.963   6.336  0.6133 -0.6992  0.1198
    1MOL   C144  144   2.859   3.918   6.471 -0.1843  0.3165  0.2109
    1MOL   C145  145   2.988   3.856   6.512 -0.2095  0.6951  0.5456
    1MOL   C146  146   2.993   3.856   6.663  0.1153 -0.3444 -0.7037
    1MOL   C147  147   3.120   3.797   6.718 -0.7221 -0.3101 -0.0089
    1MOL   C148  148   3.141   3.844   6.859 -0.4882  0.2785 -0.3955
    1MOL   C149  149   3.260   3.770   6.923  0.1247  0.4863 -0.1038
    1MOL   C150  150   3.219   3.652   7.011  0.3446  0.5213 -0.0295
    1MOL   C151  151   3.296   3.644   7.145 -0.0848 -0.4269  0.1330
    1MOL   C152  152   3.259   3.518   7.235  0.0659 -0.5600 -0.1168
    1MOL   C153  153   3.335   3.538   7.365  0.7795  0.1325  0.3944
    1MOL   O154  154   3.468   3.495   7.347  0.5292  0.2806 -0.0272
    1MOL   C155  155   3.564   3.556   7.413 -0.0169  0.5761  0.9056
    1MOL   O156  156   3.544   3.649   7.491 -1.0147 -0.3916 -0.0905
    1MOL   C157  157   3.700   3.518   7.365  0.6205 -0.3794  0.0299
    1MOL   C158  158   3.719   3.423   7.265 -0.2037  0.4642 -0.3574
    1MOL   C159  159   3.851   3.409   7.215 -0.1371 -1.1047  0.1630
    1MOL   C160  160   3.964   3.477   7.265  0.1020  0.8905  0.1446
    1MOL   C161  161   4.102   3.455   7.198 -0.1610 -0.4253  0.0179
    1MOL   O162  162   4.123   3.365   7.118  0.8076 -0.0605  0.0949
    1MOL   O163  163   4.200   3.544   7.241  0.5859 -0.5505 -0.3163
    1MOL   C164  164   3.949   3.553   7.380  0.1885 -0.6654  0.6604
    1MOL   C165  165   3.814   3.582   7.425 -0.4314 -0.3536 -0.0036
    1MOL   H166  166   2.831   4.005   6.531  0.7900 -0.4866  1.8607
    1MOL   H167  167   2.783   3.844   6.493  1.0613 -1.2244 -0.5888
    1MOL   H168  168   3.067   3.919   6.470  0.3373 -0.8212 -0.7333
    1MOL   H169  169   3.015   3.760   6.468 -0.2926  2.3497 -3.2694
    1MOL   H170  170   2.968   3.954   6.703  1.0755 -0.6671  0.6894
    1MOL   H171  171   2.912   3.794   6.700 -2.5436  1.4177 -3.3216
    1MOL   H172  172   3.206   3.821   6.655 -0.4603 -0.7434  0.1766
    1MOL   H173  173   3.109   3.688   6.715 -1.3927 -0.2489  0.3132
    1MOL   H174  174   3.159   3.952   6.856 -0.4993  0.3956  2.6717
    1MOL   H175  175   3.052   3.843   6.920 -0.7611 -4.1252 -0.7312
    1MOL   H176  176   3.333   3.742   6.847 -0.2265 -1.3273  0.2140
    1MOL   H177  177   3.316   3.845   6.979  2.1588 -0.1309 -1.2330
    1MOL   H178  178   3.112   3.644   7.030  0.7429 -0.6559  1.8972
    1MOL   H179  179   3.247   3.557   6.966  1.1593  1.9914 -2.6817
    1MOL   H180  180   3.404   3.640   7.134 -0.1639  1.2645 -1.3932
    1MOL   H181  181   3.278   3.733   7.205  0.8975 -1.4639  2.0391
    1MOL   H182  182   3.293   3.424   7.193  0.2467 -0.8654  0.7075
    1MOL   H183  183   3.158   3.510   7.276  0.4706  1.3946  1.3892
    1MOL   H184  184   3.290   3.471   7.439  0.5072  3.1042  3.0187
    1MOL   H185  185   3.321   3.639   7.403 -2.0016  0.1717 -0.6311
    1MOL   H186  186   3.638   3.365   7.224  0.6057  0.3193 -1.7769
    1MOL   H187  187   3.863   3.345   7.130 -0.0213  1.7406 -2.0519
    1MOL   H188  188   4.032   3.600   7.431 -0.6865 -0.7510  2.1989
    1MOL   H189  189   3.790   3.656   7.499  0.5843 -1.7637  1.7697
    1MOL   O190  190   4.342   3.514   7.185 -0.4746  0.1934 -0.0723
    1MOL   C191  191   4.415   3.467   7.297  0.9623  0.7025 -0.2583
    1MOL   C192  192   4.431   3.561   7.410 -0.4500 -0.6323  0.4605
    1MOL   C193  193   4.501   3.688   7.372  0.1633  0.0507 -0.2798
    1MOL   C194  194   4.468   3.815   7.461 -0.2982  0.4148 -0.6586
    1MOL   C195  195   4.541   3.940   7.418  0.6971  0.6792  0.7502
    1MOL   C196  196   4.476   4.061   7.496 -0.1910  0.5216  0.0692
    1MOL   C197  197   4.552   4.197   7.480 -0.6109 -0.1405  0.0872
    1MOL   C198  198   4.532   4.291   7.598 -0.2314 -0.7741  0.1789
    1MOL   C199  199   4.644   4.269   7.703 -0.3857 -0.2980 -0.5284
    1MOL   C200  200   4.629   4.359   7.827  0.2327  0.2953 -0.0371
    1MOL   O201  201   4.509   4.326   7.905  0.2352 -0.6859  0.7064
    1MOL   C202  202   4.507   4.361   0.063  0.1026  0.0048 -0.0948
    1MOL   O203  203   4.588   4.437   0.123 -0.5290 -0.1504 -0.4765
    1MOL   C204  204   4.387   4.304   0.132 -0.9844  0.1061 -0.0906
    1MOL   C205  205   4.293   4.223   0.068  0.7919 -0.2655  0.4284
    1MOL   C206  206   4.199   4.150   0.146 -0.3584 -0.5513  0.4529
    1MOL   C207  207   4.204   4.159   0.289 -0.2464  0.0165  0.3869
    1MOL   C208  208   4.094   4.094   0.374 -0.1303 -0.1897  0.1463
    1MOL   O209  209   4.065   4.130   0.485 -0.1697 -0.5169  0.2586
    1MOL   O210  210   4.043   3.990   0.313 -0.1907 -0.4933  0.0111
    1MOL   C211  211   4.292   4.242   0.355  0.7598 -0.0477  0.3346
    1MOL   C212  212   4.385   4.314   0.274  0.3798  0.3978 -0.6929
    1MOL   H213  213   4.366   3.373   7.326 -1.0858  2.3952  2.0054
    1MOL   H214  214   4.517   3.443   7.269  1.2818  1.1061  0.5500
    1MOL   H215  215   4.492   3.514   7.488 -0.5689  2.1309  2.2899
    1MOL   H216  216   4.337   3.565   7.466 -0.1225 -0.6281  1.0120
    1MOL   H217  217   4.608   3.670   7.363 -0.1504 -1.8983 -0.3372
    1MOL   H218  218   4.460   3.713   7.275 -2.7726  1.2872  1.2180
    1MOL   H219  219   4.497   3.788   7.562 -1.6145 -1.4070 -0.7398
    1MOL   H220  220   4.364   3.846   7.463 -0.1658  0.9655 -1.8673
    1MOL   H221  221   4.648   3.936   7.440  1.7336 -0.9779 -4.0669
    1MOL   H222  222   4.539   3.962   7.311  1.5824 -0.1599  0.5518
    1MOL   H223  223   4.371   4.071   7.468 -0.0735  1.3498 -0.0862
    1MOL   H224  224   4.496   4.044   7.602  2.0852  1.4357 -0.1749
    1MOL   H225  225   4.660   4.183   7.477 -0.5423  0.2548  0.4809
    1MOL   H226  226   4.532   4.247   7.385  2.0803 -0.1546 -0.5306
    1MOL   H227  227   4.549   4.394   7.566  0.2914 -0.4197  1.5377
    1MOL   H228  228   4.438   4.285   7.653 -0.5047 -0.1314 -0.2126
    1MOL   H229  229   4.739   4.304   7.663  0.2000 -0.2865  0.8211
    1MOL   H230  230   4.644   4.166   7.739 -1.2834  0.1374  0.7659
    1MOL   H231  231   4.652   4.464   7.808  1.6779  0.2758  1.4625
    1MOL   H232  232   4.712   4.335   7.893 -1.1482 -0.3729  1.4833
    1MOL   H233  233   4.298   4.207   7.939  0.2407 -1.2513  0.5468
    1MOL   H234  234   4.137   4.074   0.100  0.1544 -0.5160 -0.3148
    1MOL   H235  235   4.277   4.255   0.461 -0.7889 -1.0237  0.2477
    1MOL   H236  236   4.457   4.377   0.323  1.1553  0.8262 -2.3632
    1MOL   O237  237   3.944   3.914   0.396  0.2942  0.1180  0.2637
    1MOL   C238  238   3.816   3.903   0.331 -0.0409 -0.0538 -0.5581
    1MOL   C239  239   3.817   3.798   0.219  0.0207 -0.4400 -0.1291
    1MOL   C240  240   3.878   3.839   0.086 -0.0278 -0.5369  0.0355
    1MOL   C241  241   3.849   3.747   7.945 -0.5736 -0.6711  0.0895
    1MOL   C242  242   3.905   3.798   7.805 -0.3344  0.1631 -0.6053
    1MOL   C243  243   4.060   3.825   7.799  0.5723  0.6577  0.2798
    1MOL   C244  244   4.118   3.879   7.666 -0.4444  0.0854 -0.0297
    1MOL   C245  245   4.091   4.028   7.632  0.3407  0.1191  0.2647
    1MOL   C246  246   4.176   4.125   7.711  0.6751 -0.2156  0.3242
    1MOL   C247  247   4.148   4.278   7.702 -0.3931 -0.8616  0.4244
    1MOL   O248  248   4.184   4.317   7.566  0.3942 -0.5720 -0.4874
    1MOL   C249  249   4.107   4.400   7.497  0.2269 -0.1126 -0.4194
    1MOL   O250  250   4.012   4.458   7.549 -0.1663  0.0240  0.1666
    1MOL   C251  251   4.146   4.407   7.358 -0.6665 -0.0351 -0.1240
    1MOL   C252  252   4.089   4.508   7.273 -0.3175 -0.2456  0.0306
    1MOL   C253  253   4.128   4.514   7.138 -0.1491  0.4815  0.6963
    1MOL   C254  254   4.216   4.419   7.083  0.8392 -0.1439  0.0097
    1MOL   C255  255   4.253   4.423   6.934  0.4365 -0.6058 -0.0615
    1MOL   O256  256   4.303   4.332   6.867 -0.2234 -0.2093 -0.1279
    1MOL   O257  257   4.228   4.544   6.879  0.1484 -0.2244  0.0265
    1MOL   C258  258   4.280   4.327   7.165 -0.4133  0.3054  0.5923
    1MOL   C259  259   4.250   4.324   7.304 -0.0032  0.1860  0.1210
    1MOL   H260  260   3.744   3.875   0.407  1.2224 -0.6860  0.4281
    1MOL   H261  261   3.793   4.005   0.299 -0.9499  0.0561  0.4506
    1MOL   H262  262   3.713   3.768   0.203 -1.0685  3.6040 -1.1670
    1MOL   H263  263   3.868   3.705   0.243 -0.3506 -0.8783 -1.0332
    1MOL   H264  264   3.833   3.933   0.057  1.1090  0.1840  0.5908
    1MOL   H265  265   3.985   3.859   0.086  0.0191 -0.6359 -1.9236
    1MOL   H266  266   3.742   3.739   7.924 -0.4247  1.1288 -1.5149
    1MOL   H267  267   3.899   3.652   7.964 -0.9115 -0.7814  0.4434
    1MOL   H268  268   3.887   3.726   7.725 -2.4268 -1.6234  1.4086
    1MOL   H269  269   3.855   3.890   7.777 -0.9890 -0.1811 -0.5714
    1MOL   H270  270   4.100   3.868   7.891  2.4314 -0.5780  0.0934
    1MOL   H271  271   4.106   3.728   7.779 -1.6946 -0.3102 -0.2920
    1MOL   H272  272   4.226   3.873   7.677 -0.4825 -1.3611 -0.3773
    1MOL   H273  273   4.091   3.816   7.581 -2.1936  1.8738 -0.8320
    1MOL   H274  274   4.109   4.040   7.525 -1.2752  2.2865  0.1934
    1MOL   H275  275   3.985   4.052   7.641 -0.7515 -4.3614  0.3447
    1MOL   H276  276   4.275   4.103   7.672  0.6946 -0.5241  0.5423
    1MOL   H277  277   4.189   4.082   7.811  0.1503 -1.8371 -0.2817
    1MOL   H278  278   4.206   4.335   7.775 -1.4621 -1.7705  1.9958
    1MOL   H279  279   4.040   4.284   7.717 -0.8665  0.4222 -3.0387
    1MOL   H280  280   4.034   4.584   7.326 -0.0577  0.0171 -0.0753
    1MOL   H281  281   4.082   4.590   7.076  0.0007 -0.4719 -0.5782
    1MOL   H282  282   4.349   4.257   7.121 -2.0537  0.0154 -1.5643
    1MOL   H283  283   4.306   4.264   7.374 -0.3796 -0.7287 -0.3592
    1MOL   O284  284   4.261   4.547   6.734 -0.1002 -0.3251  0.5659
    1MOL   C285  285   4.147   4.524   6.658  0.1812 -0.0496 -0.3400
    1MOL   C286  286   4.191   4.533   6.513 -0.1219  0.3796 -0.0493
    1MOL   C287  287   4.091   4.475   6.420  0.1387  0.1508 -0.4800
    1MOL   C288  288   4.131   4.459   6.270 -0.0820 -0.3689  0.2105
    1MOL   C289  289   4.263   4.396   6.234  0.3375  0.3462 -0.4426
    1MOL   C290  290   4.308   4.395   6.087 -0.9887  1.1747  0.7458
    1MOL   C291  291   4.405   4.504   6.048  0.4886  0.6287 -0.0693
    1MOL   C292  292   4.367   4.649   6.051 -0.0785 -0.0509  0.6349
    1MOL   C293  293   4.495   4.738   6.028 -0.4203 -0.0108 -0.4174
    1MOL   C294  294   4.584   4.767   6.144  0.1030  0.2148 -0.1152
    1MOL   O295  295   4.520   4.849   6.239 -0.5598 -0.0142  0.0757
    1MOL   C296  296   4.479   4.803   6.365  0.1902 -0.5705  0.5256
    1MOL   O297  297   4.486   4.684   6.405  0.5463 -0.2662 -0.5689
    1MOL   C298  298   4.414   4.914   6.443  0.3912  0.2226 -0.3110
    1MOL   C299  299   4.398   4.903   6.583 -0.0762 -0.2853 -0.0527
    1MOL   C300  300   4.338   5.010   6.659  0.2931 -0.6418  0.2544
    1MOL   C301  301   4.319   5.136   6.594 -0.2379  0.1223 -0.0279
    1MOL   C302  302   4.271   5.251   6.674  0.3771 -0.4069 -0.4278
    1MOL   O303  303   4.242   5.359   6.624 -0.1054  0.0452  0.2341
    1MOL   O304  304   4.251   5.230   6.807 -0.3204  0.5803  0.4416
    1MOL   C305  305   4.349   5.148   6.456 -0.2716 -0.4871  0.1565
    1MOL   C306  306   4.394   5.038   6.380  0.2729  0.2197 -0.1260
    1MOL   H307  307   4.096   4.436   6.698 -1.1265  0.2216 -1.3361
    1MOL   H308  308   4.085   4.610   6.683 -0.9974 -0.6489 -1.1412
    1MOL   H309  309   4.289   4.487   6.502  0.2359  1.3117 -0.8851
    1MOL   H310  310   4.214   4.636   6.485  0.2289  0.0948 -0.8419
    1MOL   H311  311   4.073   4.372   6.452  2.0130 -0.2658 -0.6865
    1MOL   H312  312   3.992   4.518   6.429 -0.3416 -1.1054  0.2988
    1MOL   H313  313   4.133   4.563   6.236 -0.0612 -0.0539  1.1616
    1MOL   H314  314   4.056   4.407   6.211 -0.9794  1.7622 -0.5875
    1MOL   H315  315   4.345   4.441   6.290 -0.0610  2.9405 -1.8809
    1MOL   H316  316   4.250   4.292   6.264  0.7685  1.0555  2.3530
    1MOL   H317  317   4.352   4.298   6.063 -0.2154  1.7229 -0.0391
    1MOL   H318  318   4.222   4.387   6.021 -1.8171  4.0919  1.4219
    1MOL   H319  319   4.493   4.497   6.113  0.7743 -0.6095 -0.5937
    1MOL   H320  320   4.436   4.488   5.945  0.5811 -1.8113  0.3105
    1MOL   H321  321   4.297   4.672   5.970 -1.4899  1.3696  2.2152
    1MOL   H322  322   4.321   4.678   6.145  0.4417  0.2087  0.8073
    1MOL   H323  323   4.463   4.835   5.989 -0.9713 -0.4203 -1.0169
    1MOL   H324  324   4.551   4.693   5.947 -0.5142  1.3189 -1.2413
    1MOL   H325  325   4.674   4.823   6.118 -0.7879  1.5787 -0.3444
    1MOL   H326  326   4.616   4.671   6.184 -1.1401  0.0003  0.3894
    1MOL   H327  327   4.427   4.814   6.638  3.0141 -0.6149 -2.1042
    1MOL   H328  328   4.333   4.993   6.766 -0.6928  0.3467  0.3745
    1MOL   H329  329   4.330   5.242   6.407 -2.0356 -0.1554  1.4444
    1MOL   H330  330   4.416   5.062   6.277 -3.0113  0.3754 -0.8625
    1MOL   O331  331   4.178   5.340   6.866 -0.1238 -0.4641  0.1244
    1MOL   C332  332   4.271   5.418   6.933  0.0592 -0.1784 -0.4909
    1MOL   C333  333   4.188   5.514   7.031 -0.0805  0.5549  0.1446
    1MOL   C334  334   4.131   5.627   6.945  0.3783  0.1874  0.0632
    1MOL   C335  335   4.015   5.706   7.014  0.2356 -0.3577  0.5912
    1MOL   C336  336   3.967   5.831   6.937  0.2586 -0.0486 -0.2855
    1MOL   C337  337   3.851   5.895   7.009 -0.3740  0.0500 -0.4320
    1MOL   C338  338   3.788   6.014   6.932 -0.3614 -0.2665  0.3422
    1MOL   C339  339   3.891   6.124   6.891  0.5778  1.0285  0.1368
    1MOL   C340  340   3.957   6.194   7.011  0.5728  0.2804 -0.1609
    1MOL   C341  341   4.055   6.300   6.974  0.0948 -0.3695 -0.5411
    1MOL   O342  342   3.997   6.405   6.905  0.1934 -0.2935  0.2583
    1MOL   C343  343   4.008   6.407   6.772 -0.5813  0.0906 -0.0810
    1MOL   O344  344   4.070   6.323   6.701 -0.4471 -0.3035 -0.1869
    1MOL   C345  345   3.947   6.518   6.696 -0.1853  0.2011  0.0551
    1MOL   C346  346   3.969   6.536   6.558  0.4038 -0.6721  0.6628
    1MOL   C347  347   3.911   6.639   6.479  0.3410 -0.7525  0.3098
    1MOL   C348  348   3.819   6.727   6.547 -0.2409  0.1653  0.1326
    1MOL   C349  349   3.751   6.836   6.468 -0.0360 -0.1303  0.0984
    1MOL   O350  350   3.770   6.852   6.348  0.0238 -0.0223  0.1259
    1MOL   O351  351   3.668   6.917   6.540  0.0018 -0.1358 -0.4238
    1MOL   C352  352   3.803   6.712   6.687  0.2002  0.0085 -0.0144
    1MOL   C353  353   3.858   6.605   6.759  0.4964  0.9615 -0.1051
    1MOL   H354  354   4.337   5.358   6.996  0.3580  1.0759  0.4078
    1MOL   H355  355   4.339   5.473   6.869  1.6750 -1.4806  0.0654
    1MOL   H356  356   4.243   5.548   7.119  1.2905 -2.4589  0.5067
    1MOL   H357  357   4.107   5.449   7.064 -0.3150  0.8558  0.1649
    1MOL   H358  358   4.214   5.690   6.911  0.4992  0.0421  0.0878
    1MOL   H359  359   4.105   5.585   6.848  1.1253 -1.5004  0.5798
    1MOL   H360  360   4.039   5.735   7.117 -0.4832  0.5646  0.5077
    1MOL   H361  361   3.927   5.643   7.024 -0.0839  0.0585  0.3838
    1MOL   H362  362   4.056   5.894   6.932 -0.7270  1.2962 -1.2768
    1MOL   H363  363   3.948   5.798   6.835  2.4816 -1.6383 -0.2224
    1MOL   H364  364   3.768   5.827   7.030  0.2436  0.3386  3.1634
    1MOL   H365  365   3.877   5.930   7.108 -1.8818 -0.6527  0.2313
    1MOL   H366  366   3.740   5.970   6.844  1.3662 -0.3358 -0.5805
    1MOL   H367  367   3.698   6.049   6.982 -0.3441  1.9941 -1.1605
    1MOL   H368  368   3.969   6.079   6.830  1.1093  0.6691  1.0657
    1MOL   H369  369   3.834   6.198   6.834  2.1987  3.8120  2.0358
    1MOL   H370  370   4.013   6.120   7.068 -0.6669  0.3116  1.1168
    1MOL   H371  371   3.885   6.240   7.079  1.2183 -0.7877  1.2611
    1MOL   H372  372   4.140   6.254   6.924  0.1203 -0.6960 -0.1959
    1MOL   H373  373   4.086   6.350   7.066 -0.0571  1.1786 -1.3064
    1MOL   H374  374   4.040   6.472   6.507  0.0912  0.5431 -1.3775
    1MOL   H375  375   3.918   6.645   6.372  0.2348  0.6321  0.3777
    1MOL   H376  376   3.740   6.782   6.741  0.3478  0.6988 -0.7232
    1MOL   H377  377   3.841   6.599   6.865 -0.9902  0.1029 -0.3751
    1MOL   O378  378   3.620   7.027   6.462  0.4295  0.1563  0.5372
    1MOL   C379  379   3.636   7.140   6.543 -0.4328 -0.1163 -1.0892
    1MOL   C380  380   3.597   7.254   6.452 -0.0466 -0.5750  0.0435
    1MOL   C381  381   3.594   7.382   6.521  0.2614 -1.0123  1.1842
    1MOL   C382  382   3.526   7.492   6.440 -0.3232 -0.6822  0.0295
    1MOL   C383  383   3.579   7.506   6.297  0.2300  0.3236  0.1190
    1MOL   C384  384   3.526   7.623   6.221 -0.4968  0.1446 -0.2884
    1MOL   C385  385   3.596   7.756   6.257  0.3903 -0.7599  0.7172
    1MOL   C386  386   3.527   7.888   6.200 -0.3020  0.9890 -0.1574
    1MOL   C387  387   3.622   0.031   6.199  0.1572 -0.5558 -0.1915
    1MOL   C388  388   3.659   0.066   6.344  0.0426  0.6883 -0.2880
    1MOL   O389  389   3.744   0.176   6.334  0.2431  0.2099 -0.3093
    1MOL   C390  390   3.745   0.281   6.415  0.7634 -0.4814  0.0748
    1MOL   O391  391   3.656   0.293   6.502  0.6537 -0.1041  0.5322
    1MOL   C392  392   3.854   0.379   6.393  0.0930 -0.4908  0.0420
    1MOL   C393  393   3.859   0.495   6.473 -0.0837  0.2392 -0.1751
    1MOL   C394  394   3.947   0.599   6.444  0.0699 -0.4845 -0.2025
    1MOL   C395  395   4.045   0.589   6.341  0.8873  0.2346  0.0624
    1MOL   C396  396   4.153   0.689   6.329  0.2212  0.8826 -0.2375
    1MOL   O397  397   4.239   0.686   6.238 -0.2024  1.4943  0.0791
    1MOL   O398  398   4.154   0.785   6.423  0.1804  0.2735 -0.2412
    1MOL   C399  399   4.052   0.468   6.267  0.2523  0.7177 -0.1031
    1MOL   C400  400   3.951   0.367   6.286  0.3937 -0.2081 -0.5844
    1MOL   H401  401   3.564   7.143   6.625  1.0252 -1.8641  0.2767
    1MOL   H402  402   3.736   7.149   6.583 -0.8744  1.6034 -0.3469
    1MOL   H403  403   3.499   7.222   6.414 -0.5846 -1.7530  2.3215
    1MOL   H404  404   3.677   7.261   6.379 -1.8169  0.1427 -1.9001
    1MOL   H405  405   3.545   7.374   6.618 -2.7692 -3.0945 -0.4092
    1MOL   H406  406   3.691   7.424   6.545 -1.3574  2.2184  2.4654
    1MOL   H407  407   3.551   7.580   6.500  1.7651 -0.5214 -1.0318
    1MOL   H408  408   3.418   7.484   6.448 -0.1697 -2.3731  0.6438
    1MOL   H409  409   3.686   7.483   6.295  0.8337  2.8102  1.2999
    1MOL   H410  410   3.530   7.423   6.246 -0.8094 -0.1685  1.8729
    1MOL   H411  411   3.537   7.603   6.115 -0.1703  0.0853 -0.2427
    1MOL   H412  412   3.417   7.629   6.227 -0.3707  1.1016  1.6692
    1MOL   H413  413   3.613   7.756   6.364 -0.9297 -2.8817  0.9421
    1MOL   H414  414   3.695   7.735   6.217  1.2595 -1.1674  3.0338
    1MOL   H415  415   3.501   7.863   6.097 -0.7267  0.4835  0.0714
    1MOL   H416  416   3.430   7.896   6.248  0.5161  0.4605  1.6547
    1MOL   H417  417   3.570   0.110   6.146 -0.3133 -1.4814 -1.1382
    1MOL   H418  418   3.695   7.971   6.128 -0.2899 -0.2677 -0.8061
    1MOL   H419  419   3.711   7.964   6.396 -1.5958  0.0646  0.4549
    1MOL   H420  420   3.571   0.096   6.401  0.6206 -0.5511  1.2941
    1MOL   H421  421   3.796   0.506   6.561  2.1764 -0.5861  1.5995
    1MOL   H422  422   3.942   0.691   6.500 -1.4206 -0.5831 -0.1431
    1MOL   H423  423   4.120   0.447   6.186  1.8963  1.6728  0.9952
    1MOL   H424  424   3.932   0.285   6.218 -3.3651 -0.2547  0.4328
    1MOL   O425  425   4.287   0.859   6.409  0.1976 -0.5592  0.4589
    1MOL   C426  426   4.264   0.992   6.367 -0.4485 -0.2573  0.3358
    1MOL   C427  427   4.401   1.056   6.349 -0.0254 -0.0425  0.8695
    1MOL   C428  428   4.390   1.190   6.273 -0.1012 -0.0701 -0.1938
    1MOL   C429  429   4.501   1.291   6.312 -0.0102 -0.2426 -0.0052
    1MOL   C430  430   4.462   1.424   6.254  0.5325 -0.5675  0.4036
    1MOL   C431  431   4.561   1.538   6.286  0.4648  0.6497  0.2150
    1MOL   C432  432   4.511   1.677   6.236  0.0160  0.4365  0.4000
    1MOL   C433  433   4.597   1.802   6.267  0.0022  0.9825  0.1724
    1MOL   C434  434   4.749   1.798   6.227  0.3758  0.5541 -0.0626
    1MOL   C435  435   4.843   1.752   6.337  0.6347 -0.0319 -0.0852
    1MOL   O436  436   4.849   1.615   6.339  0.0524  0.6958 -0.0499
    1MOL   C437  437   4.967   1.550   6.328 -0.2287  0.6047 -0.0447
    1MOL   O438  438   5.077   1.599   6.311 -0.1910  0.7162  0.1086
    1MOL   C439  439   4.950   1.403   6.336 -0.1908  0.0171 -0.5046
    1MOL   C440  440   4.847   1.341   6.405  0.5944 -0.4804 -0.2911
    1MOL   C441  441   4.823   1.205   6.406 -0.3330 -0.1987 -0.2543
    1MOL   C442  442   4.898   1.119   6.330 -0.1431 -0.3401 -0.0281
    1MOL   C443  443   4.863   0.971   6.341 -0.0476 -0.4747  0.1096
    1MOL   O444  444   4.784   0.926   6.422  0.0544 -0.2480  0.1497
    1MOL   O445  445   4.914   0.899   6.239 -0.0297 -0.2384 -0.3095
    1MOL   C446  446   5.011   1.175   6.259 -0.0880  0.1103 -0.3898
    1MOL   C447  447   5.039   1.316   6.263 -0.1648  0.5311 -0.0432
    1MOL   H448  448   4.223   0.990   6.266 -0.4035  0.3523  0.3038
    1MOL   H449  449   4.203   1.046   6.439 -0.6004 -0.9508  0.7297
    1MOL   H450  450   4.468   0.995   6.289  1.1048  2.0362 -0.0185
    1MOL   H451  451   4.447   1.079   6.445  1.3088  1.3280 -0.0719
    1MOL   H452  452   4.397   1.173   6.166  0.2702 -3.4492  0.3135
    1MOL   H453  453   4.289   1.230   6.285 -0.0488 -0.6178  2.3804
    1MOL   H454  454   4.599   1.257   6.278 -0.2372 -2.2083  1.2303
    1MOL   H455  455   4.505   1.307   6.420  0.9729  0.4484 -0.1368
    1MOL   H456  456   4.451   1.405   6.148 -0.4841 -1.9022  0.7383
    1MOL   H457  457   4.365   1.455   6.293 -0.8523 -0.2692 -3.1222
    1MOL   H458  458   4.575   1.540   6.394 -0.9353 -2.3525  0.4894
    1MOL   H459  459   4.654   1.513   6.235 -0.0094 -1.0986  0.1938
    1MOL   H460  460   4.516   1.657   6.129  2.3886 -0.0178  0.5526
    1MOL   H461  461   4.406   1.677   6.263  0.7270 -1.1706  3.4275
    1MOL   H462  462   4.538   1.883   6.223  2.3668  2.0053 -1.1998
    1MOL   H463  463   4.587   1.826   6.373  2.5847 -1.0718  0.9247
    1MOL   H464  464   4.766   1.905   6.214 -1.4536  1.1956  2.5808
    1MOL   H465  465   4.771   1.745   6.134  0.5221  1.6405 -0.6479
    1MOL   H466  466   4.819   1.782   6.439 -2.4256  0.5201 -0.9298
    1MOL   H467  467   4.943   1.794   6.325 -0.5072  2.2624 -1.9094
    1MOL   H468  468   4.785   1.401   6.470  2.7139 -0.4643  1.7452
    1MOL   H469  469   4.744   1.159   6.464 -0.1933 -1.4699 -1.0525
    1MOL   H470  470   5.071   1.104   6.203  3.1266  1.0868  1.6333
    1MOL   H471  471   5.114   1.354   6.196  0.0171 -1.7268 -1.1933
    1MOL   O472  472   4.867   0.759   6.247  0.1982  0.0400 -0.0855
    1MOL   C473  473   4.793   0.713   6.134 -0.0947 -0.3055  0.1940
    1MOL   C474  474   4.660   0.790   6.118 -0.3269 -0.2744  0.3489
    1MOL   C475  475   4.551   0.735   6.019  0.5226 -0.4184 -0.0236
    1MOL   C476  476   4.429   0.828   5.997 -0.7665 -0.4250  0.0683
    1MOL   C477  477   4.314   0.755   5.915  0.1168  0.1586 -0.7280
    1MOL   C478  478   4.191   0.840   5.881 -0.5855 -0.1095 -0.0695
    1MOL   C479  479   4.072   0.752   5.835 -0.1763 -0.0891 -0.1888
    1MOL   C480  480   4.005   0.677   5.947 -0.5132 -0.3959 -0.6661
    1MOL   C481  481   3.880   0.596   5.924 -0.0879  0.0609  0.9781
    1MOL   C482  482   3.765   0.621   6.026  0.0535  0.7167  0.0653
    1MOL   O483  483   3.650   0.532   6.001  0.1271  0.1771  0.0418
    1MOL   C484  484   3.543   0.576   5.926  0.1225  0.8753  0.4994
    1MOL   O485  485   3.537   0.684   5.862 -0.5978  0.2345  0.0598
    1MOL   C486  486   3.425   0.484   5.923 -0.0462  0.5270  0.5960
    1MOL   C487  487   3.427   0.348   5.971  0.1336 -0.7790  0.7441
    1MOL   C488  488   3.302   0.272   5.990 -0.4547 -0.1715 -0.5181
    1MOL   C489  489   3.177   0.330   5.949  0.8465 -0.4571  0.2114
    1MOL   C490  490   3.044   0.262   5.964  0.4223  0.1486 -0.3318
    1MOL   O491  491   2.937   0.303   5.917 -0.3502  0.6583 -0.4252
    1MOL   O492  492   3.056   0.160   6.047 -0.2422  0.3027  0.2732
    1MOL   C493  493   3.181   0.456   5.887  0.0586  0.2329  0.5686
    1MOL   C494  494   3.296   0.538   5.886 -0.1270  0.3637 -0.4462
    1MOL   H495  495   4.862   0.710   6.049  0.7171  2.4110  0.7223
    1MOL   H496  496   4.766   0.609   6.151 -3.8973  0.6714  0.5290
    1MOL   H497  497   4.686   0.892   6.091  0.6041 -0.7498 -0.6343
    1MOL   H498  498   4.618   0.795   6.218 -1.1220 -0.1957  0.0141
    1MOL   H499  499   4.587   0.711   5.919  2.8194  1.0225  0.4295
    1MOL   H500  500   4.521   0.638   6.059 -2.8250  0.8775  0.7669
    1MOL   H501  501   4.456   0.923   5.952  0.1794 -1.3296 -1.3306
    1MOL   H502  502   4.384   0.856   6.092  0.2232  1.1346  0.0838
    1MOL   H503  503   4.348   0.713   5.820 -1.0424 -0.5567 -0.8314
    1MOL   H504  504   4.286   0.667   5.973  0.1960  0.9451  0.5182
    1MOL   H505  505   4.164   0.892   5.973 -1.2729 -0.4080 -0.1038
    1MOL   H506  506   4.214   0.913   5.803  1.8656  1.3799  1.9732
    1MOL   H507  507   3.997   0.817   5.791 -0.9534 -1.7696 -1.4156
    1MOL   H508  508   4.115   0.684   5.761 -2.0317 -1.8604  0.2948
    1MOL   H509  509   4.069   0.604   5.997 -0.6629 -1.6497 -2.2471
    1MOL   H510  510   3.983   0.749   6.025 -0.8359 -2.8988  1.6233
    1MOL   H511  511   3.884   0.487   5.922 -0.6962  0.0474 -2.8163
    1MOL   H512  512   3.825   0.619   5.833 -0.0610  0.6079  1.1005
    1MOL   H513  513   3.745   0.728   6.040 -1.7460  0.6099 -1.5308
    1MOL   H514  514   3.801   0.599   6.127  1.4731  1.1718 -0.3224
    1MOL   H515  515   3.526   0.308   5.992  1.5248  1.9619 -0.3471
    1MOL   H516  516   3.300   0.171   6.026 -1.5115 -0.2076 -0.6547
    1MOL   H517  517   3.086   0.498   5.859  1.1553  3.8778  1.9591
    1MOL   H518  518   3.296   0.640   5.851 -1.3838  0.0516 -1.4160
    1MOL   O519  519   2.925   0.096   6.086  0.4668  0.3342  0.3482
    1MOL   C520  520   2.910   0.114   6.222  0.0351 -0.2851  0.3704
    1MOL   C521  521   2.786   0.038   6.280  0.8839  0.2794 -0.0490
    1MOL   C522  522   2.787   0.043   6.432  0.0715  0.6042 -0.9891
    1MOL   C523  523   2.747   0.176   6.501 -0.2740  0.3065 -0.2349
    1MOL   C524  524   2.608   0.223   6.464  0.2361  0.8484 -0.1211
    1MOL   C525  525   2.554   0.329   6.557 -0.2404  0.3841  0.3206
    1MOL   C526  526   2.417   0.381   6.511 -0.0039  1.0798 -0.4316
    1MOL   C527  527   2.363   0.518   6.570  0.4269 -0.6430  0.2703
    1MOL   C528  528   2.391   0.540   6.723  0.0103 -0.5870 -0.1810
    1MOL   C529  529   2.349   0.687   6.769 -0.5092  1.1121 -0.2797
    1MOL   O530  530   2.445   0.777   6.733 -0.1080  0.5307  0.0131
    1MOL   C531  531   2.410   0.909   6.730 -0.0926 -0.0069  0.0502
    1MOL   O532  532   2.321   0.956   6.797  0.1904 -0.1641  0.2573
    1MOL   C533  533   2.492   0.992   6.636  0.3089  0.3272  0.1323
    1MOL   C534  534   2.608   0.942   6.573 -0.0602  0.0420 -0.1286
    1MOL   C535  535   2.690   1.029   6.499  0.2736  0.2262 -0.3250
    1MOL   C536  536   2.657   1.170   6.487  0.6266 -0.3328 -0.1501
    1MOL   C537  537   2.736   1.261   6.399 -0.8515  0.3139  0.1560
    1MOL   O538  538   2.708   1.370   6.359  0.2222  0.2468 -0.0424
    1MOL   O539  539   2.846   1.191   6.355 -0.3240  0.0747  0.1152
    1MOL   C540  540   2.537   1.216   6.551 -0.1475 -0.9268 -0.3028
    1MOL   C541  541   2.451   1.124   6.618  0.4624 -0.2453 -0.2204
    1MOL   H542  542   3.002   0.084   6.274 -0.1583 -1.3425  0.1196
    1MOL   H543  543   2.902   0.218   6.253 -1.0597 -0.4088  0.4977
    1MOL   H544  544   2.785   7.909   6.255 -0.9677 -0.1417  1.6861
    1MOL   H545  545   2.699   0.086   6.237 -1.5739 -1.7642  2.4321
    1MOL   H546  546   2.705   7.954   6.458 -0.3205  1.1691 -0.7706
    1MOL   H547  547   2.886   0.012   6.465 -0.2415 -0.1782 -0.7854
    1MOL   H548  548   2.820   0.245   6.460  0.4085 -1.3587 -1.9113
    1MOL   H549  549   2.751   0.165   6.610  0.8725 -0.1786 -0.3157
    1MOL   H550  550   2.609   0.249   6.358 -0.6886 -0.2345 -0.4076
    1MOL   H551  551   2.538   0.141   6.481 -1.0549  2.0754  0.5770
    1MOL   H552  552   2.551   0.281   6.655 -1.1663 -0.3307 -0.0527
    1MOL   H553  553   2.627   0.411   6.558 -0.9899  1.0596  0.9407
    1MOL   H554  554   2.415   0.377   6.402 -0.9008 -0.1368 -0.3825
    1MOL   H555  555   2.349   0.301   6.541  2.0144 -0.9346 -1.0810
    1MOL   H556  556   2.404   0.602   6.514 -0.0604 -0.6942 -0.1729
    1MOL   H557  557   2.255   0.519   6.557  0.4500  0.3731  0.1150
    1MOL   H558  558   2.498   0.525   6.735 -0.0183 -0.4884  0.1967
    1MOL   H559  559   2.332   0.467   6.778  0.2499 -0.4654  0.2435
    1MOL   H560  560   2.342   0.687   6.878 -0.2306 -0.0961 -0.2598
    1MOL   H561  561   2.245   0.707   6.741 -1.0443  0.3723  1.1119
    1MOL   H562  562   2.633   0.837   6.576 -0.3658 -0.1397 -2.6600
    1MOL   H563  563   2.779   0.989   6.452  1.6924  1.2742  1.4420
    1MOL   H564  564   2.510   1.319   6.533 -1.3542 -1.0388  0.7348
    1MOL   H565  565   2.355   1.157   6.654  0.4441 -1.2379  0.6775
    1MOL   O566  566   2.919   1.251   6.237 -0.0569  0.0010 -0.2789
    1MOL   C567  567   3.045   1.273   6.285  0.0088  0.0700  0.1448
    1MOL   C568  568   3.112   1.374   6.197  0.1130 -0.5098  0.1505
    1MOL   C569  569   3.136   1.318   6.055  0.2057  0.4055  0.2115
    1MOL   C570  570   3.237   1.397   5.979  0.6050  0.8539 -0.0142
    1MOL   C571  571   3.293   1.323   5.860 -0.6524 -0.4136 -0.4676
    1MOL   C572  572   3.384   1.421   5.788 -0.6025  0.1466 -0.3035
    1MOL   C573  573   3.434   1.354   5.662  1.0444  0.0358  0.3920
    1MOL   C574  574   3.550   1.440   5.601 -0.2327  0.7976  0.1594
    1MOL   C575  575   3.596   1.387   5.465 -0.1586  0.7352  0.0488
    1MOL   C576  576   3.709   1.460   5.410  0.2766 -0.1969  0.1226
    1MOL   O577  577   3.821   1.465   5.494 -0.2410  0.6775  0.1003
    1MOL   C578  578   3.946   1.471   5.441 -0.2126 -0.5884  0.7921
    1MOL   O579  579   3.963   1.530   5.337  0.0714  0.4379 -0.2502
    1MOL   C580  580   4.051   1.413   5.526 -0.7275  0.2267 -0.1132
    1MOL   C581  581   4.023   1.331   5.640  0.1841 -0.1620  0.0036
    1MOL   C582  582   4.118   1.271   5.720 -0.1334  0.4144 -0.1044
    1MOL   C583  583   4.254   1.306   5.704 -0.6925  0.6144 -0.6839
    1MOL   C584  584   4.352   1.240   5.798  0.0694  0.4733 -0.0191
    1MOL   O585  585   4.314   1.164   5.883  0.1107  0.1542 -0.0191
    1MOL   O586  586   4.474   1.289   5.787 -0.0122 -0.3259  0.1670
    1MOL   C587  587   4.286   1.405   5.604  0.5256 -0.0412  0.6832
    1MOL   C588  588   4.184   1.450   5.514 -0.1046 -0.0718 -0.0013
    1MOL   H589  589   3.053   1.309   6.387  0.6133  2.6690 -0.7760
    1MOL   H590  590   3.101   1.180   6.289  0.0233  0.0943  0.5434
    1MOL   H591  591   3.211   1.399   6.233 -0.5347  2.2037  0.2234
    1MOL   H592  592   3.060   1.469   6.210  0.6518 -0.5068  2.5647
    1MOL   H593  593   3.181   1.221   6.072  3.3166  1.8595  0.6628
    1MOL   H594  594   3.050   1.296   5.992  2.0427 -1.2485 -1.7983
    1MOL   H595  595   3.328   1.409   6.038 -0.7480  0.3908  2.2057
    1MOL   H596  596   3.201   1.499   5.960 -3.2874 -0.4490 -0.0686
    1MOL   H597  597   3.342   1.229   5.883  0.0641  0.1219  0.2118
    1MOL   H598  598   3.207   1.300   5.796 -0.4490 -3.0827  0.1563
    1MOL   H599  599   3.316   1.505   5.772  1.9605  1.9985 -1.9342
    1MOL   H600  600   3.472   1.448   5.847  0.2605 -2.1461 -0.4814
    1MOL   H601  601   3.472   1.257   5.693 -2.2618 -0.4566  3.2305
    1MOL   H602  602   3.343   1.350   5.602  0.7971  0.8667  0.6970
    1MOL   H603  603   3.519   1.542   5.582 -3.4492 -0.1554  0.0363
    1MOL   H604  604   3.629   1.440   5.676 -0.6295  1.1912  0.5778
    1MOL   H605  605   3.523   1.383   5.383 -0.3958 -1.8575  0.3581
    1MOL   H606  606   3.631   1.285   5.481  1.1423  1.4005  1.4831
    1MOL   H607  607   3.669   1.555   5.376 -4.5259 -1.9749  0.4654
    1MOL   H608  608   3.740   1.407   5.320  0.0637 -0.2125  0.0591
    1MOL   H609  609   3.919   1.307   5.653  0.5558 -2.3782 -0.8836
    1MOL   H610  610   4.101   1.197   5.797 -0.4431  1.0351  0.4407
    1MOL   H611  611   4.385   1.446   5.591  1.3631 -2.3332 -0.4672
    1MOL   H612  612   4.213   1.508   5.428  1.9453  0.7780  1.2134
    1MOL   O613  613   4.564   1.260   5.896  0.2420  0.2997  0.7379
    1MOL   C614  614   4.644   1.148   5.856  0.4614 -0.0525 -0.2395
    1MOL   C615  615   4.762   1.134   5.954 -0.3354  0.1397  0.2532
    1MOL   C616  616   4.887   1.221   5.918 -0.7812  0.1171  0.3150
    1MOL   C617  617   4.867   1.375   5.932  0.7098 -0.4278  0.7679
    1MOL   C618  618   4.985   1.454   5.880 -0.3948  0.3010 -0.2321
    1MOL   C619  619   4.992   1.606   5.904  0.3724  0.7250 -0.1401
    1MOL   C620  620   5.138   1.665   5.898  0.5679 -0.3938  0.0574
    1MOL   C621  621   5.194   1.678   5.756  0.0875  0.0231  0.0144
    1MOL   C622  622   5.331   1.750   5.753  0.1724  0.3998 -0.8756
    1MOL   C623  623   5.394   1.782   5.621 -0.7930  0.2818 -0.0059
    1MOL   O624  624   5.369   1.674   5.540  0.0636 -0.6889  0.0412
    1MOL   C625  625   5.449   1.566   5.539  0.1660  0.3974 -0.0526
    1MOL   O626  626   5.552   1.552   5.606 -0.3420 -0.1260  0.4606
    1MOL   C627  627   5.414   1.480   5.425  0.0327  0.0910  0.2046
    1MOL   C628  628   5.349   1.540   5.316 -0.9327  0.0236  1.0989
    1MOL   C629  629   5.310   1.461   5.203 -0.3972 -0.4505 -0.6629
    1MOL   C630  630   5.345   1.322   5.200  0.0261 -0.2903 -0.6193
    1MOL   C631  631   5.314   1.239   5.079 -0.0902  0.1596 -0.4526
    1MOL   O632  632   5.257   1.135   5.088 -0.0257  0.7301  0.1732
    1MOL   O633  633   5.341   1.298   4.961 -0.0672 -0.3786 -0.0413
    1MOL   C634  634   5.412   1.264   5.317  0.5220  0.1181  0.2014
    1MOL   C635  635   5.450   1.341   5.432 -0.7243 -0.7942  0.7061
    1MOL   H636  636   4.569   1.069   5.859  0.4231 -0.1146 -2.0352
    1MOL   H637  637   4.680   1.169   5.755 -0.9518  0.5605 -0.6299
    1MOL   H638  638   4.810   1.036   5.955  1.1474  0.8339 -0.1549
    1MOL   H639  639   4.725   1.157   6.053 -0.4322 -3.7319  1.2195
    1MOL   H640  640   4.979   1.185   5.965 -0.2249  1.5695  0.3551
    1MOL   H641  641   4.910   1.207   5.812 -2.6684  0.1481 -0.1081
    1MOL   H642  642   4.845   1.400   6.036 -0.3542 -0.5230  0.5647
    1MOL   H643  643   4.783   1.413   5.875  0.8558  0.9631  1.4704
    1MOL   H644  644   5.061   1.404   5.939  2.8148  2.7206 -2.1103
    1MOL   H645  645   4.994   1.436   5.772 -1.5159 -0.3972 -0.2275
    1MOL   H646  646   4.929   1.664   5.837 -0.7831  1.7028  1.7515
    1MOL   H647  647   4.953   1.630   6.003  0.3365  0.2771 -0.0456
    1MOL   H648  648   5.141   1.759   5.953 -1.3008 -1.3960  1.9660
    1MOL   H649  649   5.213   1.608   5.952  1.0628  0.6426  0.4808
    1MOL   H650  650   5.192   1.579   5.710  0.3815 -0.3645  0.8300
    1MOL   H651  651   5.128   1.741   5.696  1.5065  1.5768  0.0515
    1MOL   H652  652   5.408   1.696   5.809  0.7001  0.4270 -1.5586
    1MOL   H653  653   5.318   1.842   5.809  2.1189  1.0503 -1.4109
    1MOL   H654  654   5.500   1.808   5.617 -1.0867  1.5142  0.0771
    1MOL   H655  655   5.336   1.864   5.580 -0.9773  0.5311  0.7546
    1MOL   H656  656   5.333   1.647   5.315 -1.6439 -0.0696  2.2439
    1MOL   H657  657   5.261   1.504   5.117  1.2043  0.8492 -0.9377
    1MOL   H658  658   5.446   1.162   5.314 -0.4427 -0.2612  1.8825
    1MOL   H659  659   5.503   1.297   5.515 -0.8798 -0.2670  1.0900
    1MOL   O660  660   5.276   1.238   4.842 -0.1320  0.2356  0.3028
    1MOL   C661  661   5.377   1.169   4.773  0.7786 -0.7614  0.2312
    1MOL   C662  662   5.331   1.129   4.634  0.3804  0.2006  0.5429
    1MOL   C663  663   5.439   1.037   4.572 -0.2035  0.3436 -0.0922
    1MOL   C664  664   5.390   0.987   4.437 -0.0509 -0.2942 -0.4474
    1MOL   C665  665   5.481   0.874   4.391 -0.1572  0.5193  0.1994
    1MOL   C666  666   5.444   0.807   4.259 -0.0075  0.3409 -0.7606
    1MOL   C667  667   5.530   0.693   4.221 -0.5112 -0.1429 -0.0190
    1MOL   C668  668   5.484   0.621   4.094 -0.0725  0.0707 -0.4209
    1MOL   C669  669   5.358   0.529   4.118 -0.1084  0.1736  0.0517
    1MOL   C670  670   5.241   0.544   4.018  0.1025  0.0149 -0.2289
    1MOL   O671  671   5.193   0.677   4.039  0.2109 -0.1431  0.4300
    1MOL   C672  672   5.063   0.699   4.002 -0.3557 -0.2787  1.0231
    1MOL   O673  673   4.989   0.615   3.956 -0.6853 -0.2331 -0.0205
    1MOL   C674  674   5.016   0.836   4.034 -0.2626 -0.0960  0.2065
    1MOL   C675  675   4.889   0.879   4.009  0.1211 -0.6015  0.9428
    1MOL   C676  676   4.852   1.009   4.032 -0.2189 -0.2596 -0.0097
    1MOL   C677  677   4.940   1.104   4.087 -0.2775 -0.3336  0.2141
    1MOL   C678  678   4.891   1.248   4.092  0.3387  0.0614 -0.5352
    1MOL   O679  679   4.783   1.279   4.033 -0.6032 -0.5932 -0.2876
    1MOL   O680  680   4.971   1.329   4.154 -0.4446 -0.7803 -0.5753
    1MOL   C681  681   5.071   1.062   4.126 -0.0275 -0.1432  0.7336
    1MOL   C682  682   5.105   0.929   4.103 -0.0798  0.0115 -0.1859
    1MOL   H683  683   5.467   1.231   4.775 -0.7913  1.5314  2.3205
    1MOL   H684  684   5.387   1.084   4.840 -1.3030 -0.0758  1.4694
    1MOL   H685  685   5.323   1.214   4.566  0.4870  1.0248  1.5443
    1MOL   H686  686   5.233   1.083   4.630 -0.4396  1.8324  1.4402
    1MOL   H687  687   5.529   1.098   4.559 -0.0980  0.1408 -0.3117
    1MOL   H688  688   5.472   0.956   4.637 -0.1099 -0.8449 -1.6151
    1MOL   H689  689   5.390   1.070   4.366 -0.8652  0.5430  0.5143
    1MOL   H690  690   5.288   0.951   4.447 -1.4031  2.5835 -3.1405
    1MOL   H691  691   5.584   0.908   4.381 -0.3674  1.0674 -0.1478
    1MOL   H692  692   5.495   0.801   4.470 -3.2911 -0.9306 -0.5126
    1MOL   H693  693   5.339   0.778   4.266 -0.1513  0.8881 -0.6317
    1MOL   H694  694   5.441   0.880   4.178 -0.4572  0.8605 -0.2803
    1MOL   H695  695   5.631   0.731   4.204 -1.1830  1.5039 -0.3953
    1MOL   H696  696   5.527   0.630   4.310  1.3319  1.1924  1.0228
    1MOL   H697  697   5.470   0.681   4.004  2.6866  0.1800 -0.8341
    1MOL   H698  698   5.562   0.553   4.059  0.6643  0.4207  0.5405
    1MOL   H699  699   5.318   0.522   4.220 -1.3115 -0.1809 -0.4360
    1MOL   H700  700   5.397   0.427   4.110  2.5778  1.1821  0.0102
    1MOL   H701  701   5.165   0.471   4.044  0.3645 -0.0324  0.4385
    1MOL   H702  702   5.275   0.534   3.915  0.0077 -0.8573 -0.1785
    1MOL   H703  703   4.826   0.812   3.952 -1.3614 -0.4446  2.3653
    1MOL   H704  704   4.749   1.034   4.014 -0.4495 -1.7649 -0.8024
    1MOL   H705  705   5.138   1.128   4.179 -2.0168  0.8488  2.1028
    1MOL   H706  706   5.202   0.896   4.135  0.4596  1.3326 -0.4432
    1MOL   O707  707   4.909   1.463   4.198 -0.3068  0.1362  0.4417
    1MOL   C708  708   4.932   1.561   4.099  0.2512 -0.8189 -0.0885
    1MOL   C709  709   4.911   1.707   4.146  0.5271  0.5230 -0.4404
    1MOL   C710  710   4.761   1.727   4.183 -0.3351  0.4975  0.3337
    1MOL   C711  711   4.721   1.869   4.208 -0.1029 -0.3718 -0.2442
    1MOL   C712  712   4.574   1.895   4.256  0.0069  0.0495 -0.3626
    1MOL   C713  713   4.547   2.040   4.298 -0.2289 -0.2155  0.4282
    1MOL   C714  714   4.404   2.049   4.356 -0.1189 -0.0033  0.4330
    1MOL   C715  715   4.362   2.189   4.398 -0.6382 -0.0772  0.0783
    1MOL   C716  716   4.215   2.191   4.438 -0.0284 -0.1740 -0.1211
    1MOL   C717  717   4.158   2.322   4.483 -0.0737  0.0259  0.1549
    1MOL   O718  718   4.177   2.349   4.619 -0.0950 -0.3049 -0.0593
    1MOL   C719  719   4.086   2.315   4.708  0.5016  0.0547  0.8712
    1MOL   O720  720   3.972   2.284   4.681  0.8449 -0.5218  0.0981
    1MOL   C721  721   4.130   2.333   4.853  0.0636 -0.1974 -0.7828
    1MOL   C722  722   4.251   2.399   4.876 -0.6991 -0.5037 -0.3567
    1MOL   C723  723   4.294   2.405   5.006 -0.7094  0.1195  0.4368
    1MOL   C724  724   4.217   2.356   5.114  0.8850 -0.0495  0.6309
    1MOL   C725  725   4.272   2.374   5.250  0.4962  0.0736  0.0437
    1MOL   O726  726   4.230   2.312   5.350 -0.0029 -0.3454 -0.3145
    1MOL   O727  727   4.366   2.466   5.247  0.1355 -0.0647 -0.3213
    1MOL   C728  728   4.090   2.290   5.092 -0.1041  0.5188 -0.3160
    1MOL   C729  729   4.056   2.268   4.956  0.1537  0.9478 -0.8558
    1MOL   H730  730   5.028   1.545   4.050  0.7787  0.4737  0.4843
    1MOL   H731  731   4.873   1.548   4.009  0.4510 -0.3365 -0.2926
    1MOL   H732  732   4.928   1.783   4.070  1.6738  2.0724  1.3455
    1MOL   H733  733   4.975   1.728   4.232  1.1130  1.8115 -1.1788
    1MOL   H734  734   4.703   1.697   4.096 -1.7386  2.4522  0.5684
    1MOL   H735  735   4.740   1.671   4.274  1.7622 -1.2597 -0.2136
    1MOL   H736  736   4.718   1.924   4.114 -3.4566 -0.0704 -0.0279
    1MOL   H737  737   4.794   1.922   4.269 -0.9285 -0.4182  0.8130
    1MOL   H738  738   4.491   1.860   4.195 -0.2525  0.3382 -0.1793
    1MOL   H739  739   4.568   1.830   4.344 -1.0892  1.1690  0.4019
    1MOL   H740  740   4.612   2.063   4.382 -0.0519  1.5524 -0.1506
    1MOL   H741  741   4.566   2.109   4.215 -0.6503 -1.7388 -0.9637
    1MOL   H742  742   4.330   2.019   4.282  0.8585 -1.8773  0.1846
    1MOL   H743  743   4.384   1.972   4.431  0.1543 -1.7575 -1.2616
    1MOL   H744  744   4.426   2.237   4.472 -2.3808  1.0557  0.8841
    1MOL   H745  745   4.375   2.253   4.311 -1.1131 -0.2638 -0.1328
    1MOL   H746  746   4.199   2.112   4.512  0.0045 -0.4778 -0.4414
    1MOL   H747  747   4.165   2.157   4.348  0.6431  2.0563 -1.3790
    1MOL   H748  748   4.053   2.335   4.454 -0.1722 -0.0128  0.4937
    1MOL   H749  749   4.203   2.404   4.427 -1.6038 -0.3130 -1.6072
    1MOL   H750  750   4.304   2.438   4.790 -1.3225 -0.3086 -0.6518
    1MOL   H751  751   4.384   2.461   5.026 -0.7378 -0.0104  0.9494
    1MOL   H752  752   4.041   2.244   5.176  2.3109 -1.4498  0.0583
    1MOL   H753  753   3.971   2.203   4.938  0.5516 -0.6821  2.8018
    1MOL   O754  754   4.427   2.508   5.380 -0.2965 -0.0651 -0.3377
    1MOL   C755  755   4.370   2.639   5.412 -0.7178 -0.2005  0.3617
    1MOL   C756  756   4.396   2.677   5.560  0.0161  0.0707  0.6097
    1MOL   C757  757   4.333   2.806   5.604 -0.3954  0.2596  0.8723
    1MOL   C758  758   4.353   2.829   5.761 -0.2016  0.1969  0.1653
    1MOL   C759  759   4.293   2.722   5.850  0.4713  0.0714  0.6231
    1MOL   C760  760   4.155   2.679   5.811  0.7974  0.9229 -0.2308
    1MOL   C761  761   4.076   2.628   5.935  0.1628 -0.1591  0.9060
    1MOL   C762  762   3.936   2.592   5.882  0.0973 -0.8104  0.1955
    1MOL   C763  763   3.837   2.525   5.985  0.0649  0.1136 -0.1763
    1MOL   C764  764   3.699   2.491   5.924  0.3255  0.4142 -1.0353
    1MOL   O765  765   3.638   2.615   5.896  0.2087 -0.2534 -0.2098
    1MOL   C766  766   3.529   2.621   5.816  0.2130  0.4680  0.3428
    1MOL   O767  767   3.479   2.519   5.774 -0.3979  0.5271  0.1003
    1MOL   C768  768   3.485   2.761   5.792  0.3305 -0.0555 -0.5183
    1MOL   C769  769   3.387   2.791   5.697 -0.0039  0.6557 -0.1584
    1MOL   C770  770   3.352   2.923   5.655 -0.8060  0.4355  0.1990
    1MOL   C771  771   3.421   3.033   5.705 -0.9190  0.1079 -0.0599
    1MOL   C772  772   3.400   3.175   5.665  0.3245  0.2888 -0.2442
    1MOL   O773  773   3.333   3.216   5.570 -0.1509 -0.1962 -0.2014
    1MOL   O774  774   3.458   3.270   5.753  0.2738 -0.0084 -0.7286
    1MOL   C775  775   3.523   3.003   5.803  0.1510  0.4607  0.1513
    1MOL   C776  776   3.551   2.872   5.848  0.3987 -0.2201  0.4348
    1MOL   H777  777   4.407   2.713   5.341  2.0398 -1.4458  0.4523
    1MOL   H778  778   4.263   2.620   5.408 -0.2797 -3.6108  2.9663
    1MOL   H779  779   4.505   2.676   5.560  0.0211  0.9197  0.8099
    1MOL   H780  780   4.369   2.590   5.620  0.2280 -0.8618 -0.6209
    1MOL   H781  781   4.353   2.894   5.543  0.6929 -0.3322  0.3715
    1MOL   H782  782   4.230   2.793   5.572  0.6881  1.3205 -3.3314
    1MOL   H783  783   4.304   2.920   5.794  0.0465  0.2727  0.3240
    1MOL   H784  784   4.458   2.841   5.787  0.6661 -4.9078 -0.4586
    1MOL   H785  785   4.370   2.648   5.871  0.7178  0.6223  1.6920
    1MOL   H786  786   4.274   2.763   5.949  0.0394  0.7474  0.2672
    1MOL   H787  787   4.096   2.764   5.776 -1.1861 -1.2122 -2.2883
    1MOL   H788  788   4.147   2.604   5.733 -1.8374  0.1583  0.7145
    1MOL   H789  789   4.126   2.537   5.969  1.1519 -0.4033 -1.1046
    1MOL   H790  790   4.073   2.691   6.023  0.1235  0.6894  0.3039
    1MOL   H791  791   3.896   2.689   5.854 -0.2803 -1.4472 -1.5167
    1MOL   H792  792   3.952   2.540   5.788  1.2831 -1.5064  0.7672
    1MOL   H793  793   3.817   2.594   6.067 -0.8767 -2.6179  1.9444
    1MOL   H794  794   3.888   2.437   6.022 -0.2772 -0.1837 -0.4080
    1MOL   H795  795   3.645   2.425   5.992 -3.2418  0.0041 -4.1276
    1MOL   H796  796   3.718   2.426   5.839  1.2536 -2.7737  1.5264
    1MOL   H797  797   3.343   2.706   5.647  0.7986 -0.0218  0.2770
    1MOL   H798  798   3.288   2.948   5.572 -0.2684 -1.7256 -0.9094
    1MOL   H799  799   3.592   3.078   5.839 -0.2224  1.4706 -1.2041
    1MOL   H800  800   3.625   2.863   5.926  2.1995  1.0487 -1.0774
    1MOL   O801  801   3.372   3.395   5.762  0.0181  0.2512 -0.4957
    1MOL   C802  802   3.268   3.377   5.858  0.0399  0.0390  0.7157
    1MOL   C803  803   3.321   3.359   6.000  0.0185 -0.3130  0.2569
    1MOL   C804  804   3.383   3.490   6.058 -0.3486 -0.4705  0.5583
    1MOL   C805  805   3.273   3.603   6.083  0.1556 -0.0492  0.9087
    1MOL   C806  806   3.347   3.727   6.135  0.0541  0.3943  0.5592
    1MOL   C807  807   3.251   3.844   6.169  0.2473 -0.1514  0.1777
    1MOL   C808  808   3.318   3.970   6.230  0.3658 -0.8908  0.7346
    1MOL   C809  809   3.237   4.102   6.237  0.1029 -0.1885  0.3391
    1MOL   C810  810   3.201   4.164   6.094 -0.7786  0.0493  0.2232
    1MOL   C811  811   3.128   4.298   6.098 -0.9421  0.2665  0.5501
    1MOL   O812  812   3.186   4.377   6.202  0.1932 -0.6276  0.5339
    1MOL   C813  813   3.145   4.502   6.229  0.3692 -0.1173  0.2351
    1MOL   O814  814   3.043   4.547   6.173 -0.0296  0.2623 -0.1602
    1MOL   C815  815   3.224   4.583   6.339 -0.3022 -0.1339  0.2218
    1MOL   C816  816   3.189   4.718   6.378 -0.6006  0.2002  0.1012
    1MOL   C817  817   3.253   4.785   6.483  0.4990 -0.1150  0.1836
    1MOL   C818  818   3.355   4.714   6.557 -0.6115  0.2248  0.6173
    1MOL   C819  819   3.426   4.783   6.665  0.1162 -0.3281 -0.0020
    1MOL   O820  820   3.512   4.733   6.734  0.5316 -0.1803 -0.4599
    1MOL   O821  821   3.398   4.911   6.676  0.4522 -0.0012  0.2000
    1MOL   C822  822   3.392   4.585   6.520 -0.0629  0.5171  0.0934
    1MOL   C823  823   3.331   4.523   6.406 -0.0090 -0.0938  0.1146
    1MOL   H824  824   3.212   3.470   5.845 -1.3879 -0.7634  0.9627
    1MOL   H825  825   3.210   3.293   5.820  1.5278  0.0203 -1.6260
    1MOL   H826  826   3.404   3.288   5.999 -1.0437 -1.5965 -2.8828
    1MOL   H827  827   3.249   3.321   6.073  0.2790 -0.0380  0.6590
    1MOL   H828  828   3.439   3.473   6.150 -1.4756  0.0696  1.3612
    1MOL   H829  829   3.457   3.522   5.985  1.3395  1.8642  3.1889
    1MOL   H830  830   3.196   3.560   6.147 -2.5378  0.5289 -1.8259
    1MOL   H831  831   3.221   3.629   5.991 -1.4910  0.1816  1.8895
    1MOL   H832  832   3.389   3.685   6.226  1.2431  0.5881  0.1016
    1MOL   H833  833   3.423   3.770   6.071 -0.1229  1.8397  1.2916
    1MOL   H834  834   3.195   3.873   6.081  1.8133  1.4782 -0.3160
    1MOL   H835  835   3.180   3.809   6.244 -0.0257  1.4860  0.7059
    1MOL   H836  836   3.338   3.938   6.332  2.3420  0.8710  0.9490
    1MOL   H837  837   3.412   3.988   6.178 -0.7680  1.0268 -0.7113
    1MOL   H838  838   3.143   4.088   6.291  0.6120 -1.4491  0.9340
    1MOL   H839  839   3.288   4.179   6.295  3.1261 -0.9112 -1.2874
    1MOL   H840  840   3.153   4.098   6.021  0.4340  0.9873 -1.4666
    1MOL   H841  841   3.296   4.193   6.050 -1.4010  1.9824  0.1174
    1MOL   H842  842   3.022   4.280   6.118 -1.0649  0.9652  0.5415
    1MOL   H843  843   3.147   4.345   6.001 -0.5573 -0.2114  0.3876
    1MOL   H844  844   3.116   4.773   6.320  2.3026  1.0410 -2.8938
    1MOL   H845  845   3.209   4.881   6.507 -3.1765 -2.2531  2.4665
    1MOL   H846  846   3.480   4.548   6.571  1.3990  1.6732 -1.5230
    1MOL   H847  847   3.378   4.430   6.378  0.5986 -0.0027  0.7977
    1MOL   O848  848   3.476   4.991   6.779  0.5124  0.2465  0.1650
    1MOL   C849  849   3.567   5.081   6.715  0.1503  0.5782 -0.3104
    1MOL   C850  850   3.492   5.181   6.627 -0.2719 -0.7646 -0.5875
    1MOL   C851  851   3.589   5.277   6.554  0.7083  0.1525 -0.7143
    1MOL   C852  852   3.674   5.205   6.448  0.5092  0.1640  0.8686
    1MOL   C853  853   3.584   5.134   6.341  0.2105  0.0306  1.1262
    1MOL   C854  854   3.674   5.102   6.220  0.4290 -0.0645 -0.2385
    1MOL   C855  855   3.615   5.021   6.108 -0.0927 -0.3340 -0.5055
    1MOL   C856  856   3.569   4.881   6.160  0.5658 -0.0448 -0.5715
    1MOL   C857  857   3.532   4.789   6.046 -0.1904 -0.2274  0.4623
    1MOL   C858  858   3.460   4.665   6.103  0.0210  0.1045 -0.2687
    1MOL   O859  859   3.564   4.584   6.156 -0.2971 -0.2418  0.3768
    1MOL   C860  860   3.553   4.450   6.145  0.2286  0.5496  0.6161
    1MOL   O861  861   3.474   4.395   6.059 -0.4344  0.1163  0.3627
    1MOL   C862  862   3.639   4.374   6.248  0.2769  0.0240  0.0387
    1MOL   C863  863   3.694   4.428   6.372  0.0160  0.7049  0.4513
    1MOL   C864  864   3.767   4.345   6.457 -0.0102  0.4826 -0.4392
    1MOL   C865  865   3.791   4.213   6.420 -0.0349  0.2049  0.1352
    1MOL   C866  866   3.882   4.133   6.514 -0.4051 -0.4565  1.0869
    1MOL   O867  867   3.929   4.175   6.622  0.2150  0.5711  0.2919
    1MOL   O868  868   3.906   4.006   6.463  0.7941 -0.2174 -0.1013
    1MOL   C869  869   3.738   4.154   6.298 -0.7719 -0.7783 -0.3585
    1MOL   C870  870   3.655   4.237   6.218  0.3143 -0.3877  0.2601
    1MOL   H871  871   3.624   5.132   6.792  1.0898 -2.0331  0.7508
    1MOL   H872  872   3.632   5.013   6.660 -1.9747 -1.4490 -0.3941
    1MOL   H873  873   3.428   5.235   6.697  0.4414 -0.5499 -0.0929
    1MOL   H874  874   3.426   5.128   6.559  0.1599 -2.3474  0.1761
    1MOL   H875  875   3.537   5.355   6.499 -1.1710 -0.3912  0.2273
    1MOL   H876  876   3.663   5.320   6.621  0.5984  1.4692 -1.4162
    1MOL   H877  877   3.754   5.140   6.485 -0.9657 -3.3316 -1.8060
    1MOL   H878  878   3.727   5.287   6.400  0.8841  1.5268  3.4970
    1MOL   H879  879   3.549   5.039   6.379 -1.6858 -0.4774 -1.7283
    1MOL   H880  880   3.500   5.201   6.324  0.0979 -0.8426 -2.1237
    1MOL   H881  881   3.724   5.193   6.185 -1.5299  1.1179 -0.0381
    1MOL   H882  882   3.753   5.047   6.271  0.0688 -2.1305 -1.8502
    1MOL   H883  883   3.550   5.075   6.039 -2.0743 -0.2401  1.4019
    1MOL   H884  884   3.698   4.992   6.044 -0.0996  2.1003 -1.6909
    1MOL   H885  885   3.655   4.834   6.208  0.3239  1.5556  1.5038
    1MOL   H886  886   3.491   4.879   6.236  0.3718 -0.6039 -0.7853
    1MOL   H887  887   3.626   4.758   5.999 -0.9225 -1.7650 -0.0132
    1MOL   H888  888   3.468   4.840   5.974  0.5567  0.7331  0.4611
    1MOL   H889  889   3.407   4.611   6.024 -0.0289 -1.5051  0.8534
    1MOL   H890  890   3.393   4.684   6.187 -0.0035  2.7063 -0.8151
    1MOL   H891  891   3.687   4.530   6.405  0.2501  0.3262  1.6935
    1MOL   H892  892   3.802   4.384   6.551  1.3203 -1.3714 -0.1308
    1MOL   H893  893   3.754   4.055   6.258  0.5126 -0.3982 -0.8185
    1MOL   H894  894   3.605   4.195   6.132 -2.4554  0.2265  1.5229
    1MOL   O895  895   4.016   3.938   6.535 -0.1840  0.6464  0.4405
    1MOL   C896  896   4.137   3.955   6.467 -0.3340  0.2048 -0.6202
    1MOL   C897  897   4.248   3.921   6.565  0.1990 -0.2918  0.1773
    1MOL   C898  898   4.379   3.977   6.525  0.1866  0.1078 -0.0456
    1MOL   C899  899   4.381   4.138   6.546 -0.4627  0.6402  0.3561
    1MOL   C900  900   4.523   4.193   6.575 -0.5085 -0.1355  0.1116
    1MOL   C901  901   4.547   4.328   6.637  0.2771  0.1035  0.3234
    1MOL   C902  902   4.692   4.350   6.681  0.3988  0.3641 -0.3883
    1MOL   C903  903   4.720   4.491   6.746 -0.1234  0.1729 -0.6081
    1MOL   C904  904   4.865   4.499   6.786 -0.1232  0.2439 -0.3747
    1MOL   C905  905   4.895   4.609   6.896  0.0585  0.8544  0.5806
    1MOL   O906  906   4.854   4.739   6.859 -0.6759 -0.3665 -0.5821
    1MOL   C907  907   4.890   4.852   6.931  0.3872 -0.6407  0.0411
    1MOL   O908  908   4.969   4.850   7.024  0.4356 -0.5481 -0.2315
    1MOL   C909  909   4.818   4.973   6.882 -0.3529  0.0574 -0.7957
    1MOL   C910  910   4.836   5.097   6.951 -0.0506 -0.2956  0.9312
    1MOL   C911  911   4.769   5.216   6.907 -0.2966 -0.3223  0.3992
    1MOL   C912  912   4.685   5.213   6.793  0.0438 -0.0823  0.4209
    1MOL   C913  913   4.626   5.340   6.728 -0.4087 -0.0800 -0.0814
    1MOL   O914  914   4.560   5.421   6.789 -0.2331 -0.5814 -0.3987
    1MOL   O915  915   4.639   5.360   6.593 -0.3466  0.0677 -0.2677
    1MOL   C916  916   4.675   5.094   6.725 -0.1373  0.1486 -0.1225
    1MOL   C917  917   4.743   4.974   6.762 -0.1819  0.0639 -0.2299
    1MOL   H918  918   4.154   3.893   6.379  1.5789 -0.0563 -0.0994
    1MOL   H919  919   4.145   4.055   6.425  0.3546  0.7391  0.7630
    1MOL   H920  920   4.256   3.814   6.584 -2.3185 -0.1624  2.2459
    1MOL   H921  921   4.224   3.961   6.663 -0.4544  3.4764 -1.4522
    1MOL   H922  922   4.448   3.928   6.594  1.3066  1.1398 -0.4271
    1MOL   H923  923   4.402   3.945   6.424  0.4400  0.9372 -0.2570
    1MOL   H924  924   4.303   4.154   6.622  1.0036  0.5872  1.9062
    1MOL   H925  925   4.333   4.187   6.461  0.0413 -1.9087 -1.4476
    1MOL   H926  926   4.565   4.126   6.649  4.2303  2.0738 -0.4178
    1MOL   H927  927   4.576   4.179   6.481 -0.5155 -2.3498  0.4124
    1MOL   H928  928   4.524   4.402   6.560  3.4104  1.9844  1.1185
    1MOL   H929  929   4.484   4.340   6.725  0.2964 -1.2657  0.5302
    1MOL   H930  930   4.722   4.262   6.737 -2.6225 -1.0349 -0.8673
    1MOL   H931  931   4.756   4.338   6.593  1.5776  0.8389  0.3992
    1MOL   H932  932   4.702   4.576   6.681  0.7421  1.3406  0.6458
    1MOL   H933  933   4.671   4.498   6.843  0.6866 -0.3847 -0.1451
    1MOL   H934  934   4.929   4.512   6.699  0.4086  3.1198  0.3870
    1MOL   H935  935   4.894   4.408   6.837  1.2132 -1.1738 -3.5759
    1MOL   H936  936   5.001   4.606   6.917  0.0158  1.1774  0.8538
    1MOL   H937  937   4.839   4.581   6.985  0.8996  1.5352  1.3313
    1MOL   H938  938   4.893   5.096   7.042  0.4682 -2.2662  0.6041
    1MOL   H939  939   4.783   5.309   6.960  1.7415 -0.3258 -0.0763
    1MOL   H940  940   4.628   5.081   6.628 -0.6780 -1.6379  0.3532
    1MOL   H941  941   4.733   4.884   6.703 -0.0016 -0.5159  0.6129
    1MOL   H942  942   4.572   5.413   6.552 -3.1398 -4.1589 -1.4688
    2MOL     O1  943   7.418   0.184   1.411  0.2928 -0.4245  0.5040
    2MOL     C2  944   7.299   0.229   1.460  0.0802 -0.3552  0.1665
    2MOL     C3  945   7.298   0.383   1.480  0.1289 -0.1199  0.5562
    2MOL     C4  946   7.161   0.432   1.525  0.4357  0.3086  0.0611
    2MOL     C5  947   7.154   0.580   1.579 -0.0050 -0.0419  0.2882
    2MOL     C6  948   7.024   0.633   1.640  0.6262  0.1508  0.0505
    2MOL     C7  949   7.039   0.787   1.661 -0.0068  0.0975 -0.0183
    2MOL     C8  950   6.923   0.834   1.749 -0.0926 -0.2216 -0.0464
    2MOL     C9  951   6.900   0.984   1.731  0.0532 -0.6065  0.7548
    2MOL    C10  952   6.783   1.033   1.822 -1.2226  0.0389  0.3913
    2MOL    C11  953   6.786   1.182   1.845 -0.1663  0.3765 -0.4459
    2MOL    O12  954   6.734   1.268   1.742 -0.3038 -0.4555 -0.1551
    2MOL    C13  955   6.740   1.408   1.757  0.8002 -0.2245  0.0653
    2MOL    O14  956   6.802   1.462   1.849 -0.3429 -0.2634 -0.2896
    2MOL    C15  957   6.654   1.479   1.651  0.8659 -0.2641 -0.4741
    2MOL    C16  958   6.575   1.411   1.549 -0.4301 -0.2658  0.0643
    2MOL    C17  959   6.495   1.484   1.461  0.2173  0.2436  0.2918
    2MOL    C18  960   6.485   1.628   1.471  0.8664 -0.1081  0.5197
    2MOL    C19  961   6.386   1.703   1.399  0.0313  0.8567  0.0824
    2MOL    O20  962   6.370   1.822   1.404  0.7503 -0.2624  0.1543
    2MOL    O21  963   6.298   1.619   1.318 -0.3658  0.2736  0.1100
    2MOL    C22  964   6.561   1.693   1.574  0.8439 -0.1227  0.4510
    2MOL    C23  965   6.646   1.621   1.658  0.6881 -0.7552  0.2580
    2MOL    H24  966   7.210   0.200   1.403  0.6163  0.9155 -1.3412
    2MOL    H25  967   7.285   0.179   1.556  0.8882  1.3092  1.1626
    2MOL    H26  968   7.309   0.432   1.384  3.2168  3.5613  2.6588
    2MOL    H27  969   7.366   0.429   1.552 -0.9833  1.9415  0.3469
    2MOL    H28  970   7.084   0.419   1.449 -0.4778  0.3418  0.9659
    2MOL    H29  971   7.126   0.367   1.605  1.8268  0.8345  1.1146
    2MOL    H30  972   7.176   0.643   1.493 -0.2968 -1.2690 -0.7015
    2MOL    H31  973   7.224   0.576   1.663  0.0573  1.9577  0.3470
    2MOL    H32  974   6.938   0.615   1.576  0.7926  0.6685 -0.3186
    2MOL    H33  975   7.006   0.597   1.742 -2.1024 -1.0751 -0.8174
    2MOL    H34  976   7.135   0.809   1.707  0.8600  2.1229 -2.6832
    2MOL    H35  977   7.040   0.826   1.559 -1.5122  0.8093  0.2269
    2MOL    H36  978   6.828   0.791   1.718  1.0009 -1.9772 -1.0148
    2MOL    H37  979   6.944   0.805   1.852 -0.1099  0.6010  0.1923
    2MOL    H38  980   6.990   1.044   1.746  0.3231 -1.4714  2.8389
    2MOL    H39  981   6.876   0.996   1.626 -0.3097 -2.6920  0.5772
    2MOL    H40  982   6.782   0.992   1.924 -2.9450  1.2932  0.9050
    2MOL    H41  983   6.685   0.998   1.789 -0.7539 -0.4441 -0.4842
    2MOL    H42  984   6.889   1.210   1.865  1.1333 -2.6980 -2.3571
    2MOL    H43  985   6.716   1.194   1.928  1.1285  0.7252  0.6040
    2MOL    H44  986   6.583   1.305   1.534  1.9880  0.3494 -3.6753
    2MOL    H45  987   6.439   1.428   1.388 -1.0922  1.6787  0.1647
    2MOL    H46  988   6.560   1.801   1.582 -0.0377 -0.2187  1.6725
    2MOL    H47  989   6.708   1.669   1.732  0.4665 -1.1046  0.6737
    2MOL    H48  990   7.454   0.249   1.352 -0.7597 -1.5201 -1.3978
    2MOL    O49  991   6.209   1.706   1.229  0.0911  0.2662  0.3054
    2MOL    C50  992   6.273   1.729   1.105  0.2250 -0.2739 -0.2596
    2MOL    C51  993   6.197   1.834   1.024 -0.8815 -0.2493  0.2299
    2MOL    C52  994   6.218   1.979   1.074  0.0775  0.3441 -0.4011
    2MOL    C53  995   6.129   2.079   0.987 -0.2716 -0.2729 -0.1527
    2MOL    C54  996   6.132   2.221   1.033  0.5245 -0.4224  0.8472
    2MOL    C55  997   6.077   2.325   0.929  0.2227  0.3021  0.1829
    2MOL    C56  998   6.091   2.466   0.986  0.0318 -0.7879  0.5465
    2MOL    C57  999   5.996   2.562   0.900 -0.0357  0.4530 -0.0629
    2MOL    C58 1000   5.987   2.709   0.940  0.3466 -0.1656 -0.2493
    2MOL    C59 1001   5.904   2.740   1.066  0.0842  0.3063  0.0104
    2MOL    O60 1002   5.911   2.880   1.093 -0.2884  0.3367 -0.5703
    2MOL    C61 1003   5.800   2.941   1.150 -0.5247 -0.7409  0.3760
    2MOL    O62 1004   5.694   2.887   1.179 -0.1237  0.0632  0.2648
    2MOL    C63 1005   5.820   3.088   1.176  0.0741 -0.8250  0.0066
    2MOL    C64 1006   5.933   3.159   1.123  0.5778 -0.6146 -0.0848
    2MOL    C65 1007   5.967   3.294   1.145 -0.2209  0.6903 -0.0580
    2MOL    C66 1008   5.873   3.368   1.222  0.2513 -0.9099  0.6638
    2MOL    C67 1009   5.891   3.512   1.251 -0.3540 -0.3828  0.4519
    2MOL    O68 1010   5.817   3.577   1.327 -0.1132 -0.3046 -0.3800
    2MOL    O69 1011   6.004   3.563   1.194  0.4774 -0.4363 -0.4477
    2MOL    C70 1012   5.764   3.303   1.281 -0.1166 -0.3654 -0.2240
    2MOL    C71 1013   5.737   3.166   1.258  0.9120 -0.1605 -0.0583
    2MOL    H72 1014   6.379   1.751   1.109  0.5007 -1.6958  0.6161
    2MOL    H73 1015   6.261   1.638   1.046  0.3523 -1.1613  1.0508
    2MOL    H74 1016   6.092   1.809   1.038 -0.7762 -0.4734  0.6475
    2MOL    H75 1017   6.222   1.811   0.920 -1.0798  0.3996  0.0376
    2MOL    H76 1018   6.181   1.977   1.176  1.7201  0.4000  0.2221
    2MOL    H77 1019   6.323   2.010   1.071  0.1360  0.0945 -1.0672
    2MOL    H78 1020   6.025   2.047   0.988  0.3245 -2.2685  0.6639
    2MOL    H79 1021   6.156   2.071   0.881  3.4761  0.6018  0.6490
    2MOL    H80 1022   6.080   2.220   1.129  1.5161  0.1008  1.3928
    2MOL    H81 1023   6.236   2.244   1.052  1.1538 -4.3119  2.5797
    2MOL    H82 1024   6.133   2.323   0.835 -0.6878  0.4691 -0.3697
    2MOL    H83 1025   5.970   2.317   0.907  0.0156  1.1355  0.8396
    2MOL    H84 1026   6.074   2.476   1.094  3.1214  1.7530  0.8878
    2MOL    H85 1027   6.197   2.492   0.982  0.1397 -1.4434 -1.0567
    2MOL    H86 1028   6.040   2.565   0.800  1.4567 -0.6933  0.5529
    2MOL    H87 1029   5.902   2.511   0.880 -0.4759  1.6516 -1.1946
    2MOL    H88 1030   5.951   2.773   0.859 -0.4970 -0.2148  0.0839
    2MOL    H89 1031   6.091   2.741   0.951  0.5065 -1.2631  1.6882
    2MOL    H90 1032   5.916   2.672   1.151 -1.8989 -0.8367 -0.5896
    2MOL    H91 1033   5.799   2.725   1.039 -0.0594  2.1069 -0.5372
    2MOL    H92 1034   6.003   3.105   1.062  0.5834 -1.0564  0.3073
    2MOL    H93 1035   6.060   3.321   1.097  0.7287 -1.5593  0.4448
    2MOL    H94 1036   5.691   3.353   1.343 -1.0048  0.0715 -1.5796
    2MOL    H95 1037   5.650   3.113   1.296  0.5837 -0.0040 -0.5828
    2MOL    O96 1038   6.015   3.713   1.215 -0.4294  0.2406 -0.4652
    2MOL    C97 1039   6.112   3.734   1.317  1.2391  0.2265 -0.2337
    2MOL    C98 1040   6.099   3.880   1.355  0.3460 -0.2641  0.0030
    2MOL    C99 1041   5.952   3.906   1.397 -0.1039  0.1382 -0.2231
    2MOL   C100 1042   5.947   4.033   1.481  0.2904  0.0810 -0.1900
    2MOL   C101 1043   5.971   4.164   1.402  0.4151 -0.5574 -0.2137
    2MOL   C102 1044   5.860   4.203   1.306 -0.0904  0.0029 -0.6315
    2MOL   C103 1045   5.887   4.343   1.246 -0.4315 -0.1950  0.3147
    2MOL   C104 1046   5.802   4.366   1.123  0.0319 -0.9870  1.1577
    2MOL   C105 1047   5.843   4.497   1.051 -0.2749  0.4114  0.9702
    2MOL   C106 1048   5.957   4.473   0.953  0.4344  0.4020 -0.2275
    2MOL   O107 1049   6.029   4.580   0.905 -0.7437  0.1319 -0.4688
    2MOL   C108 1050   6.012   4.636   0.781 -0.3039 -0.8018 -0.3822
    2MOL   O109 1051   5.924   4.607   0.706  0.1596  0.2882  0.1753
    2MOL   C110 1052   6.120   4.730   0.744  0.6342 -0.2218  0.5653
    2MOL   C111 1053   6.223   4.761   0.836 -0.6315  0.2961  0.0322
    2MOL   C112 1054   6.334   4.839   0.808 -0.4845  0.3080 -0.5823
    2MOL   C113 1055   6.352   4.877   0.672  0.0560 -0.1175  0.0470
    2MOL   C114 1056   6.465   4.960   0.631 -0.4276 -0.1686  0.0763
    2MOL   O115 1057   6.482   5.007   0.521 -0.4257  0.6468  0.0151
    2MOL   O116 1058   6.537   5.010   0.734 -0.0827  0.1906 -0.0051
    2MOL   C117 1059   6.249   4.847   0.576  0.2900  0.8584 -0.2609
    2MOL   C118 1060   6.136   4.769   0.610  0.2656  0.4758 -0.0168
    2MOL   H119 1061   6.103   3.672   1.406 -0.2445  0.5546 -0.1430
    2MOL   H120 1062   6.211   3.718   1.275  0.8880 -0.8075 -0.6917
    2MOL   H121 1063   6.128   3.941   1.269  1.7100  0.6245  1.0587
    2MOL   H122 1064   6.168   3.898   1.437 -1.9456 -2.1823  2.4249
    2MOL   H123 1065   5.890   3.929   1.310  0.6564  1.0435 -0.5323
    2MOL   H124 1066   5.915   3.822   1.455  2.7726  0.0562  1.5978
    2MOL   H125 1067   6.029   4.035   1.553  0.9199  0.6251 -0.9274
    2MOL   H126 1068   5.856   4.048   1.540 -0.4856  1.0223 -1.6018
    2MOL   H127 1069   5.981   4.242   1.477  1.1904  0.0208 -0.9151
    2MOL   H128 1070   6.064   4.146   1.348  1.7609  3.7310  0.5188
    2MOL   H129 1071   5.852   4.130   1.225 -0.6761 -2.2484  1.3915
    2MOL   H130 1072   5.765   4.210   1.357  0.1020  2.5271 -0.5706
    2MOL   H131 1073   5.867   4.420   1.320  3.0307  0.8283  0.2764
    2MOL   H132 1074   5.992   4.353   1.218 -1.1478  0.3880 -2.3458
    2MOL   H133 1075   5.817   4.283   1.054  2.1676 -0.0530  0.4679
    2MOL   H134 1076   5.696   4.371   1.149  0.0930 -1.1451  1.4421
    2MOL   H135 1077   5.878   4.561   1.132 -2.6684 -1.8701  3.9248
    2MOL   H136 1078   5.760   4.543   0.997 -0.6852 -0.1158  1.1486
    2MOL   H137 1079   5.930   4.419   0.863 -0.0794  0.1731  0.0586
    2MOL   H138 1080   6.035   4.420   1.007 -0.9671 -0.9277  0.5328
    2MOL   H139 1081   6.203   4.739   0.940  0.2515  1.5836  0.4793
    2MOL   H140 1082   6.409   4.863   0.881 -0.2389 -0.6096 -0.5284
    2MOL   H141 1083   6.270   4.887   0.478  0.6795  1.0294 -0.1094
    2MOL   H142 1084   6.070   4.743   0.529  0.8582  0.5743 -0.5375
    2MOL   O143 1085   6.640   5.114   0.682  0.0707 -0.1764 -0.0858
    2MOL   C144 1086   6.589   5.238   0.731 -0.1732 -0.2331  0.3500
    2MOL   C145 1087   6.702   5.329   0.790 -0.3613 -0.4125 -1.3272
    2MOL   C146 1088   6.827   5.331   0.711 -0.4980  1.0759 -0.0888
    2MOL   C147 1089   6.941   5.419   0.773  0.0644  0.4414 -0.4287
    2MOL   C148 1090   7.011   5.378   0.901 -0.2714  0.5131 -0.3975
    2MOL   C149 1091   7.085   5.243   0.877 -0.0492  0.3278 -0.2262
    2MOL   C150 1092   7.178   5.200   0.996  0.1601  0.7718  0.7272
    2MOL   C151 1093   7.099   5.160   1.124  0.1395  1.0279  0.4353
    2MOL   C152 1094   7.188   5.157   1.250 -0.7500 -0.7787 -0.0722
    2MOL   C153 1095   7.113   5.166   1.380  0.5831 -0.1618 -0.3483
    2MOL   O154 1096   7.047   5.037   1.396  0.2734 -0.1221  0.1679
    2MOL   C155 1097   6.984   5.008   1.505 -0.0304 -0.1606 -0.2475
    2MOL   O156 1098   6.979   5.088   1.602  0.1179 -0.0410 -0.7508
    2MOL   C157 1099   6.939   4.861   1.506  0.2984  0.4767  0.0676
    2MOL   C158 1100   6.915   4.794   1.384  0.1166  0.1940 -0.1090
    2MOL   C159 1101   6.870   4.657   1.390 -0.2466  0.0071  0.1091
    2MOL   C160 1102   6.851   4.591   1.514  0.1171  0.1007 -0.1197
    2MOL   C161 1103   6.806   4.449   1.520 -0.1367  0.0119 -0.4291
    2MOL   O162 1104   6.780   4.378   1.427  0.1482 -0.5513 -0.0804
    2MOL   O163 1105   6.800   4.399   1.647 -0.4265  0.3345  0.5629
    2MOL   C164 1106   6.871   4.666   1.634  0.3969  0.0145  0.2639
    2MOL   C165 1107   6.915   4.795   1.626  0.0013  0.0218 -0.1121
    2MOL   H166 1108   6.540   5.295   0.652  1.5108  0.7694 -0.0025
    2MOL   H167 1109   6.514   5.216   0.807 -1.3307 -0.0864 -0.7441
    2MOL   H168 1110   6.721   5.296   0.892 -0.1710 -1.5121 -1.7162
    2MOL   H169 1111   6.675   5.435   0.783  2.3217  0.7571  3.1714
    2MOL   H170 1112   6.868   5.233   0.688  1.6337  2.2474 -1.4339
    2MOL   H171 1113   6.800   5.374   0.615 -1.2615  0.7778 -0.0127
    2MOL   H172 1114   6.905   5.521   0.788 -0.1419  0.0785  1.7113
    2MOL   H173 1115   7.015   5.425   0.693 -1.7881 -0.8166 -2.3173
    2MOL   H174 1116   7.103   5.437   0.900 -0.1253  0.3718  1.8265
    2MOL   H175 1117   6.965   5.393   0.999  1.4163  1.3290  0.2951
    2MOL   H176 1118   7.022   5.156   0.860 -1.0575  0.5661  2.2601
    2MOL   H177 1119   7.146   5.256   0.787  0.5189 -1.3215 -0.0907
    2MOL   H178 1120   7.231   5.109   0.967 -1.2838  0.5082 -1.2469
    2MOL   H179 1121   7.246   5.282   1.017  0.5721  0.8769 -0.9814
    2MOL   H180 1122   7.004   5.211   1.138  0.9063  2.2833  1.1617
    2MOL   H181 1123   7.061   5.058   1.115  2.6735  0.1685 -0.9852
    2MOL   H182 1124   7.257   5.242   1.250 -0.4075 -1.0560  0.3842
    2MOL   H183 1125   7.256   5.073   1.251  2.0321  1.4079  0.4727
    2MOL   H184 1126   7.040   5.247   1.375  0.9618  0.2899  1.1247
    2MOL   H185 1127   7.185   5.182   1.460  0.8511  3.0738 -1.1893
    2MOL   H186 1128   6.934   4.843   1.289 -3.9675 -1.9581 -2.1744
    2MOL   H187 1129   6.867   4.610   1.293  0.4004 -0.4912  0.3245
    2MOL   H188 1130   6.862   4.622   1.732 -0.6033 -0.4791 -0.0461
    2MOL   H189 1131   6.926   4.850   1.718  1.8623  0.9560 -0.8683
    2MOL   O190 1132   6.754   4.255   1.656 -0.8486  0.0451  0.3809
    2MOL   C191 1133   6.865   4.173   1.648  0.8724 -0.0722 -0.4490
    2MOL   C192 1134   6.850   4.038   1.726 -0.2631 -0.4882  0.3677
    2MOL   C193 1135   6.973   3.946   1.715  0.0368 -0.1282 -0.0920
    2MOL   C194 1136   6.948   3.815   1.801  0.4632 -0.6988 -0.0785
    2MOL   C195 1137   7.057   3.703   1.807  0.5151 -0.4302 -0.1342
    2MOL   C196 1138   7.020   3.584   1.884 -0.0244  0.2030  0.1046
    2MOL   C197 1139   7.125   3.475   1.888  0.7117  0.3772  0.1040
    2MOL   C198 1140   7.087   3.343   1.964 -0.4626 -0.9665 -0.0478
    2MOL   C199 1141   7.124   3.329   2.115 -0.4824 -0.2740  0.0376
    2MOL   C200 1142   7.069   3.199   2.185 -0.8262 -0.0889  0.0273
    2MOL   O201 1143   7.151   3.161   2.298  0.0490  0.0312  0.3781
    2MOL   C202 1144   7.146   3.231   2.416 -0.1445 -0.2426 -0.2864
    2MOL   O203 1145   7.080   3.340   2.435 -0.0200 -0.2789  0.3675
    2MOL   C204 1146   7.231   3.170   2.522 -0.3885  0.5418 -0.4000
    2MOL   C205 1147   7.280   3.041   2.514 -0.0404  0.4207  0.6523
    2MOL   C206 1148   7.368   2.991   2.612  0.4341 -0.4238  0.1330
    2MOL   C207 1149   7.394   3.067   2.724 -0.3592  0.3983 -0.1493
    2MOL   C208 1150   7.480   3.021   2.836 -0.2128 -1.1854  0.2546
    2MOL   O209 1151   7.497   3.090   2.936  0.0594  0.4255 -0.6979
    2MOL   O210 1152   7.542   2.903   2.806 -0.1296  0.4786 -0.3948
    2MOL   C211 1153   7.330   3.185   2.742 -0.5310 -0.2902 -0.2912
    2MOL   C212 1154   7.244   3.244   2.640 -0.5449 -0.7934 -1.0244
    2MOL   H213 1155   6.887   4.150   1.544  0.6028  1.0808 -0.7581
    2MOL   H214 1156   6.939   4.223   1.710 -0.5070 -0.8674  1.9154
    2MOL   H215 1157   6.761   3.990   1.687  0.3842 -1.0182 -0.4777
    2MOL   H216 1158   6.825   4.046   1.832 -1.2915  1.5658 -0.0032
    2MOL   H217 1159   6.981   3.918   1.609 -0.6138 -1.3622  0.1749
    2MOL   H218 1160   7.069   3.989   1.743 -1.0031  1.4465  1.1029
    2MOL   H219 1161   6.860   3.764   1.762 -0.1034 -0.2235  0.5699
    2MOL   H220 1162   6.918   3.840   1.903  0.6193  0.5138 -0.3278
    2MOL   H221 1163   7.079   3.680   1.703  0.0796  1.7818 -0.7436
    2MOL   H222 1164   7.140   3.759   1.851 -0.7884  1.2573  0.2308
    2MOL   H223 1165   7.003   3.608   1.989 -2.9480 -0.7611 -0.0886
    2MOL   H224 1166   6.924   3.546   1.849 -0.5746  2.4333 -0.8900
    2MOL   H225 1167   7.162   3.453   1.788 -0.6953 -0.3260 -0.2763
    2MOL   H226 1168   7.204   3.518   1.949  1.2141 -1.9054  1.1117
    2MOL   H227 1169   6.981   3.327   1.945 -0.6452 -2.5941  2.0666
    2MOL   H228 1170   7.140   3.261   1.914  1.4809 -0.2982  0.8526
    2MOL   H229 1171   7.074   3.412   2.165  1.4112 -0.0987  1.7039
    2MOL   H230 1172   7.230   3.348   2.132 -0.3924 -0.2626 -0.5484
    2MOL   H231 1173   7.068   3.118   2.112  0.7778 -1.7220  1.7621
    2MOL   H232 1174   6.965   3.216   2.216 -1.0294  0.9974 -1.2400
    2MOL   H233 1175   7.244   2.981   2.433 -0.2123  2.1722 -0.6009
    2MOL   H234 1176   7.420   2.899   2.589 -0.9301 -0.9823 -0.7767
    2MOL   H235 1177   7.349   3.244   2.830  2.1011 -1.4855 -0.0178
    2MOL   H236 1178   7.196   3.340   2.650 -1.6011 -1.1848 -2.2558
    2MOL   O237 1179   7.625   2.841   2.913  0.2309 -0.2316 -0.3756
    2MOL   C238 1180   7.549   2.738   2.980  0.2924  0.1722 -0.4957
    2MOL   C239 1181   7.522   2.782   3.124 -0.1578  0.2820 -0.9102
    2MOL   C240 1182   7.462   2.667   3.209 -0.8020 -0.2832  0.1990
    2MOL   C241 1183   7.468   2.703   3.361  0.0935  0.3551  0.2836
    2MOL   C242 1184   7.425   2.588   3.450  0.4927 -0.1203 -0.2533
    2MOL   C243 1185   7.402   2.634   3.596 -0.3849  0.1205 -0.0618
    2MOL   C244 1186   7.410   2.520   3.702 -0.1511 -0.4105  0.0727
    2MOL   C245 1187   7.411   2.558   3.851 -0.0107  0.2184 -0.1782
    2MOL   C246 1188   7.444   2.439   3.944  0.6024  0.2252 -0.6476
    2MOL   C247 1189   7.467   2.504   4.083 -0.3578  0.0111  0.2491
    2MOL   O248 1190   7.340   2.544   4.128  0.1694 -0.2234 -0.3026
    2MOL   C249 1191   7.329   2.612   4.240  0.0318  0.2855 -0.0994
    2MOL   O250 1192   7.426   2.636   4.318  0.3096 -0.1418  0.3249
    2MOL   C251 1193   7.191   2.665   4.254  0.0683  0.4703  0.1088
    2MOL   C252 1194   7.089   2.662   4.155  0.3808 -0.0593 -0.2729
    2MOL   C253 1195   6.961   2.703   4.185  0.1184 -0.2913  0.4660
    2MOL   C254 1196   6.929   2.757   4.310 -0.3950  0.5053  0.3372
    2MOL   C255 1197   6.790   2.812   4.336 -0.7590 -0.3347  0.0594
    2MOL   O256 1198   6.756   2.867   4.443 -0.1132  0.0669 -0.1646
    2MOL   O257 1199   6.700   2.798   4.240  0.7526  0.3325  0.1400
    2MOL   C258 1200   7.029   2.760   4.409 -0.1392  0.4454  0.0383
    2MOL   C259 1201   7.158   2.717   4.378 -0.5288 -0.3676  0.0805
    2MOL   H260 1202   7.458   2.718   2.924  0.2590  0.1913 -0.4488
    2MOL   H261 1203   7.619   2.654   2.979  0.5242  0.3724 -3.0104
    2MOL   H262 1204   7.468   2.876   3.108 -0.9902 -0.0082  0.1122
    2MOL   H263 1205   7.614   2.814   3.172  0.5668 -1.1246 -1.3313
    2MOL   H264 1206   7.358   2.650   3.181 -0.3787  1.8533 -3.0682
    2MOL   H265 1207   7.513   2.573   3.189  0.0263  0.1759  0.1269
    2MOL   H266 1208   7.399   2.786   3.379 -0.4728 -0.2728  1.0468
    2MOL   H267 1209   7.569   2.730   3.392 -0.9763  2.9730  1.6750
    2MOL   H268 1210   7.324   2.554   3.424 -0.1599  0.6842  1.1529
    2MOL   H269 1211   7.497   2.507   3.442  1.1863  0.4595  0.1372
    2MOL   H270 1212   7.473   2.714   3.615  0.2513 -0.8471  1.6870
    2MOL   H271 1213   7.300   2.672   3.605 -0.4540 -0.0509 -0.1437
    2MOL   H272 1214   7.334   2.446   3.678  1.2796 -1.6094 -0.8322
    2MOL   H273 1215   7.499   2.459   3.695 -0.4039 -0.7584 -0.1334
    2MOL   H274 1216   7.493   2.629   3.864  0.2909  0.0343 -1.0126
    2MOL   H275 1217   7.326   2.619   3.880 -1.2760 -0.9749 -1.3428
    2MOL   H276 1218   7.535   2.385   3.921  0.6946  0.6886 -1.3859
    2MOL   H277 1219   7.365   2.364   3.939  1.1537 -0.2339 -2.8601
    2MOL   H278 1220   7.532   2.591   4.072 -1.0912  0.3836 -1.1914
    2MOL   H279 1221   7.509   2.428   4.149 -2.9281 -1.1719  0.5951
    2MOL   H280 1222   7.099   2.620   4.056  0.8325 -2.7935  0.8905
    2MOL   H281 1223   6.881   2.708   4.112 -1.1496 -1.2032  1.7641
    2MOL   H282 1224   7.007   2.800   4.507 -1.5233 -0.3606  0.0708
    2MOL   H283 1225   7.240   2.729   4.447 -1.4653  1.8108  0.8503
    2MOL   O284 1226   6.558   2.810   4.286  0.0343  0.8754 -1.3189
    2MOL   C285 1227   6.511   2.933   4.247  0.3168  0.9071 -0.0773
    2MOL   C286 1228   6.410   2.978   4.356  0.0175  0.1754  0.1501
    2MOL   C287 1229   6.351   3.116   4.324  0.1020 -0.2392  0.5819
    2MOL   C288 1230   6.255   3.156   4.430 -0.4409 -0.7687 -0.0397
    2MOL   C289 1231   6.207   3.303   4.427  0.4693  0.2263  0.4438
    2MOL   C290 1232   6.101   3.326   4.320 -0.5401  0.4720 -0.5446
    2MOL   C291 1233   6.057   3.471   4.319 -0.6318 -0.3043  0.2844
    2MOL   C292 1234   6.167   3.562   4.256 -0.3992 -0.8847  0.1561
    2MOL   C293 1235   6.105   3.698   4.226 -0.8393  0.1405  0.3361
    2MOL   C294 1236   6.192   3.803   4.161  0.5064  0.1600 -0.2788
    2MOL   O295 1237   6.316   3.815   4.233  0.1812 -0.1655  0.2488
    2MOL   C296 1238   6.420   3.877   4.177 -0.5258  0.3442  0.2375
    2MOL   O297 1239   6.407   3.957   4.088 -0.3940 -0.0494 -0.2134
    2MOL   C298 1240   6.546   3.847   4.249 -0.1748  0.4542  0.4925
    2MOL   C299 1241   6.673   3.886   4.198 -0.2975 -0.1075 -0.4494
    2MOL   C300 1242   6.795   3.861   4.260 -0.1154 -0.4591 -0.1412
    2MOL   C301 1243   6.794   3.783   4.377 -0.3011 -0.3600  0.2452
    2MOL   C302 1244   6.914   3.716   4.429  0.3739 -0.4783 -0.6421
    2MOL   O303 1245   6.918   3.666   4.540  0.2653  0.2741  0.2805
    2MOL   O304 1246   7.029   3.724   4.360 -0.1667  0.1903  0.2914
    2MOL   C305 1247   6.670   3.742   4.426 -0.3513  0.7551  0.6712
    2MOL   C306 1248   6.546   3.782   4.373 -0.4716 -0.1571 -0.3181
    2MOL   H307 1249   6.585   3.014   4.250  2.2890 -0.8786  1.7438
    2MOL   H308 1250   6.454   2.922   4.154  0.9897  1.4941 -0.5672
    2MOL   H309 1251   6.472   2.985   4.445  2.0562  1.5761 -1.3525
    2MOL   H310 1252   6.333   2.902   4.371  1.3743 -0.9854  1.3796
    2MOL   H311 1253   6.433   3.182   4.298 -0.9418  0.9102  0.1247
    2MOL   H312 1254   6.292   3.101   4.234  2.6609 -2.1218 -0.8326
    2MOL   H313 1255   6.306   3.132   4.524 -0.1874 -2.5363 -0.6113
    2MOL   H314 1256   6.162   3.099   4.427 -1.6475  1.2326 -1.7726
    2MOL   H315 1257   6.166   3.339   4.522 -0.7663  0.3086 -0.1092
    2MOL   H316 1258   6.293   3.366   4.402  0.4997  0.1139  0.2662
    2MOL   H317 1259   6.125   3.293   4.219 -1.4909 -2.0841  0.0223
    2MOL   H318 1260   6.015   3.270   4.356 -0.3381  1.3583  1.3498
    2MOL   H319 1261   5.960   3.479   4.269  0.9181  1.8079 -2.4786
    2MOL   H320 1262   6.032   3.491   4.423 -0.4969 -1.3368  0.5278
    2MOL   H321 1263   6.253   3.578   4.321  0.0769  1.2068 -0.9437
    2MOL   H322 1264   6.198   3.512   4.165 -0.7719  0.9232 -0.9826
    2MOL   H323 1265   6.065   3.730   4.322  2.9123 -1.2564  2.4587
    2MOL   H324 1266   6.021   3.686   4.158  0.5495  1.9693 -1.7846
    2MOL   H325 1267   6.144   3.901   4.161 -4.2069 -2.0624 -0.5608
    2MOL   H326 1268   6.209   3.789   4.054 -0.6162  0.1448 -0.4556
    2MOL   H327 1269   6.681   3.946   4.109  1.7509 -0.2114 -0.3585
    2MOL   H328 1270   6.889   3.888   4.214 -0.4699  0.8078 -0.1621
    2MOL   H329 1271   6.674   3.685   4.517  2.7188 -0.9358 -0.4674
    2MOL   H330 1272   6.454   3.750   4.418 -1.0477  0.8827 -0.7527
    2MOL   O331 1273   7.139   3.635   4.415 -0.1707 -0.2907 -0.5328
    2MOL   C332 1274   7.141   3.515   4.349  0.4369 -0.7253 -0.4710
    2MOL   C333 1275   7.259   3.424   4.400  0.2374  0.2063  0.0185
    2MOL   C334 1276   7.406   3.468   4.361  0.1015 -1.1491  0.2570
    2MOL   C335 1277   7.452   3.610   4.407  0.2958 -0.1431  0.1865
    2MOL   C336 1278   7.597   3.624   4.372  0.1562  0.1823 -0.4666
    2MOL   C337 1279   7.658   3.766   4.399 -0.5913 -0.1211  0.2584
    2MOL   C338 1280   7.810   3.759   4.379  0.0829 -0.4632 -0.4840
    2MOL   C339 1281   7.863   3.906   4.390  0.3471 -0.0291  0.6016
    2MOL   C340 1282   0.040   3.921   4.396  0.4392  0.0877  0.2198
    2MOL   C341 1283   0.085   3.919   4.543  0.3896 -0.4893  0.0792
    2MOL   O342 1284   0.078   4.052   4.587  0.3489  0.1082 -0.1069
    2MOL   C343 1285   0.072   4.084   4.710 -0.4126 -0.5546 -0.2389
    2MOL   O344 1286   0.094   4.007   4.805 -0.5930 -0.2475 -0.3652
    2MOL   C345 1287   0.060   4.232   4.725  0.1418 -0.9320  0.1251
    2MOL   C346 1288   0.049   4.287   4.852 -0.0668 -0.1878  0.2082
    2MOL   C347 1289   0.035   4.425   4.869  0.1164 -0.4982 -0.8623
    2MOL   C348 1290   0.026   4.505   4.760 -0.3797 -0.2266 -0.0367
    2MOL   C349 1291   7.971   4.650   4.777 -0.2029 -0.0758 -0.1294
    2MOL   O350 1292   7.975   4.728   4.677 -0.6827  1.4777  0.3638
    2MOL   O351 1293   7.943   4.685   4.902 -0.4555 -0.4929  0.1244
    2MOL   C352 1294   0.045   4.452   4.631 -0.2342 -0.3157 -0.6143
    2MOL   C353 1295   0.071   4.317   4.617  0.2468 -0.7861  0.4244
    2MOL   H354 1296   7.053   3.455   4.372 -0.8061  1.3449  0.3957
    2MOL   H355 1297   7.145   3.525   4.240  0.7249  0.9695 -0.3178
    2MOL   H356 1298   7.247   3.326   4.355  0.8872  1.4362 -2.9980
    2MOL   H357 1299   7.253   3.410   4.508 -0.2043 -0.2063 -0.0587
    2MOL   H358 1300   7.476   3.395   4.403  0.8001 -1.5465 -1.5627
    2MOL   H359 1301   7.426   3.466   4.254  1.4878  0.9475  0.4433
    2MOL   H360 1302   7.436   3.635   4.512  1.0950 -2.9489  1.0253
    2MOL   H361 1303   7.396   3.680   4.345  1.9380 -0.0816 -1.2559
    2MOL   H362 1304   7.641   3.542   4.430  2.6072  2.7423  1.4894
    2MOL   H363 1305   7.612   3.598   4.268  0.1263  0.5695 -0.5673
    2MOL   H364 1306   7.607   3.842   4.340  0.9841 -0.6732 -1.8649
    2MOL   H365 1307   7.641   3.782   4.506 -0.1759  0.1880  0.2778
    2MOL   H366 1308   7.849   3.699   4.462 -3.2546 -1.5891  0.3791
    2MOL   H367 1309   7.844   3.718   4.284  0.1781 -1.6522  0.0505
    2MOL   H368 1310   7.831   3.959   4.300  0.7416  1.3581  1.2694
    2MOL   H369 1311   7.814   3.964   4.468 -5.0726 -2.5162 -0.6836
    2MOL   H370 1312   0.059   4.017   4.349  0.8823 -0.5394 -0.9082
    2MOL   H371 1313   0.095   3.847   4.337 -2.7416 -0.2238 -2.5585
    2MOL   H372 1314   0.186   3.879   4.555  0.1149 -1.2252 -0.0027
    2MOL   H373 1315   0.020   3.854   4.602 -1.0876 -0.2235 -1.2018
    2MOL   H374 1316   0.058   4.228   4.942  0.3974 -0.0974  0.2249
    2MOL   H375 1317   0.018   4.467   4.967  0.3181  0.8064 -1.3745
    2MOL   H376 1318   0.042   4.511   4.541 -0.7196  1.4548  0.5485
    2MOL   H377 1319   0.095   4.281   4.518  1.6279 -1.3073  0.9383
    2MOL   O378 1320   7.903   4.828   4.923  0.5151  0.0768 -0.0443
    2MOL   C379 1321   7.760   4.819   4.943 -0.3091  0.1700 -0.2278
    2MOL   C380 1322   7.719   4.956   5.002 -0.1042  0.4106  0.6501
    2MOL   C381 1323   7.575   4.944   5.061  0.5183  0.0734  0.7930
    2MOL   C382 1324   7.508   5.068   5.090  0.1208 -0.7143 -0.3717
    2MOL   C383 1325   7.376   5.045   5.164 -0.1905  0.1138 -0.3832
    2MOL   C384 1326   7.278   5.156   5.189 -0.3702  0.0175  0.6646
    2MOL   C385 1327   7.135   5.103   5.239 -0.9951  0.1202 -0.3750
    2MOL   C386 1328   7.058   5.227   5.282 -0.3042 -0.6326  0.0357
    2MOL   C387 1329   6.910   5.195   5.308  0.0531  0.5794 -0.9749
    2MOL   C388 1330   6.849   5.312   5.381 -0.0170 -0.0953  0.1263
    2MOL   O389 1331   6.709   5.276   5.390 -0.0968 -0.1816 -0.1048
    2MOL   C390 1332   6.621   5.367   5.368  0.3643 -1.0217  0.4259
    2MOL   O391 1333   6.648   5.487   5.347 -0.4321 -0.7979  0.0977
    2MOL   C392 1334   6.485   5.313   5.362  0.4304 -0.1943  0.0722
    2MOL   C393 1335   6.381   5.385   5.303  0.5055  0.7769  0.8370
    2MOL   C394 1336   6.246   5.327   5.300 -0.0506 -0.0512  0.5921
    2MOL   C395 1337   6.227   5.196   5.349 -0.5181 -0.2588  0.2523
    2MOL   C396 1338   6.086   5.139   5.350 -0.3786  0.8991 -0.1461
    2MOL   O397 1339   6.058   5.031   5.402 -0.3215  1.2008  0.1971
    2MOL   O398 1340   5.996   5.221   5.301 -0.1000 -0.5632  0.5292
    2MOL   C399 1341   6.333   5.123   5.400 -0.6455  0.0148  0.2741
    2MOL   C400 1342   6.458   5.183   5.412 -0.4113 -0.0490  0.2308
    2MOL   H401 1343   7.707   4.802   4.849 -1.0214  1.2721 -0.0349
    2MOL   H402 1344   7.728   4.735   5.004 -1.4509  0.1087 -0.8877
    2MOL   H403 1345   7.727   5.046   4.942  0.4865  0.4848  0.8419
    2MOL   H404 1346   7.787   4.968   5.086  1.0207  3.0982 -0.6015
    2MOL   H405 1347   7.516   4.891   4.987 -1.9853 -0.0378  2.8223
    2MOL   H406 1348   7.572   4.880   5.150 -0.4415  1.4551  1.7678
    2MOL   H407 1349   7.494   5.124   4.997 -0.9720  2.4671  1.5923
    2MOL   H408 1350   7.569   5.133   5.153 -0.5630  0.0326 -0.4721
    2MOL   H409 1351   7.317   4.966   5.117 -0.9929  0.4432  0.0510
    2MOL   H410 1352   7.394   5.002   5.262  0.7827  0.6792 -0.3102
    2MOL   H411 1353   7.324   5.228   5.256  1.2435 -0.2325 -0.1400
    2MOL   H412 1354   7.254   5.220   5.104 -2.2988 -1.1074  0.3206
    2MOL   H413 1355   7.084   5.045   5.162  0.9816 -2.0537 -0.0776
    2MOL   H414 1356   7.158   5.037   5.323 -1.6203  0.2379 -0.1110
    2MOL   H415 1357   7.098   5.264   5.376 -1.6849 -1.4774  0.9729
    2MOL   H416 1358   7.065   5.301   5.203 -0.5811  0.0317  0.6334
    2MOL   H417 1359   6.914   5.101   5.363 -1.8484  0.7889 -0.4396
    2MOL   H418 1360   6.860   5.170   5.214 -0.8720  1.1551 -0.6385
    2MOL   H419 1361   6.858   5.402   5.320  1.2400  0.0913  0.5798
    2MOL   H420 1362   6.900   5.332   5.475 -0.4568  1.0532  0.1329
    2MOL   H421 1363   6.413   5.481   5.265 -0.6787  0.5503 -0.7684
    2MOL   H422 1364   6.166   5.380   5.250  1.9372  1.0901 -1.4945
    2MOL   H423 1365   6.318   5.022   5.435  0.1764 -0.0745  0.3642
    2MOL   H424 1366   6.534   5.121   5.458  0.4654  0.4029 -0.6081
    2MOL   O425 1367   5.854   5.192   5.348 -0.1446 -0.2743  0.2943
    2MOL   C426 1368   5.793   5.312   5.400 -0.1128  0.0506 -0.1431
    2MOL   C427 1369   5.867   5.353   5.526 -0.5388  0.2225  0.5058
    2MOL   C428 1370   5.876   5.246   5.636  0.8078 -0.2449  0.8959
    2MOL   C429 1371   5.975   5.271   5.747  0.3353  0.8913  0.4402
    2MOL   C430 1372   6.121   5.242   5.701  0.3148  0.1709  0.4859
    2MOL   C431 1373   6.223   5.283   5.805  0.0028 -0.4261  0.6056
    2MOL   C432 1374   6.357   5.277   5.739 -0.2596  0.5062  0.0355
    2MOL   C433 1375   6.469   5.306   5.837 -0.3834  0.3829 -0.1226
    2MOL   C434 1376   6.611   5.336   5.780  0.3510  0.3830  0.1168
    2MOL   C435 1377   6.718   5.355   5.891 -0.0781 -0.0149  0.1311
    2MOL   O436 1378   6.858   5.356   5.841 -0.1559 -0.0421 -0.3781
    2MOL   C437 1379   6.908   5.248   5.782 -0.4674 -0.2164 -0.0731
    2MOL   O438 1380   6.845   5.139   5.769 -0.2490 -0.2901 -0.8819
    2MOL   C439 1381   7.053   5.269   5.749  0.2014  0.5915 -0.2018
    2MOL   C440 1382   7.141   5.365   5.799 -0.2320  0.1821  0.4139
    2MOL   C441 1383   7.275   5.374   5.751  0.3314 -0.3510  0.4069
    2MOL   C442 1384   7.316   5.286   5.649 -0.2619 -1.0170 -0.4674
    2MOL   C443 1385   7.450   5.302   5.581  0.0923 -0.2039  0.0345
    2MOL   O444 1386   7.534   5.390   5.597  0.1775  0.4846 -0.1668
    2MOL   O445 1387   7.472   5.199   5.502 -0.0536 -0.0824 -0.4924
    2MOL   C446 1388   7.228   5.187   5.600  0.2681 -0.9474 -0.0938
    2MOL   C447 1389   7.103   5.182   5.658  0.0903 -0.0183  1.3085
    2MOL   H448 1390   5.804   5.394   5.330  1.7284 -0.9542 -1.0773
    2MOL   H449 1391   5.694   5.278   5.429  0.9464 -1.9996  1.2810
    2MOL   H450 1392   5.830   5.445   5.571 -0.5523  0.2794  0.3781
    2MOL   H451 1393   5.969   5.381   5.498  0.6694 -2.4753  2.0289
    2MOL   H452 1394   5.777   5.248   5.680 -0.4253  2.0695 -1.8178
    2MOL   H453 1395   5.900   5.144   5.605  1.5122  0.2433 -0.1891
    2MOL   H454 1396   5.958   5.207   5.834  2.4717 -0.9431 -0.4480
    2MOL   H455 1397   5.961   5.365   5.800 -2.5532  1.3130 -0.9664
    2MOL   H456 1398   6.131   5.136   5.678  0.7769  0.0520  1.2208
    2MOL   H457 1399   6.138   5.308   5.615 -1.5850  1.2501  0.9213
    2MOL   H458 1400   6.201   5.387   5.831 -0.0713 -0.7264  1.7639
    2MOL   H459 1401   6.212   5.220   5.893  0.8792  0.5910  1.4597
    2MOL   H460 1402   6.370   5.178   5.695  0.7102  1.1088 -1.0625
    2MOL   H461 1403   6.356   5.345   5.654  0.9797  1.0305  0.4235
    2MOL   H462 1404   6.442   5.385   5.907 -0.5500 -0.0304  0.2829
    2MOL   H463 1405   6.465   5.218   5.901  1.7411  0.8100  0.6262
    2MOL   H464 1406   6.607   5.419   5.710 -1.6138 -1.1655 -1.7111
    2MOL   H465 1407   6.628   5.245   5.722 -0.6763 -0.8162  1.6326
    2MOL   H466 1408   6.699   5.287   5.974 -0.3568 -1.1390 -0.8403
    2MOL   H467 1409   6.719   5.458   5.926 -0.2752  0.1483 -0.3512
    2MOL   H468 1410   7.110   5.436   5.874 -1.9468 -1.9122  1.7252
    2MOL   H469 1411   7.335   5.451   5.797 -1.2119 -0.2030  2.2409
    2MOL   H470 1412   7.249   5.117   5.520  0.4682 -2.6660  1.4335
    2MOL   H471 1413   7.039   5.104   5.618 -0.5850  0.7639  0.8610
    2MOL   O472 1414   7.608   5.205   5.443 -0.9784  0.1122  0.0945
    2MOL   C473 1415   7.695   5.104   5.496  0.3418 -0.7205 -0.7097
    2MOL   C474 1416   7.710   4.999   5.385  0.1398 -0.5919 -0.0985
    2MOL   C475 1417   7.791   4.879   5.436 -0.2437  0.4130  0.1967
    2MOL   C476 1418   7.797   4.763   5.336 -0.1514 -0.6780 -1.1496
    2MOL   C477 1419   7.855   4.633   5.393  0.4316 -0.3041 -0.2250
    2MOL   C478 1420   7.903   4.523   5.298 -0.0901 -0.0573 -0.0696
    2MOL   C479 1421   7.967   4.406   5.372 -0.4958  0.3657 -0.3623
    2MOL   C480 1422   0.025   4.296   5.270  0.1964  0.3516  0.1686
    2MOL   C481 1423   0.113   4.195   5.340  0.0876  0.5992  0.4768
    2MOL   C482 1424   0.149   4.070   5.253 -0.2944  0.5796 -0.1210
    2MOL   O483 1425   0.267   4.002   5.303  0.0666  0.7972 -0.9977
    2MOL   C484 1426   0.253   3.885   5.379 -0.0407 -1.0477 -0.6727
    2MOL   O485 1427   0.146   3.821   5.390  0.8500 -0.1096  0.2386
    2MOL   C486 1428   0.378   3.828   5.435 -0.0183  0.7072 -0.3421
    2MOL   C487 1429   0.394   3.683   5.440  0.7295 -0.1092  0.9069
    2MOL   C488 1430   0.515   3.627   5.469 -0.9594  0.0990 -0.0705
    2MOL   C489 1431   0.627   3.710   5.507  0.1617 -0.2452  0.1904
    2MOL   C490 1432   0.751   3.655   5.557  0.0460  1.2556  0.2752
    2MOL   O491 1433   0.799   3.541   5.528 -0.3174  0.2324  0.5361
    2MOL   O492 1434   0.812   3.734   5.644 -0.7461  0.2312  0.0263
    2MOL   C493 1435   0.615   3.850   5.502  0.2545  0.1401 -0.0158
    2MOL   C494 1436   0.493   3.907   5.459  0.1449 -0.2445 -0.2181
    2MOL   H495 1437   7.789   5.149   5.528 -1.5342  1.5721  1.8558
    2MOL   H496 1438   7.647   5.061   5.584  0.8322 -1.5171 -0.8293
    2MOL   H497 1439   7.751   5.058   5.303 -0.0427  1.8014  1.4682
    2MOL   H498 1440   7.608   4.968   5.362  0.2854 -1.2437  0.1340
    2MOL   H499 1441   7.889   4.918   5.463 -0.1486  1.2642 -1.3561
    2MOL   H500 1442   7.745   4.844   5.529 -0.4791 -0.1399 -0.1258
    2MOL   H501 1443   7.867   4.794   5.258  0.9697  0.9293  0.4303
    2MOL   H502 1444   7.695   4.754   5.301 -0.3435  0.3622 -0.8957
    2MOL   H503 1445   7.945   4.664   5.445 -0.1790  1.2488 -0.0643
    2MOL   H504 1446   7.805   4.594   5.482 -0.2642  2.5879  0.6796
    2MOL   H505 1447   7.823   4.483   5.236 -0.2461 -1.7540  1.1956
    2MOL   H506 1448   7.966   4.567   5.220  0.8313 -1.4832 -0.1512
    2MOL   H507 1449   0.075   4.447   5.426 -1.7987 -0.6218  2.5854
    2MOL   H508 1450   7.905   4.362   5.450 -0.1217 -1.5888 -1.1579
    2MOL   H509 1451   7.911   4.239   5.252  0.5634 -0.0644 -0.3813
    2MOL   H510 1452   0.078   4.329   5.181  1.5867 -2.8876 -0.2917
    2MOL   H511 1453   0.060   4.169   5.431 -1.9875  1.4492 -0.4789
    2MOL   H512 1454   0.208   4.247   5.353  0.5923 -0.7187  2.2312
    2MOL   H513 1455   0.183   4.101   5.154  1.4385 -0.2005  0.2171
    2MOL   H514 1456   0.062   4.004   5.257 -0.9856  1.5444  1.2182
    2MOL   H515 1457   0.317   3.611   5.417  1.7331 -0.6488 -0.7536
    2MOL   H516 1458   0.520   3.523   5.441 -2.1510 -0.0881  0.4054
    2MOL   H517 1459   0.702   3.913   5.511  0.6980 -0.5432  0.5400
    2MOL   H518 1460   0.488   4.015   5.459  1.6664 -0.1695 -1.6033
    2MOL   O519 1461   0.927   3.663   5.716 -0.1567  0.0728  0.1227
    2MOL   C520 1462   0.882   3.629   5.844  0.1334  0.6814 -0.3812
    2MOL   C521 1463   0.985   3.557   5.928  0.4169 -0.1443  0.3250
    2MOL   C522 1464   0.921   3.502   6.057 -0.2583 -0.2991  0.5824
    2MOL   C523 1465   1.027   3.439   6.162 -0.1152  0.2130 -0.1056
    2MOL   C524 1466   1.097   3.311   6.107 -0.3828  0.6366  0.5189
    2MOL   C525 1467   1.209   3.272   6.211 -0.2661  0.0935 -0.1430
    2MOL   C526 1468   1.307   3.170   6.155  0.0040 -0.4099  0.3018
    2MOL   C527 1469   1.379   3.085   6.263  0.0569 -0.2217  0.1975
    2MOL   C528 1470   1.491   2.993   6.219  1.3515 -0.3303  0.5597
    2MOL   C529 1471   1.549   2.902   6.325  0.2472 -0.0558  0.0832
    2MOL   O530 1472   1.610   2.974   6.431 -0.1573 -0.2897  0.7882
    2MOL   C531 1473   1.705   2.920   6.515 -0.1652 -0.2196  0.4119
    2MOL   O532 1474   1.742   2.804   6.519  0.1974  0.3098 -0.1001
    2MOL   C533 1475   1.758   3.021   6.616 -0.5998  0.0512  0.0614
    2MOL   C534 1476   1.839   2.976   6.725  0.2362 -0.0209 -0.0897
    2MOL   C535 1477   1.886   3.069   6.827 -0.4731 -0.2587 -0.5487
    2MOL   C536 1478   1.858   3.208   6.815 -0.1985 -0.4690  0.1442
    2MOL   C537 1479   1.912   3.295   6.926 -0.2243 -0.2498 -0.0044
    2MOL   O538 1480   2.001   3.265   7.006  0.9591 -0.1686  0.3347
    2MOL   O539 1481   1.876   3.421   6.894  0.0039  0.0941 -0.1259
    2MOL   C540 1482   1.772   3.250   6.708 -0.2671 -0.4786 -0.2603
    2MOL   C541 1483   1.728   3.155   6.612  0.2142 -0.4004 -1.0377
    2MOL   H542 1484   0.860   3.726   5.889 -1.3582  1.1166 -1.9855
    2MOL   H543 1485   0.788   3.575   5.849 -0.9805  2.5815 -0.1362
    2MOL   H544 1486   1.062   3.632   5.944 -0.1281  0.9411 -1.8510
    2MOL   H545 1487   1.044   3.489   5.866 -1.1516  0.7794 -2.2520
    2MOL   H546 1488   0.845   3.558   6.111  0.8282 -0.7869  2.6714
    2MOL   H547 1489   0.867   3.408   6.042  1.1463 -0.8360 -1.3663
    2MOL   H548 1490   0.974   3.407   6.251  0.9330 -1.3728 -0.0465
    2MOL   H549 1491   1.098   3.514   6.198  0.2745  0.3511 -1.1456
    2MOL   H550 1492   1.019   3.235   6.104 -1.8670  2.1096  1.0624
    2MOL   H551 1493   1.137   3.321   6.006 -0.4191 -1.0702  0.3282
    2MOL   H552 1494   1.272   3.358   6.234 -0.2774  0.4781 -1.5220
    2MOL   H553 1495   1.159   3.235   6.300  1.2952  0.1897  0.7986
    2MOL   H554 1496   1.254   3.104   6.086 -1.8775  0.7753  0.5651
    2MOL   H555 1497   1.370   3.238   6.098  0.6856 -0.2129  1.2854
    2MOL   H556 1498   1.424   3.146   6.341 -0.5573 -0.9583  1.1426
    2MOL   H557 1499   1.302   3.030   6.318 -0.1294  0.5594  0.7259
    2MOL   H558 1500   1.573   3.051   6.174  1.6743 -2.5970 -1.9019
    2MOL   H559 1501   1.459   2.934   6.133  2.1306 -0.1654  0.1438
    2MOL   H560 1502   1.621   2.830   6.286 -0.6761 -0.5192 -0.7972
    2MOL   H561 1503   1.463   2.843   6.355  0.5081 -0.8275 -0.6407
    2MOL   H562 1504   1.859   2.871   6.735 -0.9664 -0.0995  1.6607
    2MOL   H563 1505   1.940   3.034   6.914 -1.9974  1.7592  1.2471
    2MOL   H564 1506   1.759   3.355   6.687  0.1015 -0.2033  0.8753
    2MOL   H565 1507   1.667   3.198   6.534  0.4662  2.6562  0.3591
    2MOL   O566 1508   1.972   3.520   6.941  0.7268  0.0441 -0.8357
    2MOL   C567 1509   2.015   3.598   6.833 -0.1985 -0.2614 -0.3589
    2MOL   C568 1510   2.055   3.526   6.705 -0.8138 -0.1882 -0.4675
    2MOL   C569 1511   2.182   3.444   6.721  0.3472  0.2663 -0.0824
    2MOL   C570 1512   2.210   3.342   6.608  0.2631 -0.5779 -0.4065
    2MOL   C571 1513   2.106   3.239   6.592  0.3357 -0.6563 -0.2209
    2MOL   C572 1514   2.158   3.144   6.486  0.0779 -0.2959 -0.3572
    2MOL   C573 1515   2.081   3.018   6.447 -0.5967 -0.4407 -0.0366
    2MOL   C574 1516   2.152   2.933   6.337  0.0920 -0.9071  0.2510
    2MOL   C575 1517   2.097   2.791   6.321 -0.7840 -0.0805 -0.2033
    2MOL   C576 1518   1.966   2.793   6.255  0.2622 -0.0297  0.2366
    2MOL   O577 1519   1.976   2.849   6.125  0.2045 -0.4188  0.3680
    2MOL   C578 1520   1.863   2.847   6.043 -0.3102 -0.0947 -0.1335
    2MOL   O579 1521   1.751   2.822   6.089  0.4611 -0.4837 -0.0830
    2MOL   C580 1522   1.886   2.875   5.900 -0.4903  0.0194 -0.1772
    2MOL   C581 1523   1.776   2.910   5.815 -0.9959 -0.0268  0.8038
    2MOL   C582 1524   1.797   2.949   5.679  0.1378 -1.0957  1.0118
    2MOL   C583 1525   1.924   2.942   5.621  0.1227  0.5563  0.7600
    2MOL   C584 1526   1.946   2.984   5.480  0.1092  0.5245  0.4303
    2MOL   O585 1527   2.056   2.979   5.427  0.5177  0.0123  0.3414
    2MOL   O586 1528   1.832   3.023   5.413  0.4567  0.2640 -0.1062
    2MOL   C587 1529   2.033   2.908   5.703  0.0358 -0.5070 -0.3940
    2MOL   C588 1530   2.012   2.871   5.841  0.6121 -0.4823  0.4745
    2MOL   H589 1531   1.925   3.655   6.811 -1.0333 -1.4683 -0.1451
    2MOL   H590 1532   2.103   3.656   6.862 -0.8165 -0.6871  2.5307
    2MOL   H591 1533   2.084   3.598   6.628 -1.4876  1.4517  0.8022
    2MOL   H592 1534   1.968   3.470   6.670 -1.4087  0.4239  0.0391
    2MOL   H593 1535   2.263   3.516   6.727  0.6124  0.2208 -2.5313
    2MOL   H594 1536   2.183   3.388   6.815  0.6369 -0.1651 -0.3416
    2MOL   H595 1537   2.298   3.293   6.649 -0.3981 -0.0563  1.7038
    2MOL   H596 1538   2.239   3.397   6.519  0.8328  0.7143  0.5697
    2MOL   H597 1539   2.099   3.183   6.686 -3.0901  2.0969  1.2715
    2MOL   H598 1540   2.008   3.279   6.564  1.3826  1.9786 -0.2537
    2MOL   H599 1541   2.187   3.192   6.393  1.2044  1.4571  0.8660
    2MOL   H600 1542   2.256   3.113   6.522  0.5414  0.3882 -1.0064
    2MOL   H601 1543   2.059   2.967   6.541 -2.0577  3.0185  1.5859
    2MOL   H602 1544   1.978   3.041   6.419  0.1712  1.9334 -0.9873
    2MOL   H603 1545   2.185   2.990   6.250 -0.0375 -1.5951 -0.2506
    2MOL   H604 1546   2.251   2.917   6.378  0.5612 -1.6515 -1.1263
    2MOL   H605 1547   2.082   2.747   6.420  0.4236 -1.8169 -0.7570
    2MOL   H606 1548   2.159   2.731   6.255 -0.8055 -0.6026  0.2435
    2MOL   H607 1549   1.909   2.867   6.310  0.2435 -0.7300  1.1619
    2MOL   H608 1550   1.908   2.702   6.261 -0.0009 -0.2572 -4.1706
    2MOL   H609 1551   1.679   2.897   5.860 -2.4130  2.3449 -1.4288
    2MOL   H610 1552   1.713   2.968   5.615 -0.9288 -0.0249  2.6870
    2MOL   H611 1553   2.129   2.905   5.654  1.0646  1.3270  1.4083
    2MOL   H612 1554   2.097   2.843   5.903 -0.9082 -3.4527  1.3404
    2MOL   O613 1555   1.857   3.079   5.276  0.5618  0.0972  0.3442
    2MOL   C614 1556   1.844   3.225   5.281 -0.6027  0.0918  0.0429
    2MOL   C615 1557   1.703   3.269   5.318  0.3738  0.0310 -0.4228
    2MOL   C616 1558   1.682   3.420   5.281 -0.3322 -0.0722 -0.2247
    2MOL   C617 1559   1.541   3.479   5.311 -0.6169 -0.3998 -0.0195
    2MOL   C618 1560   1.515   3.620   5.273  0.2271 -0.2981  0.5094
    2MOL   C619 1561   1.538   3.649   5.121 -0.1474  0.0656  0.2113
    2MOL   C620 1562   1.463   3.777   5.066 -0.0260 -0.5424 -0.0711
    2MOL   C621 1563   1.486   3.791   4.912 -0.8916  0.4229  0.0724
    2MOL   C622 1564   1.410   3.907   4.853 -0.2146 -0.2684 -1.0633
    2MOL   C623 1565   1.431   3.918   4.702 -0.0894 -0.0710 -0.5421
    2MOL   O624 1566   1.364   4.022   4.641 -0.2717 -0.1421 -0.0795
    2MOL   C625 1567   1.400   4.066   4.519 -0.5093  0.9199  0.0659
    2MOL   O626 1568   1.482   4.008   4.451  0.5403  0.0144 -0.1223
    2MOL   C627 1569   1.328   4.189   4.472  0.3895 -0.4334 -0.0988
    2MOL   C628 1570   1.235   4.258   4.547  0.3203 -0.3193  0.3151
    2MOL   C629 1571   1.172   4.374   4.491 -0.3957  0.4496  0.0282
    2MOL   C630 1572   1.218   4.430   4.375 -0.7690 -0.2184  0.3087
    2MOL   C631 1573   1.157   4.556   4.320  0.5847 -0.6710  1.3428
    2MOL   O632 1574   1.172   4.593   4.204  0.0922  0.8580 -0.2540
    2MOL   O633 1575   1.061   4.610   4.399  0.5461 -0.1969 -0.5775
    2MOL   C634 1576   1.324   4.369   4.306  0.1362  0.0588  0.7937
    2MOL   C635 1577   1.378   4.247   4.352  0.1017 -0.1482 -0.0908
    2MOL   H636 1578   1.923   3.259   5.348 -0.0200 -0.0759 -0.5495
    2MOL   H637 1579   1.862   3.262   5.180 -2.9379 -0.9894 -0.8060
    2MOL   H638 1580   1.678   3.260   5.424  3.2132 -2.0047  0.1400
    2MOL   H639 1581   1.637   3.210   5.256 -0.4823  0.7890 -0.2480
    2MOL   H640 1582   1.761   3.473   5.334 -2.3566  3.1941 -0.3783
    2MOL   H641 1583   1.689   3.427   5.173  0.5694  1.8130 -0.0547
    2MOL   H642 1584   1.515   3.480   5.417 -0.2306 -3.1760  0.1394
    2MOL   H643 1585   1.477   3.410   5.255 -0.2988 -0.6776 -0.0420
    2MOL   H644 1586   1.424   3.659   5.319 -0.0291 -0.6339  0.2938
    2MOL   H645 1587   1.587   3.675   5.334  0.2856  2.0612 -1.6541
    2MOL   H646 1588   1.644   3.673   5.120 -0.2609  0.5433 -0.6408
    2MOL   H647 1589   1.509   3.567   5.056 -1.1027 -0.7945  1.6898
    2MOL   H648 1590   1.356   3.776   5.086  0.2736 -0.5008  1.6038
    2MOL   H649 1591   1.488   3.869   5.119  0.6375 -0.9414  0.3076
    2MOL   H650 1592   1.591   3.791   4.885 -0.9972 -0.4049 -0.3535
    2MOL   H651 1593   1.448   3.706   4.855 -1.6441  2.1899 -2.1247
    2MOL   H652 1594   1.437   3.995   4.912 -0.0148  0.2598 -1.9371
    2MOL   H653 1595   1.305   3.902   4.880  0.0933 -0.3360  0.1484
    2MOL   H654 1596   1.415   3.823   4.651  0.7316 -1.3972  1.5849
    2MOL   H655 1597   1.537   3.939   4.687  0.0085  0.3771  0.6783
    2MOL   H656 1598   1.198   4.220   4.641 -1.4725  0.7716  0.0746
    2MOL   H657 1599   1.096   4.420   4.552 -0.2737  0.2253  0.3550
    2MOL   H658 1600   1.366   4.409   4.215 -1.7270 -1.0583 -0.5745
    2MOL   H659 1601   1.466   4.206   4.306  1.2989 -0.3152  2.2380
    2MOL   O660 1602   0.999   4.724   4.331  0.1678  0.1689 -0.2142
    2MOL   C661 1603   1.061   4.836   4.376  0.2362 -0.6902  0.0953
    2MOL   C662 1604   0.998   4.945   4.291  0.1285 -0.0195  0.1257
    2MOL   C663 1605   1.035   4.932   4.142 -1.0156  0.3872 -0.1356
    2MOL   C664 1606   0.967   5.019   4.031  0.0554 -1.1058 -0.3259
    2MOL   C665 1607   0.997   5.172   4.039 -1.2656  0.2870 -0.2664
    2MOL   C666 1608   0.929   5.262   3.936  0.2163 -0.3629  0.0651
    2MOL   C667 1609   0.787   5.301   3.984 -0.3165 -0.2623  0.5381
    2MOL   C668 1610   0.697   5.335   3.862  0.1065  0.2043  0.4595
    2MOL   C669 1611   0.548   5.333   3.908 -0.2402  0.5487  0.1768
    2MOL   C670 1612   0.485   5.192   3.947 -0.8047  0.2939 -0.1776
    2MOL   O671 1613   0.352   5.205   3.991 -0.1477 -0.1520 -0.1655
    2MOL   C672 1614   0.257   5.101   3.961 -0.5422 -0.2301 -0.1262
    2MOL   O673 1615   0.282   5.000   3.908 -0.3812  0.0533  0.2576
    2MOL   C674 1616   0.128   5.125   4.021  0.3069  0.1308  0.3515
    2MOL   C675 1617   0.032   5.021   4.020 -0.1678 -0.7403 -0.0021
    2MOL   C676 1618   7.882   5.047   4.071 -0.3812 -0.5046 -0.0947
    2MOL   C677 1619   7.841   5.177   4.114 -0.3649 -0.2429  0.0374
    2MOL   C678 1620   7.700   5.198   4.167 -0.0945 -0.2972 -0.2103
    2MOL   O679 1621   7.618   5.105   4.165  0.1229 -0.0548 -0.2984
    2MOL   O680 1622   7.674   5.322   4.213  0.1324  0.2722  0.4112
    2MOL   C681 1623   7.936   5.280   4.114  0.0450 -0.7435 -0.1651
    2MOL   C682 1624   0.091   5.251   4.074  0.0118  0.2879  0.3064
    2MOL   H683 1625   1.043   4.859   4.481 -0.8712 -2.0884  0.2345
    2MOL   H684 1626   1.167   4.823   4.353  0.0701 -1.6165 -0.1840
    2MOL   H685 1627   1.036   5.046   4.311 -2.4345  0.7482  1.3747
    2MOL   H686 1628   0.890   4.949   4.304 -0.1674 -1.9404 -1.5810
    2MOL   H687 1629   1.143   4.944   4.135 -0.7882 -1.3777  0.1397
    2MOL   H688 1630   1.003   4.833   4.107  1.4491 -0.8776  1.0676
    2MOL   H689 1631   0.861   5.002   4.050 -0.0163  0.2374  0.5236
    2MOL   H690 1632   0.979   4.977   3.931 -2.0703 -2.4214 -0.0445
    2MOL   H691 1633   0.988   5.214   4.139  2.6983 -0.9192  0.6706
    2MOL   H692 1634   1.104   5.170   4.020 -1.0936  0.3231  0.6984
    2MOL   H693 1635   0.986   5.352   3.913  0.9708 -1.4144 -2.3113
    2MOL   H694 1636   0.937   5.213   3.840 -0.0791 -1.4251  0.5725
    2MOL   H695 1637   0.746   5.222   4.047  1.7019  0.4409  2.7946
    2MOL   H696 1638   0.794   5.383   4.055 -1.2954 -0.6703  1.1171
    2MOL   H697 1639   0.724   5.432   3.820  0.6786  0.2294  0.8737
    2MOL   H698 1640   0.709   5.271   3.775  3.3546  2.0455 -0.5343
    2MOL   H699 1641   0.481   5.369   3.830 -1.1603 -0.6356  0.4171
    2MOL   H700 1642   0.532   5.407   3.987 -2.4638  2.1633 -1.7358
    2MOL   H701 1643   0.554   5.148   4.019 -0.4304  1.1958  0.0225
    2MOL   H702 1644   0.496   5.124   3.863  1.9649 -0.5726  0.8449
    2MOL   H703 1645   0.062   4.927   3.978 -1.6441 -1.1432 -0.1463
    2MOL   H704 1646   7.811   4.966   4.076  0.4032 -1.1076  1.5708
    2MOL   H705 1647   7.918   5.381   4.148 -0.4809 -0.1542 -2.0741
    2MOL   H706 1648   0.161   5.333   4.083 -1.2055  1.4262 -0.4052
    2MOL   O707 1649   7.529   5.350   4.220 -0.2958 -0.1028  0.2191
    2MOL   C708 1650   7.506   5.429   4.111 -0.5144  0.0972  0.2692
    2MOL   C709 1651   7.607   5.542   4.079 -0.2726 -0.2004  0.7266
    2MOL   C710 1652   7.623   5.654   4.188  0.9398  0.1993 -0.2633
    2MOL   C711 1653   7.737   5.753   4.155  0.2077  0.2845  0.2500
    2MOL   C712 1654   7.762   5.852   4.271  0.5920  0.2709 -0.4361
    2MOL   C713 1655   7.892   5.929   4.254 -0.4100 -0.4297 -0.3075
    2MOL   C714 1656   7.954   5.979   4.389 -0.2596  0.1431 -0.3900
    2MOL   C715 1657   7.880   6.098   4.462 -0.3856 -0.0946  0.2118
    2MOL   C716 1658   7.888   6.227   4.387  0.6127 -0.5409 -0.7129
    2MOL   C717 1659   7.775   6.333   4.418  0.1699 -0.2738  0.0411
    2MOL   O718 1660   7.800   6.390   4.541 -0.2831  0.4203 -0.0214
    2MOL   C719 1661   7.741   6.513   4.562 -0.1597 -0.0924  0.7969
    2MOL   O720 1662   7.646   6.561   4.501 -0.0738 -0.3294  0.2027
    2MOL   C721 1663   7.809   6.580   4.676 -0.0576 -0.3072 -0.1613
    2MOL   C722 1664   7.773   6.713   4.706 -0.4892  0.0693  1.1494
    2MOL   C723 1665   7.824   6.776   4.823 -0.1366  0.5794 -0.3736
    2MOL   C724 1666   7.916   6.713   4.909 -0.3881  0.2512 -0.4356
    2MOL   C725 1667   7.968   6.783   5.028 -0.0352 -0.1323  0.2572
    2MOL   O726 1668   0.054   6.726   5.120  0.7360 -0.2363 -0.2654
    2MOL   O727 1669   7.936   6.915   5.032 -0.2206 -0.0206  0.1555
    2MOL   C728 1670   7.950   6.574   4.884  0.5379 -0.2809  0.6523
    2MOL   C729 1671   7.894   6.510   4.770 -0.2997 -0.4729  0.2302
    2MOL   H730 1672   7.495   5.377   4.016 -0.8467 -0.6797  0.7307
    2MOL   H731 1673   7.410   5.476   4.133  0.2043  1.8272 -0.2277
    2MOL   H732 1674   7.575   5.597   3.991 -0.7973 -0.0820  0.9888
    2MOL   H733 1675   7.705   5.503   4.051 -0.6101 -0.0244 -0.7377
    2MOL   H734 1676   7.523   5.697   4.201  0.9231  0.5495 -1.5054
    2MOL   H735 1677   7.651   5.601   4.279  0.4211 -0.2722 -0.3721
    2MOL   H736 1678   7.717   5.799   4.058  0.8394 -0.1365 -0.0804
    2MOL   H737 1679   7.828   5.694   4.146  1.1618  1.7189  0.3006
    2MOL   H738 1680   7.686   5.930   4.283 -0.2757 -0.0825 -3.2543
    2MOL   H739 1681   7.766   5.793   4.363 -1.5079  3.5036  1.8588
    2MOL   H740 1682   7.964   5.857   4.215  0.3611 -0.9178  1.9382
    2MOL   H741 1683   7.884   6.009   4.180  0.2842 -0.9835 -0.9895
    2MOL   H742 1684   7.961   5.901   4.465 -0.8464  1.4861  1.0680
    2MOL   H743 1685   0.079   6.011   4.373  0.4202 -1.1553  1.2582
    2MOL   H744 1686   7.775   6.075   4.478 -0.8770  1.0312 -1.3020
    2MOL   H745 1687   7.920   6.124   4.561 -0.8617 -0.0451  0.3906
    2MOL   H746 1688   7.882   6.209   4.280 -2.5045 -2.0967 -0.3538
    2MOL   H747 1689   0.004   6.281   4.400 -0.5515  1.2487  0.4853
    2MOL   H748 1690   7.680   6.280   4.421 -0.0822  0.0994 -1.0140
    2MOL   H749 1691   7.778   6.413   4.344  1.1945  0.4422  0.8350
    2MOL   H750 1692   7.715   6.769   4.634  1.5894  1.1487  0.2812
    2MOL   H751 1693   7.784   6.873   4.849 -1.0346 -0.5363  2.5529
    2MOL   H752 1694   0.032   6.530   4.961  0.2813 -1.7473  0.0244
    2MOL   H753 1695   7.916   6.406   4.751 -0.2698 -0.1809 -1.4562
    2MOL   O754 1696   0.009   6.989   5.151  0.6452 -0.2606  0.0607
    2MOL   C755 1697   7.896   7.002   5.261  0.7654  0.0773 -0.3082
    2MOL   C756 1698   7.964   7.092   5.363 -0.0127 -0.3581 -0.2678
    2MOL   C757 1699   0.099   7.025   5.435 -0.8554 -0.6630 -0.2769
    2MOL   C758 1700   0.187   7.114   5.519  0.0558  0.4240 -0.5436
    2MOL   C759 1701   0.298   7.174   5.444 -0.3713 -0.9098 -0.6111
    2MOL   C760 1702   0.358   7.300   5.515 -0.0551 -0.6773  0.1769
    2MOL   C761 1703   0.456   7.389   5.427  0.2983 -0.2034  0.4082
    2MOL   C762 1704   0.518   7.506   5.496 -0.1239 -0.4695  0.3715
    2MOL   C763 1705   0.551   7.633   5.410 -0.0207  0.1223 -0.3706
    2MOL   C764 1706   0.618   7.742   5.491  0.3333 -0.4286 -0.0952
    2MOL   O765 1707   0.524   7.786   5.587  0.6885 -0.5238 -0.0455
    2MOL   C766 1708   0.559   7.843   5.701 -0.3030 -0.7386 -0.4794
    2MOL   O767 1709   0.678   7.878   5.727 -0.0114 -0.1372  0.0813
    2MOL   C768 1710   0.448   7.870   5.794 -0.0070 -0.0286 -0.1410
    2MOL   C769 1711   0.473   7.941   5.914 -0.2476  0.5979  0.3061
    2MOL   C770 1712   0.369   7.971   6.006  0.0401  0.2177 -0.3743
    2MOL   C771 1713   0.236   7.932   5.976 -0.2764 -0.0139 -0.0001
    2MOL   C772 1714   0.134   7.958   6.078  0.6892 -0.3001  0.1450
    2MOL   O773 1715   0.160   0.056   6.173 -0.2754  0.0181 -0.0088
    2MOL   O774 1716   0.017   7.899   6.059  0.1307 -0.2952 -0.2560
    2MOL   C775 1717   0.213   7.855   5.861 -0.2754 -1.4423 -0.3473
    2MOL   C776 1718   0.314   7.828   5.768 -0.0435 -0.2621  0.0288
    2MOL   H777 1719   7.806   7.047   5.219 -0.5067 -0.0821  2.1289
    2MOL   H778 1720   7.870   6.905   5.303  0.0992 -0.7845 -2.6091
    2MOL   H779 1721   7.886   7.127   5.431  0.6222 -1.5419  1.0922
    2MOL   H780 1722   0.017   7.176   5.300 -0.7912  0.4093  0.3630
    2MOL   H781 1723   0.064   6.952   5.508  0.4015 -0.0221  0.9800
    2MOL   H782 1724   0.164   6.968   5.369  1.4293  0.0013  1.3144
    2MOL   H783 1725   0.210   7.057   5.610 -1.2605 -0.0326 -0.4869
    2MOL   H784 1726   0.122   7.193   5.558 -3.3929 -2.6476  0.2080
    2MOL   H785 1727   0.381   7.107   5.422 -0.8747 -1.2031 -1.6202
    2MOL   H786 1728   0.260   7.210   5.349  0.4872 -0.4159 -0.7749
    2MOL   H787 1729   0.278   7.358   5.561 -0.0982 -0.6758  0.0996
    2MOL   H788 1730   0.412   7.269   5.605  1.0080 -0.6410 -0.4300
    2MOL   H789 1731   0.533   7.320   5.393  0.9676  0.2415  1.0014
    2MOL   H790 1732   0.403   7.428   5.340 -1.6943 -0.8174  1.3051
    2MOL   H791 1733   0.440   7.532   5.567  1.9061 -2.4440  3.5180
    2MOL   H792 1734   0.611   7.473   5.543 -0.6779  2.9123  4.0714
    2MOL   H793 1735   0.463   7.668   5.358  0.4160 -0.7652 -1.7394
    2MOL   H794 1736   0.624   7.604   5.335  1.8021 -0.4769  1.5543
    2MOL   H795 1737   0.652   7.822   5.426  0.5936 -1.5820 -1.3909
    2MOL   H796 1738   0.707   7.698   5.537 -0.0183 -0.6459  0.3843
    2MOL   H797 1739   0.575   7.966   5.939 -0.4307  0.0498  1.6500
    2MOL   H798 1740   0.392   0.057   6.090  0.7068 -0.6240  0.0964
    2MOL   H799 1741   0.113   7.828   5.831 -0.3738 -1.0318 -0.3926
    2MOL   H800 1742   0.290   7.768   5.681 -0.4484 -0.3374  0.1908
    2MOL   O801 1743   7.887   7.942   6.153 -0.1730  0.4126 -0.1467
    2MOL   C802 1744   7.877   7.844   6.255 -0.4448 -0.3045 -0.2500
    2MOL   C803 1745   7.789   7.887   6.370  0.9991  0.1767  0.5533
    2MOL   C804 1746   7.642   7.891   6.343 -0.1837 -0.4695  0.5438
    2MOL   C805 1747   7.540   7.860   6.453 -0.4402  0.0034  0.2040
    2MOL   C806 1748   7.536   7.964   6.568  0.0942 -0.2732 -0.0174
    2MOL   C807 1749   7.438   7.945   6.686  0.2099  0.3324 -0.8431
    2MOL   C808 1750   7.294   7.949   6.645  0.6433  0.7254 -0.0254
    2MOL   C809 1751   7.238   0.102   6.581  0.1255 -0.5734  0.2677
    2MOL   C810 1752   7.088   0.100   6.581 -0.4875 -0.2201  0.4730
    2MOL   C811 1753   7.030   7.976   6.489  0.2790 -0.3561  0.5488
    2MOL   O812 1754   7.069   0.009   6.355 -0.1103 -0.1289  0.0230
    2MOL   C813 1755   7.097   7.871   6.283 -0.3823  0.3297  0.1743
    2MOL   O814 1756   7.064   7.758   6.314  0.0202 -0.4474  0.0642
    2MOL   C815 1757   7.184   7.898   6.161  0.1251 -0.0886  0.3529
    2MOL   C816 1758   7.166   0.040   6.092 -0.2576 -0.7841  0.1268
    2MOL   C817 1759   7.245   0.077   5.979 -0.1286 -0.9245 -0.3273
    2MOL   C818 1760   7.338   7.950   5.932  0.9919 -0.7976  0.0631
    2MOL   C819 1761   7.419   7.976   5.809 -1.0364 -0.4738 -0.0783
    2MOL   O820 1762   7.471   7.887   5.746 -0.4916  0.0634 -0.4251
    2MOL   O821 1763   7.429   0.130   5.764 -0.6435 -0.3631  0.9439
    2MOL   C822 1764   7.360   7.830   6.002  0.6719  0.3294  0.0329
    2MOL   C823 1765   7.291   7.812   6.124  0.2517 -0.0770  0.0791
    2MOL   H824 1766   7.841   7.754   6.204 -1.3263 -0.1260  0.0398
    2MOL   H825 1767   7.969   7.813   6.304 -1.4046 -1.8617  0.6085
    2MOL   H826 1768   7.821   0.002   6.417  2.6892 -0.0612 -0.0982
    2MOL   H827 1769   7.794   7.812   6.449 -0.1673  0.7198  1.1583
    2MOL   H828 1770   7.619   0.011   6.301  0.0430  0.8079  3.2679
    2MOL   H829 1771   7.623   7.810   6.273  1.1079 -0.3296  0.0202
    2MOL   H830 1772   7.563   7.768   6.507  0.5255  0.1336  0.0251
    2MOL   H831 1773   7.436   7.853   6.421 -0.1625  1.3566 -1.0120
    2MOL   H832 1774   7.637   7.977   6.607  0.1845 -1.9001  0.3277
    2MOL   H833 1775   7.512   0.081   6.521 -1.8324 -1.2083 -0.9812
    2MOL   H834 1776   7.448   7.844   6.727 -0.0661  1.1388  1.2702
    2MOL   H835 1777   7.475   0.041   6.758  1.7745  0.5268 -1.8158
    2MOL   H836 1778   7.285   7.871   6.569  1.2448  2.3689 -1.8229
    2MOL   H837 1779   7.229   7.917   6.727 -1.3904 -0.0392 -1.8963
    2MOL   H838 1780   7.270   0.189   6.639  0.4825 -0.3358 -0.2876
    2MOL   H839 1781   7.274   0.128   6.482 -1.3449  0.8575  0.0827
    2MOL   H840 1782   7.052   0.198   6.552 -1.1610 -0.4841  0.4045
    2MOL   H841 1783   7.052   0.084   6.683 -2.3275  0.3747 -0.0664
    2MOL   H842 1784   6.922   0.013   6.488  0.2840 -0.3836 -0.8493
    2MOL   H843 1785   7.044   7.870   6.513 -0.2192 -0.7335 -0.7515
    2MOL   H844 1786   7.088   0.108   6.122  0.0953 -0.9889  1.5697
    2MOL   H845 1787   7.232   0.165   5.919  2.5007 -1.2504 -1.4331
    2MOL   H846 1788   7.427   7.753   5.966  0.2302 -0.5048  0.9798
    2MOL   H847 1789   7.316   7.726   6.184 -3.1555 -1.5964 -0.5679
    2MOL   O848 1790   7.516   0.145   5.632 -0.1675 -0.2364  0.1192
    2MOL   C849 1791   7.428   0.136   5.522  0.8211  0.8666 -0.4992
    2MOL   C850 1792   7.483   0.217   5.406 -1.0910  0.2561 -0.3560
    2MOL   C851 1793   7.377   0.225   5.296  0.1005 -0.1032 -0.4444
    2MOL   C852 1794   7.407   0.338   5.194  0.2125 -0.0314 -0.6824
    2MOL   C853 1795   7.530   0.317   5.101 -0.2404 -0.4310 -0.2089
    2MOL   C854 1796   7.510   0.213   4.991 -0.0694 -0.1581 -0.3379
    2MOL   C855 1797   7.388   0.228   4.896 -0.4930  0.4024  0.3692
    2MOL   C856 1798   7.405   0.162   4.771 -0.0601 -0.1160 -0.6138
    2MOL   C857 1799   7.296   0.184   4.667 -0.1453 -0.6075  1.3179
    2MOL   C858 1800   7.336   0.155   4.517  0.5014 -0.1001  0.6038
    2MOL   O859 1801   7.223   0.183   4.435 -0.5279  0.4847 -0.3433
    2MOL   C860 1802   7.206   0.303   4.384  0.0275  0.1807  0.2914
    2MOL   O861 1803   7.275   0.402   4.409  0.3592  0.0106  0.4898
    2MOL   C862 1804   7.091   0.306   4.289 -0.0569 -0.1789  0.4703
    2MOL   C863 1805   7.076   0.416   4.201 -0.1076 -0.4501  0.3953
    2MOL   C864 1806   6.972   0.424   4.106 -0.3014 -0.4994  0.2353
    2MOL   C865 1807   6.872   0.325   4.105  1.0976 -0.0499 -0.4174
    2MOL   C866 1808   6.769   0.330   4.005  0.2639 -0.8953  0.9644
    2MOL   O867 1809   6.730   0.437   3.945  0.1668  0.3936  0.0516
    2MOL   O868 1810   6.725   0.206   3.976  0.3664 -0.0368  0.1918
    2MOL   C869 1811   6.881   0.214   4.197 -0.3929 -0.3839  0.3311
    2MOL   C870 1812   6.990   0.204   4.288 -0.1637 -0.0977 -0.0429
    2MOL   H871 1813   7.405   0.033   5.497  1.7034  0.3875  0.6035
    2MOL   H872 1814   7.334   0.186   5.546  2.2698  2.7396  1.4841
    2MOL   H873 1815   7.581   0.182   5.375 -1.3073 -0.3276 -0.3751
    2MOL   H874 1816   7.512   0.315   5.444  1.9486 -0.5361 -0.5036
    2MOL   H875 1817   7.366   0.133   5.238  0.5029 -0.0838 -0.5504
    2MOL   H876 1818   7.279   0.259   5.330  0.1244  0.3350 -0.8095
    2MOL   H877 1819   7.423   0.432   5.246 -1.2866 -0.3292  0.3249
    2MOL   H878 1820   7.315   0.347   5.137  0.3560  1.8832 -0.6316
    2MOL   H879 1821   7.552   0.409   5.046  1.2347 -0.7767 -0.2208
    2MOL   H880 1822   7.619   0.294   5.159 -0.0797 -0.3518 -0.4199
    2MOL   H881 1823   7.600   0.220   4.931 -0.9974  1.4046 -1.5781
    2MOL   H882 1824   7.510   0.113   5.034  2.8955 -0.1919 -0.3503
    2MOL   H883 1825   7.304   0.186   4.951  0.3373 -0.1203  1.2612
    2MOL   H884 1826   7.359   0.332   4.881 -0.1737  0.1940 -1.8172
    2MOL   H885 1827   7.500   0.197   4.729  0.4273  2.0359  2.1161
    2MOL   H886 1828   7.404   0.054   4.785 -0.8432 -0.0933 -0.4846
    2MOL   H887 1829   7.285   0.291   4.678 -0.3915 -0.4900  0.0386
    2MOL   H888 1830   7.202   0.137   4.697 -1.1980  1.6931  1.7468
    2MOL   H889 1831   7.362   0.053   4.492 -4.0690 -1.5380  1.1712
    2MOL   H890 1832   7.420   0.219   4.492  1.6935 -0.6983  2.9373
    2MOL   H891 1833   7.149   0.496   4.200 -0.4727 -0.1134  0.3539
    2MOL   H892 1834   6.962   0.506   4.037  2.0292  0.5875  1.1347
    2MOL   H893 1835   6.807   0.136   4.194 -0.6520 -0.1007 -2.3353
    2MOL   H894 1836   6.982   0.122   4.357  3.4448  0.0091  0.6098
    2MOL   O895 1837   6.631   0.200   3.864  0.8798  0.2190  0.1522
    2MOL   C896 1838   6.504   0.192   3.922  0.2051  0.0265  0.1431
    2MOL   C897 1839   6.416   0.101   3.833 -0.5218 -0.5736 -0.1422
    2MOL   C898 1840   6.366   0.164   3.702  0.6779  0.3378 -0.1605
    2MOL   C899 1841   6.465   0.183   3.590  0.2246  0.4179  0.1634
    2MOL   C900 1842   6.391   0.238   3.467 -0.3629 -0.0891  0.3911
    2MOL   C901 1843   6.495   0.294   3.370 -0.0115 -0.3140  0.8703
    2MOL   C902 1844   6.442   0.367   3.252 -0.1770  0.0328 -0.2013
    2MOL   C903 1845   6.359   0.497   3.280 -0.2726 -0.2276 -0.1819
    2MOL   C904 1846   6.327   0.572   3.157  0.0143 -0.8507  0.6273
    2MOL   C905 1847   6.227   0.677   3.184 -0.2626 -0.6044 -0.2540
    2MOL   O906 1848   6.285   0.780   3.269 -0.1207  0.0744  0.5056
    2MOL   C907 1849   6.353   0.882   3.215 -0.5033 -0.2140 -0.6541
    2MOL   O908 1850   6.357   0.904   3.092  0.2999  0.0114  0.0462
    2MOL   C909 1851   6.427   0.975   3.309 -0.4872  0.4966 -0.6073
    2MOL   C910 1852   6.412   0.940   3.441  0.3447 -1.2308 -0.3216
    2MOL   C911 1853   6.478   1.013   3.542  0.9453  0.3640  0.2079
    2MOL   C912 1854   6.551   1.124   3.507  0.0289  0.6485 -0.3487
    2MOL   C913 1855   6.636   1.191   3.611 -0.4743  0.5983 -0.0020
    2MOL   O914 1856   6.711   1.285   3.578  0.4589 -0.6816  0.7892
    2MOL   O915 1857   6.624   1.149   3.736  0.1568 -0.5076 -0.5893
    2MOL   C916 1858   6.565   1.167   3.369 -0.0831 -0.1274  0.3687
    2MOL   C917 1859   6.498   1.093   3.271 -0.2681  0.0353 -0.8786
    2MOL   H918 1860   6.507   0.147   4.021 -0.9192 -0.4846 -0.0532
    2MOL   H919 1861   6.451   0.288   3.924 -0.0593 -0.1409  3.0104
    2MOL   H920 1862   6.326   0.072   3.888 -0.1504  1.2775  1.5243
    2MOL   H921 1863   6.477   0.014   3.813 -0.5342 -0.8203  0.8449
    2MOL   H922 1864   6.294   0.096   3.658 -0.4291  2.0411 -1.0613
    2MOL   H923 1865   6.309   0.254   3.726  0.4403  0.2823 -0.5041
    2MOL   H924 1866   6.509   0.084   3.574 -2.9867 -1.5882  2.8995
    2MOL   H925 1867   6.535   0.253   3.636 -0.6955  0.5407  1.4144
    2MOL   H926 1868   6.322   0.164   3.427 -3.1526  2.4076  0.4363
    2MOL   H927 1869   6.317   0.314   3.491 -0.3231  1.4622 -4.0001
    2MOL   H928 1870   6.556   0.365   3.425 -0.6157  2.1061 -1.5032
    2MOL   H929 1871   6.556   0.216   3.323 -0.7253 -2.1753  2.9258
    2MOL   H930 1872   6.530   0.396   3.195  1.1032  0.8235  2.1154
    2MOL   H931 1873   6.400   0.297   3.180  0.2467 -0.5778  0.1449
    2MOL   H932 1874   6.271   0.466   3.337  0.5108 -0.3750  0.9766
    2MOL   H933 1875   6.396   0.573   3.350  0.8079 -0.2072 -0.7607
    2MOL   H934 1876   6.281   0.511   3.078  1.3766  0.2136 -1.0268
    2MOL   H935 1877   6.420   0.615   3.120 -1.5684  1.6859 -0.5133
    2MOL   H936 1878   6.148   0.625   3.238  0.0671 -0.3824  0.4397
    2MOL   H937 1879   6.193   0.718   3.089  0.5553  2.0681  0.5684
    2MOL   H938 1880   6.366   0.848   3.473 -0.3515 -1.2071 -1.2355
    2MOL   H939 1881   6.478   0.980   3.645 -1.1745  0.5630  0.2948
    2MOL   H940 1882   6.631   1.248   3.339 -1.7056  0.5032 -1.5601
    2MOL   H941 1883   6.519   1.119   3.168  0.2417  0.5675 -0.6421
    2MOL   H942 1884   6.686   1.187   3.797 -2.5126  0.5767  1.5916
    3MOL     O1 1885   3.222   2.390   4.204 -0.5249  0.1686 -0.2682
    3MOL     C2 1886   3.303   2.378   4.310  0.2691 -1.1210  0.8104
    3MOL     C3 1887   3.222   2.397   4.438  0.5058 -0.2999  0.0242
    3MOL     C4 1888   3.169   2.541   4.463 -0.3943  0.1495  0.5677
    3MOL     C5 1889   3.166   2.575   4.615  0.4000  0.1229  0.4385
    3MOL     C6 1890   3.140   2.730   4.650 -0.0416 -0.1781  0.1670
    3MOL     C7 1891   3.064   2.756   4.777  0.2921  0.4616  0.1140
    3MOL     C8 1892   3.076   2.900   4.828 -0.1972  0.6908 -0.2642
    3MOL     C9 1893   2.966   2.942   4.926 -0.5530  0.3341 -0.8137
    3MOL    C10 1894   2.840   2.997   4.861  0.0759  0.0000  0.4224
    3MOL    C11 1895   2.729   3.024   4.956 -0.4518 -0.7131  0.2731
    3MOL    O12 1896   2.626   3.092   4.878  0.0013 -0.0325 -0.4514
    3MOL    C13 1897   2.506   3.040   4.865 -0.1690 -0.3301  0.4992
    3MOL    O14 1898   2.480   2.924   4.908 -0.2683  0.4504 -0.2453
    3MOL    C15 1899   2.424   3.128   4.775  0.1344  0.7299 -0.1101
    3MOL    C16 1900   2.442   3.264   4.756  0.0577 -0.3978 -0.2409
    3MOL    C17 1901   2.354   3.341   4.680 -0.0408 -0.2340  0.4740
    3MOL    C18 1902   2.249   3.280   4.609 -0.1458 -0.2705 -0.9623
    3MOL    C19 1903   2.165   3.362   4.525  0.1441 -0.2659  0.3975
    3MOL    O20 1904   2.091   3.310   4.446 -0.6875  0.1684  0.3332
    3MOL    O21 1905   2.174   3.496   4.539 -0.2686 -0.4772 -0.3112
    3MOL    C22 1906   2.227   3.143   4.633  0.7272 -0.1319 -0.0461
    3MOL    C23 1907   2.312   3.069   4.714  0.1969 -0.6536 -0.3945
    3MOL    H24 1908   3.359   2.285   4.303  1.1940 -0.5432  0.4904
    3MOL    H25 1909   3.382   2.453   4.302  0.5289 -1.1020  3.3380
    3MOL    H26 1910   3.287   2.363   4.519  0.8154  0.7270  0.2129
    3MOL    H27 1911   3.133   2.335   4.438 -0.0734  0.5240 -1.1256
    3MOL    H28 1912   3.240   2.614   4.424 -0.3970 -0.7518 -1.1942
    3MOL    H29 1913   3.073   2.553   4.413  0.7459 -2.3858 -2.3884
    3MOL    H30 1914   3.259   2.541   4.662  0.3441 -2.2846 -1.1098
    3MOL    H31 1915   3.084   2.516   4.657  0.1222  0.0019 -0.2782
    3MOL    H32 1916   3.236   2.780   4.645 -1.1963  1.9941 -1.0007
    3MOL    H33 1917   3.086   2.780   4.570  1.0156  0.4665 -0.1494
    3MOL    H34 1918   2.961   2.729   4.754  0.0721 -1.0188  2.6779
    3MOL    H35 1919   3.101   2.686   4.852 -0.3721  0.5759  0.5603
    3MOL    H36 1920   3.166   2.901   4.889 -0.3187 -1.1623 -0.0138
    3MOL    H37 1921   3.087   2.981   4.755 -1.9065  0.1790 -1.1107
    3MOL    H38 1922   2.940   2.863   4.996  3.0713  0.3040  0.6319
    3MOL    H39 1923   2.996   3.025   4.990  1.4394 -1.4340  0.6036
    3MOL    H40 1924   2.814   2.918   4.791  0.2711  0.5160 -0.2423
    3MOL    H41 1925   2.861   3.088   4.804  0.1822  0.9482  1.9437
    3MOL    H42 1926   2.772   3.097   5.025 -1.2988  0.9096 -0.8685
    3MOL    H43 1927   2.704   2.936   5.015  0.1477 -0.5367  0.8000
    3MOL    H44 1928   2.521   3.322   4.799  0.4087  0.2038 -1.6719
    3MOL    H45 1929   2.380   3.446   4.683 -1.5112  0.2561 -2.5106
    3MOL    H46 1930   2.138   3.103   4.586 -0.1887  0.9551  0.7364
    3MOL    H47 1931   2.290   2.967   4.741 -0.9798 -0.5803 -1.0760
    3MOL    H48 1932   3.143   2.340   4.217 -0.7189  0.7620  0.9644
    3MOL    O49 1933   2.105   3.569   4.432 -0.3528  0.1580  0.2266
    3MOL    C50 1934   1.993   3.637   4.489  0.5552 -0.0862  0.6183
    3MOL    C51 1935   1.870   3.558   4.480 -0.1593  0.1894 -0.0020
    3MOL    C52 1936   1.734   3.636   4.468 -0.5911  0.0733 -0.7159
    3MOL    C53 1937   1.616   3.538   4.475 -0.2448 -0.9973  0.0791
    3MOL    C54 1938   1.487   3.590   4.547 -1.4709 -0.6582 -0.0897
    3MOL    C55 1939   1.375   3.479   4.551 -0.4784 -0.5066  0.6158
    3MOL    C56 1940   1.235   3.540   4.602  0.2437  0.4858 -0.1556
    3MOL    C57 1941   1.117   3.439   4.586  0.1062  0.3975  0.2337
    3MOL    C58 1942   1.085   3.415   4.439  1.3516 -0.0097  0.4387
    3MOL    C59 1943   0.974   3.311   4.438  0.3012  0.4559  0.0982
    3MOL    O60 1944   0.948   3.275   4.302  0.4425 -0.1119  0.5618
    3MOL    C61 1945   0.850   3.345   4.242 -0.6758  0.0088  0.0464
    3MOL    O62 1946   0.779   3.433   4.296 -0.2631 -0.6382 -0.0983
    3MOL    C63 1947   0.837   3.300   4.100 -0.3925 -0.1401 -0.6240
    3MOL    C64 1948   0.944   3.232   4.037 -0.1483 -0.2257 -0.4974
    3MOL    C65 1949   0.920   3.166   3.916 -0.7985 -0.1542  0.2723
    3MOL    C66 1950   0.804   3.194   3.842 -0.6464  0.5009  0.6845
    3MOL    C67 1951   0.789   3.135   3.705  0.4202  0.8447  0.5768
    3MOL    O68 1952   0.872   3.056   3.662 -0.0441 -0.0291  0.2431
    3MOL    O69 1953   0.686   3.188   3.640 -0.1782 -0.9286  0.7825
    3MOL    C70 1954   0.710   3.288   3.896  0.1517 -0.1479 -0.0959
    3MOL    C71 1955   0.729   3.334   4.028 -0.1361 -0.0083  0.2761
    3MOL    H72 1956   2.026   3.670   4.587  1.0389  0.1356  0.3830
    3MOL    H73 1957   1.976   3.730   4.435 -1.0093 -1.1775 -0.8307
    3MOL    H74 1958   1.874   3.501   4.572  0.2588 -1.3072 -0.9251
    3MOL    H75 1959   1.859   3.483   4.401  0.4303  1.1945 -1.0512
    3MOL    H76 1960   1.739   3.702   4.555 -0.7645 -2.0780  0.9768
    3MOL    H77 1961   1.728   3.701   4.381 -0.9174  0.2239 -0.5821
    3MOL    H78 1962   1.658   3.459   4.536 -0.9206 -1.2130  0.2700
    3MOL    H79 1963   1.586   3.495   4.379 -0.0574  1.7301 -1.2621
    3MOL    H80 1964   1.509   3.617   4.650  2.2844 -0.6026 -0.8452
    3MOL    H81 1965   1.440   3.674   4.495 -0.4376  0.7184  1.1398
    3MOL    H82 1966   1.369   3.449   4.446 -3.1052  0.0698  0.5481
    3MOL    H83 1967   1.414   3.401   4.615 -0.4413  0.6530  2.0297
    3MOL    H84 1968   1.240   3.569   4.707 -1.5983 -2.1296  0.7044
    3MOL    H85 1969   1.215   3.631   4.546 -0.2183 -0.7109 -1.9613
    3MOL    H86 1970   1.134   3.346   4.641 -1.3697  0.3944  0.7160
    3MOL    H87 1971   1.035   3.485   4.641 -0.0404  1.6816 -1.0434
    3MOL    H88 1972   1.179   3.385   4.392  0.7389 -0.6551 -0.4076
    3MOL    H89 1973   1.039   3.501   4.390  0.6387  0.6779  2.2920
    3MOL    H90 1974   0.894   3.365   4.488  0.5279 -0.9829  2.0896
    3MOL    H91 1975   0.995   3.232   4.510 -0.7850  1.2889  1.3559
    3MOL    H92 1976   1.036   3.217   4.091 -1.1502  1.4881  1.7820
    3MOL    H93 1977   0.995   3.099   3.877 -1.2681 -0.1329 -0.6802
    3MOL    H94 1978   0.616   3.321   3.855  0.2084 -0.3860 -0.4225
    3MOL    H95 1979   0.651   3.398   4.066 -0.8703 -0.8048  0.1154
    3MOL    O96 1980   0.687   3.145   3.490 -0.9221  0.5175 -0.3102
    3MOL    C97 1981   0.779   3.225   3.409  0.5124  0.3359  0.4758
    3MOL    C98 1982   0.771   3.380   3.441 -0.1335 -0.3854 -1.0730
    3MOL    C99 1983   0.881   3.462   3.372  0.0907  0.8509 -0.3324
    3MOL   C100 1984   0.900   3.602   3.425  0.4452 -0.5348  0.9226
    3MOL   C101 1985   0.769   3.684   3.381 -0.3554  0.2878  0.3384
    3MOL   C102 1986   0.794   3.828   3.432  0.0522  0.1872 -0.7999
    3MOL   C103 1987   0.668   3.920   3.430  1.0731  1.0704  0.2753
    3MOL   C104 1988   0.699   4.058   3.488  0.4121  0.1225 -0.2308
    3MOL   C105 1989   0.601   4.179   3.451 -0.3955  0.5291 -0.1769
    3MOL   C106 1990   0.453   4.158   3.489 -0.6154  0.1061 -0.5959
    3MOL   O107 1991   0.430   4.159   3.629  0.6599 -0.1695  0.0082
    3MOL   C108 1992   0.464   4.261   3.717  0.8528  0.0813 -0.4873
    3MOL   O109 1993   0.513   4.367   3.686  0.3875 -0.7789 -0.1867
    3MOL   C110 1994   0.430   4.213   3.857  0.2278 -0.1234 -0.5146
    3MOL   C111 1995   0.344   4.104   3.882 -0.3211  0.4668 -0.7772
    3MOL   C112 1996   0.341   4.054   4.015  0.5177 -0.1398 -0.2345
    3MOL   C113 1997   0.405   4.118   4.119  0.0215  0.4979  0.1143
    3MOL   C114 1998   0.382   4.073   4.259 -0.2763  0.2795 -0.0351
    3MOL   O115 1999   0.310   3.981   4.299 -1.0317 -0.0930  0.4364
    3MOL   O116 2000   0.454   4.144   4.342 -0.8146 -0.1971  0.7740
    3MOL   C117 2001   0.489   4.228   4.094 -0.5010 -0.2696 -0.4167
    3MOL   C118 2002   0.494   4.279   3.963 -0.2787 -0.6017  0.0986
    3MOL   H119 2003   0.882   3.197   3.428  0.2559 -1.3786 -0.6324
    3MOL   H120 2004   0.758   3.195   3.307 -0.6671 -1.6640  1.2755
    3MOL   H121 2005   0.775   3.384   3.550 -0.4811 -0.0602 -1.0694
    3MOL   H122 2006   0.674   3.424   3.417  0.0518  1.4618  1.2805
    3MOL   H123 2007   0.983   3.428   3.390 -0.4430 -0.0498  1.0995
    3MOL   H124 2008   0.873   3.462   3.263  0.2864  1.3019 -0.3441
    3MOL   H125 2009   0.985   3.648   3.375  1.7548 -0.2747  3.3123
    3MOL   H126 2010   0.914   3.609   3.533 -0.3299  1.0615  0.9304
    3MOL   H127 2011   0.759   3.673   3.273  2.1735  2.4074 -0.1725
    3MOL   H128 2012   0.677   3.649   3.427 -0.4289 -0.1717 -0.1534
    3MOL   H129 2013   0.840   3.819   3.531  2.8527  1.3431 -1.9503
    3MOL   H130 2014   0.865   3.876   3.364  2.6070  0.3950  1.8948
    3MOL   H131 2015   0.638   3.928   3.325 -1.0386  0.8781  0.8601
    3MOL   H132 2016   0.595   3.864   3.488  1.6658 -1.3939 -1.2559
    3MOL   H133 2017   0.699   4.054   3.597  1.4980 -0.0707 -0.2326
    3MOL   H134 2018   0.802   4.085   3.464  1.1814 -2.6585 -0.2727
    3MOL   H135 2019   0.597   4.198   3.343 -0.5068 -0.3159 -0.3242
    3MOL   H136 2020   0.640   4.269   3.497  2.8710 -0.3324 -1.1585
    3MOL   H137 2021   0.424   4.060   3.453 -4.0058  0.4003  1.1525
    3MOL   H138 2022   0.405   4.250   3.458  2.0677  1.7223 -0.1170
    3MOL   H139 2023   0.287   4.058   3.802 -2.2113  2.5019 -0.6445
    3MOL   H140 2024   0.271   3.974   4.035 -1.0636  1.4781  0.8903
    3MOL   H141 2025   0.541   4.282   4.172 -2.6029  2.5965 -0.8939
    3MOL   H142 2026   0.552   4.367   3.940 -1.0439  0.6578  2.7341
    3MOL   O143 2027   0.444   4.102   4.496  0.1703 -0.3172  0.5927
    3MOL   C144 2028   0.562   4.048   4.545 -0.3154 -0.3496 -0.0464
    3MOL   C145 2029   0.540   4.017   4.695 -0.7423 -0.0357  0.1531
    3MOL   C146 2030   0.436   3.910   4.725  0.8743  1.0226 -0.1282
    3MOL   C147 2031   0.442   3.853   4.871  0.0853  0.5013 -0.2010
    3MOL   C148 2032   0.431   3.958   4.986 -0.0292 -0.1104 -0.0770
    3MOL   C149 2033   0.562   4.037   5.024 -0.4817  0.3283 -0.6949
    3MOL   C150 2034   0.546   4.169   5.107  0.2487 -0.9552  0.0962
    3MOL   C151 2035   0.473   4.285   5.038  0.4491 -0.1281  0.0031
    3MOL   C152 2036   0.525   4.424   5.076  1.0075 -0.3536 -0.1235
    3MOL   C153 2037   0.432   4.537   5.035  1.0318  0.3723  0.1592
    3MOL   O154 2038   0.427   4.535   4.890 -0.3674  0.1026 -0.4963
    3MOL   C155 2039   0.378   4.640   4.804  0.8086  0.4267 -0.1117
    3MOL   O156 2040   0.350   4.752   4.846 -0.1556 -0.1327 -0.3055
    3MOL   C157 2041   0.361   4.600   4.668 -0.6679 -0.7481  0.8310
    3MOL   C158 2042   0.386   4.470   4.620 -0.7544  0.4865  0.1473
    3MOL   C159 2043   0.358   4.438   4.486  0.0991  0.1392  0.7960
    3MOL   C160 2044   0.317   4.534   4.395  0.6677  0.2791  0.0919
    3MOL   C161 2045   0.285   4.492   4.253 -0.3891 -0.9742  0.2093
    3MOL   O162 2046   0.246   4.382   4.221 -0.1747  0.4526 -0.3994
    3MOL   O163 2047   0.325   4.588   4.172  0.1526 -0.0932 -0.1856
    3MOL   C164 2048   0.286   4.666   4.442  0.2588  0.5289  0.2320
    3MOL   C165 2049   0.304   4.701   4.579  0.5694  0.0028  0.6982
    3MOL   H166 2050   0.597   3.966   4.482  1.7079  1.1164 -0.8776
    3MOL   H167 2051   0.646   4.116   4.534  1.2395 -1.9147  1.7453
    3MOL   H168 2052   0.521   4.117   4.734  0.5028 -0.5662  2.1680
    3MOL   H169 2053   0.634   3.983   4.739  0.2360  1.0153 -1.0862
    3MOL   H170 2054   0.340   3.953   4.696 -1.1352 -1.7936  2.0827
    3MOL   H171 2055   0.443   3.826   4.656 -1.7606 -0.7776  1.7047
    3MOL   H172 2056   0.529   3.791   4.891 -0.1105  0.7413  1.4555
    3MOL   H173 2057   0.359   3.783   4.877 -0.3740  0.8977 -1.7708
    3MOL   H174 2058   0.361   4.034   4.953  1.2130  1.5414  1.0012
    3MOL   H175 2059   0.392   3.911   5.076 -1.1965  1.2550  0.1366
    3MOL   H176 2060   0.632   3.973   5.078  0.5305  0.7137 -1.5427
    3MOL   H177 2061   0.619   4.081   4.943  0.0636 -0.2327 -0.6196
    3MOL   H178 2062   0.500   4.146   5.203 -0.4901 -0.6845 -0.1917
    3MOL   H179 2063   0.649   4.198   5.129  0.1055 -0.2977 -0.0811
    3MOL   H180 2064   0.472   4.272   4.930  2.3061 -1.5813  0.1326
    3MOL   H181 2065   0.370   4.261   5.063  0.4866 -1.9051 -1.4551
    3MOL   H182 2066   0.628   4.440   5.043  0.3403  0.3545 -1.9254
    3MOL   H183 2067   0.532   4.423   5.185 -2.2013  0.6128  0.1221
    3MOL   H184 2068   0.464   4.633   5.075 -0.7014  0.2680  1.8469
    3MOL   H185 2069   0.332   4.519   5.075  2.0013  0.3626  2.6612
    3MOL   H186 2070   0.415   4.385   4.680  0.0326  0.1832 -0.6423
    3MOL   H187 2071   0.364   4.334   4.459 -0.3036  0.4932 -0.6571
    3MOL   H188 2072   0.231   4.742   4.389  2.2483  2.1964  0.4745
    3MOL   H189 2073   0.262   4.797   4.604 -0.7095 -0.1271 -0.8719
    3MOL   O190 2074   0.327   4.552   4.029 -0.4920  0.0845  0.0004
    3MOL   C191 2075   0.227   4.635   3.971 -0.4474 -0.0512  0.6441
    3MOL   C192 2076   0.183   4.569   3.835  0.0996 -0.0673  0.3005
    3MOL   C193 2077   0.111   4.438   3.858  0.1940  0.1068  0.1146
    3MOL   C194 2078   7.962   4.442   3.951  0.4307  0.0533  0.0548
    3MOL   C195 2079   7.870   4.311   3.957 -0.0405 -0.2432 -0.3273
    3MOL   C196 2080   7.955   4.185   3.972 -0.1345 -0.0698  0.7535
    3MOL   C197 2081   7.868   4.062   3.980 -0.0721  0.2496  0.3972
    3MOL   C198 2082   7.947   3.937   4.005  0.0754 -0.2436  0.4479
    3MOL   C199 2083   7.852   3.809   4.001 -0.4967 -0.1535  0.3114
    3MOL   C200 2084   7.928   3.674   3.987  0.0943  0.1360 -0.3840
    3MOL   O201 2085   0.034   3.648   4.098  0.0169 -0.0812  0.2833
    3MOL   C202 2086   0.159   3.619   4.069  0.0555 -0.3854 -0.3384
    3MOL   O203 2087   0.205   3.598   3.953  0.4049 -0.0264  0.0390
    3MOL   C204 2088   0.242   3.609   4.194 -0.9173  0.1059 -0.3047
    3MOL   C205 2089   0.190   3.623   4.325  0.4917  0.1553 -1.0506
    3MOL   C206 2090   0.268   3.609   4.439 -0.3733  0.4504  0.1967
    3MOL   C207 2091   0.412   3.584   4.424  0.1657  0.6106 -0.0767
    3MOL   C208 2092   0.499   3.567   4.552 -0.1989  0.5210  0.5664
    3MOL   O209 2093   0.467   3.585   4.668 -0.5221 -0.3927 -0.0780
    3MOL   O210 2094   0.629   3.550   4.521  0.7107 -0.1540  0.8140
    3MOL   C211 2095   0.466   3.589   4.289  0.5693  0.0548 -0.3702
    3MOL   C212 2096   0.386   3.603   4.178  0.5663 -0.4877  0.1303
    3MOL   H213 2097   0.149   4.651   4.046  1.9583 -0.2742  3.2939
    3MOL   H214 2098   0.272   4.731   3.949 -1.3258  0.1736 -0.2333
    3MOL   H215 2099   0.261   4.554   3.760  1.4439 -0.7607  1.7980
    3MOL   H216 2100   0.122   4.640   3.779  0.8331 -0.0753 -0.5110
    3MOL   H217 2101   0.091   4.391   3.761  0.8633 -1.8768  0.9096
    3MOL   H218 2102   0.185   4.371   3.901  0.5712  0.9255  0.7536
    3MOL   H219 2103   7.898   4.521   3.910  1.0117  0.6395  0.2755
    3MOL   H220 2104   0.008   4.475   4.052  0.0729 -2.8655  1.1235
    3MOL   H221 2105   7.797   4.314   4.038  0.8388  1.4000  0.4251
    3MOL   H222 2106   7.811   4.311   3.865  0.7885 -0.4713 -0.8716
    3MOL   H223 2107   0.043   4.173   3.887 -1.5785  2.5738 -0.7914
    3MOL   H224 2108   0.044   4.189   4.058  1.4135  0.3163 -0.4506
    3MOL   H225 2109   7.795   4.083   4.058 -1.8041  2.2796 -1.7360
    3MOL   H226 2110   7.805   4.049   3.893 -1.1385 -0.6773  1.2940
    3MOL   H227 2111   0.036   3.920   3.921 -0.8341 -1.6303 -0.0151
    3MOL   H228 2112   0.024   3.941   4.099  0.2828 -1.9017  0.4195
    3MOL   H229 2113   7.772   3.817   3.927  0.3767  1.6986 -0.4758
    3MOL   H230 2114   7.790   3.797   4.090 -1.2670  1.2217 -0.0297
    3MOL   H231 2115   7.975   3.663   3.889 -1.2816  0.3381 -1.0687
    3MOL   H232 2116   7.858   3.592   4.002 -0.2424  0.3066 -1.0085
    3MOL   H233 2117   0.083   3.631   4.332  0.5704 -0.4914  1.4853
    3MOL   H234 2118   0.222   3.609   4.537 -1.5943 -2.8561 -0.2856
    3MOL   H235 2119   0.572   3.582   4.270  0.4814  1.6440 -1.5337
    3MOL   H236 2120   0.423   3.579   4.080  1.3881  0.0756  0.2982
    3MOL   O237 2121   0.722   3.516   4.630 -0.2635  0.2255 -0.3440
    3MOL   C238 2122   0.782   3.637   4.679 -0.4958  0.0053 -0.4923
    3MOL   C239 2123   0.827   3.739   4.579  0.3456  0.2641 -0.6003
    3MOL   C240 2124   0.926   3.834   4.642 -0.1502 -0.0315  0.1724
    3MOL   C241 2125   1.015   3.894   4.535 -0.0052  0.4108  0.2922
    3MOL   C242 2126   0.953   4.009   4.456  0.1832  0.8279 -0.5709
    3MOL   C243 2127   1.015   4.036   4.319 -0.6143  0.2172 -1.5388
    3MOL   C244 2128   0.947   4.149   4.234 -1.0273  0.7241 -0.2467
    3MOL   C245 2129   1.036   4.188   4.123  0.2765 -0.5131  0.8219
    3MOL   C246 2130   0.981   4.290   4.025 -0.6646 -0.1568 -0.0642
    3MOL   C247 2131   0.877   4.247   3.916  0.1063  0.5351 -0.5827
    3MOL   O248 2132   0.948   4.164   3.820 -0.8432 -0.2984  0.3196
    3MOL   C249 2133   1.000   4.217   3.715 -0.0234 -0.4827 -0.0600
    3MOL   O250 2134   1.000   4.340   3.695 -0.3916 -0.2647  0.4149
    3MOL   C251 2135   1.072   4.113   3.635 -0.2543  0.0068  0.0289
    3MOL   C252 2136   1.106   4.136   3.498 -0.0103  0.7777  0.3843
    3MOL   C253 2137   1.165   4.032   3.420 -0.5037 -0.3700  0.0729
    3MOL   C254 2138   1.187   3.906   3.481 -0.3520 -0.0630  0.5553
    3MOL   C255 2139   1.243   3.799   3.391 -0.3689 -0.3693 -0.7806
    3MOL   O256 2140   1.258   3.807   3.270 -0.1201  0.1657 -0.3735
    3MOL   O257 2141   1.285   3.687   3.465 -0.3254 -0.1226  0.1030
    3MOL   C258 2142   1.149   3.879   3.616 -0.4907  0.2543 -0.0518
    3MOL   C259 2143   1.097   3.984   3.691  0.5247 -0.0001 -0.1655
    3MOL   H260 2144   0.709   3.684   4.743 -0.0172  0.7560 -0.4923
    3MOL   H261 2145   0.858   3.604   4.750  1.6683 -0.3843 -2.8831
    3MOL   H262 2146   0.742   3.791   4.535 -0.5035 -1.1798 -0.7165
    3MOL   H263 2147   0.856   3.685   4.489 -1.1211 -1.3725 -0.1374
    3MOL   H264 2148   0.877   3.906   4.708  0.6101  1.2640 -0.6729
    3MOL   H265 2149   0.990   3.788   4.718  1.8573 -0.1973 -1.5841
    3MOL   H266 2150   1.047   3.817   4.464  0.1909 -0.1564  0.9831
    3MOL   H267 2151   1.110   3.937   4.567 -0.3010  3.0545 -2.1954
    3MOL   H268 2152   0.847   3.984   4.452  0.6936 -1.6816  0.3928
    3MOL   H269 2153   0.961   4.106   4.504  0.7266  0.2863  0.4403
    3MOL   H270 2154   1.118   4.064   4.341 -0.3427 -0.1812 -2.2655
    3MOL   H271 2155   1.032   3.943   4.265 -1.9432 -0.7959 -0.2759
    3MOL   H272 2156   0.846   4.117   4.210  0.4850 -4.8377  0.1307
    3MOL   H273 2157   0.944   4.239   4.296 -0.9522 -0.4845  1.5393
    3MOL   H274 2158   1.131   4.221   4.165 -0.2696 -1.8868  3.2108
    3MOL   H275 2159   1.067   4.095   4.073 -0.7670 -0.2051 -0.4244
    3MOL   H276 2160   1.071   4.330   3.977 -2.0027  1.9905 -0.8411
    3MOL   H277 2161   0.929   4.371   4.076 -0.0509 -0.8011  1.6292
    3MOL   H278 2162   0.825   4.327   3.864 -0.2983  0.0238 -0.9618
    3MOL   H279 2163   0.799   4.191   3.967  0.3081  0.4792 -0.3351
    3MOL   H280 2164   1.100   4.230   3.445  1.0378  0.9823  0.6155
    3MOL   H281 2165   1.194   4.050   3.318 -0.8780 -1.1487 -0.1792
    3MOL   H282 2166   1.170   3.781   3.654 -0.7382  0.3966  0.4574
    3MOL   H283 2167   1.079   3.957   3.794  0.1933 -0.6085 -0.3818
    3MOL   O284 2168   1.325   3.569   3.376 -0.3000 -0.1225  0.4843
    3MOL   C285 2169   1.464   3.575   3.366  0.0842 -0.0503  0.4075
    3MOL   C286 2170   1.513   3.439   3.315 -0.5758 -0.1675 -0.0945
    3MOL   C287 2171   1.667   3.428   3.314  0.1099  0.2148 -0.2374
    3MOL   C288 2172   1.718   3.283   3.272  0.2955 -0.6875  0.1502
    3MOL   C289 2173   1.867   3.269   3.290 -0.4063 -0.3801 -0.4520
    3MOL   C290 2174   1.918   3.131   3.268  0.1822  0.6934  0.0211
    3MOL   C291 2175   1.949   3.123   3.120  0.1155 -0.9128  0.2472
    3MOL   C292 2176   1.986   2.982   3.080  0.2851 -0.0093 -0.5638
    3MOL   C293 2177   2.036   2.970   2.936 -0.4065 -0.2796 -0.4856
    3MOL   C294 2178   2.022   2.828   2.873  0.1018  0.7055  0.7326
    3MOL   O295 2179   2.034   2.850   2.732  0.1909  0.2185  0.2490
    3MOL   C296 2180   2.136   2.795   2.668  0.2219  0.1309  0.0922
    3MOL   O297 2181   2.239   2.743   2.716 -0.0592  0.3974 -0.1715
    3MOL   C298 2182   2.114   2.797   2.521  0.1468 -0.1352 -0.0669
    3MOL   C299 2183   2.023   2.890   2.466  0.2093 -0.1782 -0.1153
    3MOL   C300 2184   2.012   2.902   2.329 -0.1739  0.8376  0.9207
    3MOL   C301 2185   2.069   2.809   2.237 -0.2872 -0.7567  0.3039
    3MOL   C302 2186   2.037   2.817   2.091  0.2367 -0.0568 -0.4460
    3MOL   O303 2187   1.976   2.913   2.036  0.1919 -0.0721 -0.5295
    3MOL   O304 2188   2.091   2.703   2.025  0.1770 -0.2440 -0.1937
    3MOL   C305 2189   2.156   2.714   2.299 -0.0087  0.3240 -0.3950
    3MOL   C306 2190   2.186   2.714   2.436  0.6874 -0.0125  0.3393
    3MOL   H307 2191   1.507   3.655   3.306  2.4605 -2.4261 -1.2094
    3MOL   H308 2192   1.502   3.588   3.467 -0.8579 -0.5197  0.8320
    3MOL   H309 2193   1.477   3.424   3.213 -2.1842  0.6864  0.3245
    3MOL   H310 2194   1.470   3.369   3.386  2.6116 -2.0304  0.0896
    3MOL   H311 2195   1.710   3.506   3.252 -0.4794  1.5112  0.9599
    3MOL   H312 2196   1.698   3.449   3.417  0.1342 -0.0423 -0.1925
    3MOL   H313 2197   1.680   3.263   3.172 -0.9139 -0.7868  0.6208
    3MOL   H314 2198   1.671   3.211   3.338 -0.6404 -0.5996 -0.4083
    3MOL   H315 2199   1.923   3.346   3.237 -1.7764  0.3113 -0.9102
    3MOL   H316 2200   1.891   3.298   3.393 -0.8485 -2.0370  0.1339
    3MOL   H317 2201   2.011   3.122   3.323 -1.5121  0.1819  2.9485
    3MOL   H318 2202   1.855   3.049   3.303  0.9892  0.3961  0.7923
    3MOL   H319 2203   1.854   3.144   3.071 -0.0094  2.8300  1.9475
    3MOL   H320 2204   2.035   3.189   3.105  0.4746 -1.4431 -0.0488
    3MOL   H321 2205   2.054   2.922   3.140 -2.4186 -1.4071  1.1543
    3MOL   H322 2206   1.896   2.923   3.094  0.2003  0.1298 -0.5154
    3MOL   H323 2207   2.140   3.001   2.946 -0.5360 -0.6730  2.4714
    3MOL   H324 2208   1.978   3.046   2.884  1.7834  1.7892 -0.0161
    3MOL   H325 2209   1.919   2.794   2.883  0.0392  0.0002 -1.9131
    3MOL   H326 2210   2.094   2.756   2.911 -1.0602 -1.9327 -1.8249
    3MOL   H327 2211   1.952   2.945   2.526 -0.0227 -0.1063 -0.4594
    3MOL   H328 2212   1.930   2.965   2.298 -0.0770  0.3711 -0.2995
    3MOL   H329 2213   2.183   2.628   2.239  1.3940 -0.0531  0.7608
    3MOL   H330 2214   2.248   2.636   2.477 -0.7036 -0.3112  1.9524
    3MOL   O331 2215   2.052   2.689   1.877 -0.0047 -0.7725 -0.3395
    3MOL   C332 2216   2.154   2.740   1.794 -0.0351  0.4295 -0.4365
    3MOL   C333 2217   2.115   2.726   1.644 -0.3330  0.0217 -0.2242
    3MOL   C334 2218   2.206   2.826   1.557 -0.2011 -0.2898  0.0189
    3MOL   C335 2219   2.165   2.977   1.562 -0.3596 -0.2995  0.1122
    3MOL   C336 2220   2.016   2.995   1.514  0.2660 -0.0523 -0.0563
    3MOL   C337 2221   1.984   3.144   1.485  0.0467  0.0717  0.3441
    3MOL   C338 2222   2.056   3.198   1.360  0.1956 -0.4123  0.6006
    3MOL   C339 2223   1.967   3.168   1.230  0.0605  0.1076 -0.8031
    3MOL   C340 2224   2.033   3.199   1.092 -0.0918 -0.2511  0.0808
    3MOL   C341 2225   1.940   3.208   0.971 -0.0973 -0.3197 -0.0326
    3MOL   O342 2226   1.886   3.079   0.947  0.2174  0.2504 -0.1181
    3MOL   C343 2227   1.759   3.070   0.895 -0.3699 -0.0839 -0.5165
    3MOL   O344 2228   1.692   3.169   0.860 -0.4941  0.1892  0.4846
    3MOL   C345 2229   1.717   2.928   0.876  0.2728  0.3873  0.3794
    3MOL   C346 2230   1.580   2.900   0.870 -0.0570  0.1547  0.0144
    3MOL   C347 2231   1.544   2.766   0.862  0.4512  0.1354  0.4105
    3MOL   C348 2232   1.642   2.663   0.860 -0.4657  0.3827  0.0396
    3MOL   C349 2233   1.596   2.518   0.855 -0.0047 -0.0918  0.4623
    3MOL   O350 2234   1.476   2.487   0.855 -0.5536 -0.0549 -0.2018
    3MOL   O351 2235   1.701   2.432   0.877  0.0877 -0.1774  0.0903
    3MOL   C352 2236   1.775   2.696   0.864 -0.4459 -0.1831 -0.0401
    3MOL   C353 2237   1.815   2.828   0.875 -0.7519  0.2010 -0.7370
    3MOL   H354 2238   2.162   2.846   1.822 -0.6417 -0.2008  2.2716
    3MOL   H355 2239   2.252   2.694   1.802 -1.9203 -3.6055  0.5159
    3MOL   H356 2240   2.008   2.742   1.632 -0.5073 -1.6805 -1.1475
    3MOL   H357 2241   2.121   2.623   1.607 -0.6421  0.3933 -1.3455
    3MOL   H358 2242   2.311   2.807   1.580 -0.6131  0.2096  2.4379
    3MOL   H359 2243   2.198   2.800   1.451 -2.4440  1.6282 -0.3068
    3MOL   H360 2244   2.229   3.041   1.500 -1.0767  0.3371  0.0119
    3MOL   H361 2245   2.172   3.030   1.657  2.4286  1.5044 -1.0655
    3MOL   H362 2246   2.006   2.933   1.425  2.1932  0.7390 -0.8555
    3MOL   H363 2247   1.950   2.952   1.589 -0.0418  0.3698 -0.0829
    3MOL   H364 2248   1.878   3.163   1.470  0.0669  1.2003  1.5640
    3MOL   H365 2249   2.009   3.195   1.577 -2.0070  2.9906 -0.6510
    3MOL   H366 2250   2.068   3.306   1.366 -1.4689 -0.2637  1.3457
    3MOL   H367 2251   2.160   3.172   1.341  0.3415  0.5957 -0.0679
    3MOL   H368 2252   1.950   3.061   1.234  1.0572 -0.0042  0.8083
    3MOL   H369 2253   1.867   3.210   1.238 -0.2043 -0.5805 -0.4829
    3MOL   H370 2254   2.124   3.140   1.077 -0.1390  0.0385 -1.4046
    3MOL   H371 2255   2.073   3.299   1.104 -0.5225  0.0013 -0.5958
    3MOL   H372 2256   1.986   3.253   0.883  0.1528  0.3069  0.4144
    3MOL   H373 2257   1.864   3.279   1.005  1.1065  1.4682 -1.0123
    3MOL   H374 2258   1.499   2.972   0.872 -1.2658 -1.1676 -0.0827
    3MOL   H375 2259   1.443   2.730   0.867  0.2264  0.7591  0.3164
    3MOL   H376 2260   1.851   2.619   0.864 -0.9127 -0.6727 -1.5319
    3MOL   H377 2261   1.921   2.845   0.880 -0.4550 -2.1298  1.5026
    3MOL   O378 2262   1.655   2.295   0.930 -0.1582  0.3956  0.2081
    3MOL   C379 2263   1.654   2.206   0.821  0.4006 -0.0999 -0.0215
    3MOL   C380 2264   1.586   2.073   0.848 -0.1770 -0.6576  0.7174
    3MOL   C381 2265   1.690   1.958   0.834  0.3328  0.3351  0.0866
    3MOL   C382 2266   1.626   1.824   0.871  0.8263 -1.0454 -0.9043
    3MOL   C383 2267   1.718   1.695   0.879 -0.0161 -0.3295  0.0517
    3MOL   C384 2268   1.755   1.638   0.739  0.0177  0.2688 -0.9094
    3MOL   C385 2269   1.833   1.510   0.756 -1.1141  0.4640  0.2860
    3MOL   C386 2270   1.886   1.447   0.622 -0.1240  0.4172 -0.7541
    3MOL   C387 2271   1.777   1.373   0.545 -0.2818  0.0246 -0.0427
    3MOL   C388 2272   1.841   1.262   0.457  0.6207 -0.1139 -0.2841
    3MOL   O389 2273   1.921   1.161   0.525  0.3377  0.0585 -0.1854
    3MOL   C390 2274   2.042   1.138   0.485  0.1529  0.2092  0.3552
    3MOL   O391 2275   2.100   1.200   0.397 -0.4305 -0.1502 -0.2470
    3MOL   C392 2276   2.106   1.024   0.556 -0.6039  0.2748 -0.0268
    3MOL   C393 2277   2.034   0.942   0.636  0.5422  0.1209 -0.4159
    3MOL   C394 2278   2.096   0.828   0.696 -0.4971 -0.1295  0.7650
    3MOL   C395 2279   2.234   0.805   0.674  0.2113  0.8061 -0.6685
    3MOL   C396 2280   2.295   0.678   0.713  0.7816  0.4734  0.1484
    3MOL   O397 2281   2.400   0.641   0.664  0.0450 -0.6044 -0.0159
    3MOL   O398 2282   2.231   0.601   0.804 -0.0121 -0.5279 -0.2978
    3MOL   C399 2283   2.310   0.894   0.600  0.8658  0.3895  0.0952
    3MOL   C400 2284   2.246   1.001   0.535 -0.0919  0.5048 -0.0663
    3MOL   H401 2285   1.596   2.246   0.737 -2.1268 -0.6844  1.3879
    3MOL   H402 2286   1.757   2.188   0.789  0.4157 -1.1854  0.6472
    3MOL   H403 2287   1.510   2.053   0.772  1.0796 -1.4958 -0.3275
    3MOL   H404 2288   1.522   2.066   0.936  0.1227 -0.9758  0.9136
    3MOL   H405 2289   1.735   1.947   0.735  1.7117  3.5432  0.3157
    3MOL   H406 2290   1.776   1.977   0.898  0.1572  0.6702  0.2238
    3MOL   H407 2291   1.554   1.795   0.795 -0.3519 -1.4618  0.3488
    3MOL   H408 2292   1.576   1.823   0.968  1.8505 -0.0622 -0.3500
    3MOL   H409 2293   1.813   1.718   0.926  1.1862 -0.6975 -2.1427
    3MOL   H410 2294   1.671   1.617   0.939  0.4088  0.2634  1.1571
    3MOL   H411 2295   1.661   1.620   0.686 -1.0373  0.6722  0.7534
    3MOL   H412 2296   1.797   1.717   0.678 -0.1185  1.3716  0.3953
    3MOL   H413 2297   1.919   1.531   0.820 -0.0039 -0.0293 -1.0132
    3MOL   H414 2298   1.774   1.438   0.812  1.7039 -1.4673  0.8833
    3MOL   H415 2299   1.937   1.521   0.560  0.9126  0.9529  0.7056
    3MOL   H416 2300   1.958   1.375   0.660 -0.9342  0.1728  0.3255
    3MOL   H417 2301   1.718   1.433   0.476  0.2352 -0.8366 -1.2573
    3MOL   H418 2302   1.708   1.331   0.618 -1.0949  0.1095 -0.7543
    3MOL   H419 2303   1.895   1.308   0.375  1.7258 -2.0956 -0.6965
    3MOL   H420 2304   1.760   1.205   0.412 -0.5275  0.6046  0.8385
    3MOL   H421 2305   1.928   0.952   0.651  0.5319 -1.7891  0.9021
    3MOL   H422 2306   2.032   0.758   0.746 -0.0552  0.0216  1.5426
    3MOL   H423 2307   2.418   0.890   0.590  0.7330 -1.7934 -0.5830
    3MOL   H424 2308   2.302   1.070   0.474 -0.8875  1.9527  0.8288
    3MOL   O425 2309   2.298   0.468   0.828  0.4813 -0.0014 -0.6699
    3MOL   C426 2310   2.220   0.368   0.769  0.1059 -0.2007  1.0128
    3MOL   C427 2311   2.296   0.237   0.813  0.0772 -0.6965  1.4074
    3MOL   C428 2312   2.200   0.117   0.795 -0.7694 -0.0353  0.0367
    3MOL   C429 2313   2.248   7.960   0.847  0.1160  0.3594 -0.0842
    3MOL   C430 2314   2.136   7.853   0.864  0.4422  0.2750  0.3820
    3MOL   C431 2315   2.195   7.712   0.904 -0.1416  0.2077  0.0043
    3MOL   C432 2316   2.080   7.611   0.950 -0.2870 -1.1029 -0.6518
    3MOL   C433 2317   2.120   7.461   0.961 -0.2168  0.8410  0.0794
    3MOL   C434 2318   2.012   7.369   1.019 -1.0152 -0.3290  0.7532
    3MOL   C435 2319   2.071   7.232   1.044  0.5459 -0.2975  0.3461
    3MOL   O436 2320   2.107   7.160   0.926  0.2179 -0.1782 -0.6567
    3MOL   C437 2321   2.143   7.037   0.931  0.2249  0.1913 -0.4567
    3MOL   O438 2322   2.136   6.962   1.028 -0.0345  0.3991 -0.2098
    3MOL   C439 2323   2.188   6.995   0.797 -0.2799 -0.0285 -0.4957
    3MOL   C440 2324   2.139   7.051   0.675  0.7052 -0.0165 -0.0330
    3MOL   C441 2325   2.168   6.988   0.555  0.6984  0.6699 -0.3009
    3MOL   C442 2326   2.247   6.871   0.558 -0.3595  0.6800  0.3960
    3MOL   C443 2327   2.260   6.799   0.421  0.1197  0.2103 -0.0325
    3MOL   O444 2328   2.190   6.827   0.328  0.2219  0.1637  0.0918
    3MOL   O445 2329   2.349   6.698   0.426 -0.0865  0.2309 -0.0204
    3MOL   C446 2330   2.308   6.825   0.674  0.3608  0.0647  0.1991
    3MOL   C447 2331   2.283   6.891   0.792  0.4994  0.4783  0.2067
    3MOL   H448 2332   2.119   0.375   0.807  0.0990  0.8128  0.8019
    3MOL   H449 2333   2.228   0.387   0.662  0.8908  1.1191  1.2933
    3MOL   H450 2334   2.344   0.247   0.910 -0.8059 -2.4348  2.0511
    3MOL   H451 2335   2.390   0.220   0.760  1.4561 -0.8055  3.8122
    3MOL   H452 2336   2.101   0.133   0.835 -1.6819 -1.5604 -1.5176
    3MOL   H453 2337   2.178   0.108   0.688 -0.5337  0.0569 -0.0216
    3MOL   H454 2338   2.296   7.972   0.944  1.2903 -1.6218 -0.3831
    3MOL   H455 2339   2.328   7.928   0.780 -0.1862 -1.7284  0.4906
    3MOL   H456 2340   2.058   7.876   0.937 -0.2790  0.4701 -0.4462
    3MOL   H457 2341   2.076   7.850   0.773  0.2998 -2.7387  0.5321
    3MOL   H458 2342   2.231   7.665   0.812  0.3125 -0.3682  0.4797
    3MOL   H459 2343   2.280   7.722   0.971 -0.1305  2.2709 -0.2819
    3MOL   H460 2344   2.051   7.646   1.049  1.8767  0.1924 -0.4430
    3MOL   H461 2345   1.991   7.609   0.887 -2.0481 -0.4408  1.7198
    3MOL   H462 2346   2.156   7.429   0.863 -0.3566  0.4800  0.1472
    3MOL   H463 2347   2.203   7.453   1.031  0.1403 -1.4599 -0.5908
    3MOL   H464 2348   1.933   7.361   0.944  1.6187 -0.8519 -2.0490
    3MOL   H465 2349   1.970   7.409   1.112  0.8940  0.2652  1.3858
    3MOL   H466 2350   1.988   7.174   1.084 -2.0937  1.4010 -2.4814
    3MOL   H467 2351   2.147   7.240   1.122  0.2816  0.5321  0.5205
    3MOL   H468 2352   2.068   7.132   0.680  0.2938 -0.4142  0.7086
    3MOL   H469 2353   2.132   7.029   0.462 -2.0229  1.2065  0.9401
    3MOL   H470 2354   2.369   6.736   0.673 -0.1099 -0.2641  0.9584
    3MOL   H471 2355   2.319   6.845   0.882 -0.3713  1.9236  1.3306
    3MOL   O472 2356   2.422   6.663   0.304  0.3202  0.2552  0.3051
    3MOL   C473 2357   2.355   6.559   0.247 -0.1231  0.3671 -0.2108
    3MOL   C474 2358   2.422   6.498   0.121 -0.0192  0.1083 -1.3814
    3MOL   C475 2359   2.549   6.428   0.154  0.4062  0.1354  0.0594
    3MOL   C476 2360   2.622   6.394   0.033  0.0986  0.3957  0.6850
    3MOL   C477 2361   2.746   6.310   0.061  0.7504 -0.3267 -0.6026
    3MOL   C478 2362   2.824   6.253   7.922 -0.6301 -0.6218  0.1434
    3MOL   C479 2363   2.974   6.234   7.943  1.0262  0.0889 -0.4960
    3MOL   C480 2364   3.059   6.364   7.958 -0.4105 -0.0841  0.2481
    3MOL   C481 2365   3.208   6.332   7.936  0.0277 -0.2641  0.4557
    3MOL   C482 2366   3.275   6.229   0.050  0.1474 -0.0726  0.2513
    3MOL   O483 2367   3.316   6.274   0.175 -0.0307  0.2286 -0.7295
    3MOL   C484 2368   3.234   6.245   0.278 -0.2429 -0.2940  0.4133
    3MOL   O485 2369   3.116   6.210   0.266 -0.0414 -0.5568  0.7364
    3MOL   C486 2370   3.288   6.278   0.412  0.3357 -0.1024  0.6042
    3MOL   C487 2371   3.427   6.279   0.434 -0.4871 -0.4880 -0.3504
    3MOL   C488 2372   3.483   6.314   0.556  0.1738  0.1567 -0.7060
    3MOL   C489 2373   3.392   6.341   0.666 -0.2830  0.0659 -0.5454
    3MOL   C490 2374   3.448   6.361   0.805  0.0892  0.1785 -0.7359
    3MOL   O491 2375   3.371   6.404   0.896  0.4366 -0.1796  0.0813
    3MOL   O492 2376   3.577   6.350   0.816 -0.9923 -0.4375 -0.0746
    3MOL   C493 2377   3.253   6.327   0.650  0.0266 -0.2011 -0.5919
    3MOL   C494 2378   3.202   6.290   0.522 -0.4145  0.1971  0.6141
    3MOL   H495 2379   2.334   6.473   0.310 -0.0178  1.3176  1.1289
    3MOL   H496 2380   2.257   6.598   0.219 -0.3549  0.6735  1.0271
    3MOL   H497 2381   2.449   6.578   0.052 -1.6628  0.4968 -1.5877
    3MOL   H498 2382   2.356   6.441   0.055 -1.8084 -2.6689  2.6334
    3MOL   H499 2383   2.623   6.482   0.213  1.0729  1.4994 -1.9738
    3MOL   H500 2384   2.524   6.337   0.208 -3.4744  1.7096  1.1061
    3MOL   H501 2385   2.663   6.479   7.956  0.9126 -1.4579 -1.6442
    3MOL   H502 2386   2.558   6.332   7.948  0.2006  1.5519 -0.5922
    3MOL   H503 2387   2.818   6.381   0.100 -0.2670  0.5196 -0.2445
    3MOL   H504 2388   2.725   6.227   0.129 -1.6209  0.5018 -0.2722
    3MOL   H505 2389   2.783   6.155   7.897 -0.8237 -0.8662  1.3875
    3MOL   H506 2390   2.814   6.311   7.830 -1.4921 -0.6561  0.2152
    3MOL   H507 2391   2.991   6.166   0.048 -2.4897  0.0912  0.2754
    3MOL   H508 2392   3.017   6.181   7.858 -2.0789 -3.9531  0.3248
    3MOL   H509 2393   3.028   6.442   7.889 -0.8978 -0.1742  0.3685
    3MOL   H510 2394   3.047   6.416   0.075 -0.6254  0.3792 -0.0293
    3MOL   H511 2395   3.269   6.421   7.951 -1.5805  0.9379 -0.0840
    3MOL   H512 2396   3.225   6.294   7.835 -1.6342 -2.5113  0.9745
    3MOL   H513 2397   3.359   6.190   7.970 -0.9005 -0.1311 -1.2655
    3MOL   H514 2398   3.206   6.146   0.063 -0.2617  0.3109  0.5517
    3MOL   H515 2399   3.496   6.268   0.352 -1.8966 -1.0086 -1.4961
    3MOL   H516 2400   3.590   6.329   0.559 -0.0530  2.0976 -1.6171
    3MOL   H517 2401   3.191   6.337   0.738 -0.2319 -2.6990 -0.4634
    3MOL   H518 2402   3.094   6.292   0.512 -0.6049 -1.9073  2.1462
    3MOL   O519 2403   3.630   6.391   0.951 -0.7265  0.0232  0.2627
    3MOL   C520 2404   3.680   6.523   0.934 -0.0831 -1.0351  0.7500
    3MOL   C521 2405   3.822   6.533   0.858  0.0189 -0.7929 -0.1383
    3MOL   C522 2406   3.936   6.472   0.935  0.2722  0.1318 -0.4755
    3MOL   C523 2407   4.047   6.449   0.838  0.2301  0.1952  0.5349
    3MOL   C524 2408   4.181   6.433   0.916  0.9605  0.9156 -0.1888
    3MOL   C525 2409   4.309   6.443   0.833 -0.0954  0.1467 -0.1655
    3MOL   C526 2410   4.436   6.410   0.910  0.1259 -0.0649  1.0188
    3MOL   C527 2411   4.555   6.392   0.816 -0.0730  0.2073 -0.2182
    3MOL   C528 2412   4.687   6.419   0.886 -0.0925  0.2568 -0.9649
    3MOL   C529 2413   4.715   6.323   0.992  0.2067 -0.0553 -0.0958
    3MOL   O530 2414   4.711   6.189   0.963  0.4373 -0.4920  0.3704
    3MOL   C531 2415   4.821   6.133   0.900 -0.1320 -0.0906 -0.5055
    3MOL   O532 2416   4.924   6.202   0.876 -0.7280  0.1309 -0.2857
    3MOL   C533 2417   4.801   5.998   0.844  0.3305 -0.1650  0.9145
    3MOL   C534 2418   4.914   5.921   0.812  0.2357  0.1437  0.6163
    3MOL   C535 2419   4.903   5.792   0.763  0.3664 -0.3851  0.4722
    3MOL   C536 2420   4.775   5.731   0.741 -0.0152  0.0628 -1.1421
    3MOL   C537 2421   4.758   5.598   0.685  0.1514 -0.0294  0.5486
    3MOL   O538 2422   4.850   5.533   0.632 -0.1530 -0.5930 -0.0353
    3MOL   O539 2423   4.635   5.554   0.697  0.9814  0.5800  0.1316
    3MOL   C540 2424   4.662   5.811   0.787 -0.0816 -0.2103 -0.1276
    3MOL   C541 2425   4.675   5.945   0.826 -0.0454 -0.1690  0.2696
    3MOL   H542 2426   3.595   6.578   0.892 -0.4669 -1.0284  1.5261
    3MOL   H543 2427   3.701   6.566   1.032  0.1359 -0.4548  0.4519
    3MOL   H544 2428   3.834   6.639   0.835  0.3801 -0.7574  0.2106
    3MOL   H545 2429   3.808   6.491   0.759 -3.0720 -0.0779 -0.0575
    3MOL   H546 2430   3.958   6.548   1.009 -0.5298  1.3287 -1.4479
    3MOL   H547 2431   3.915   6.378   0.987 -0.1127  0.8929  0.7637
    3MOL   H548 2432   4.046   6.535   0.772 -0.6210 -1.3520 -1.5176
    3MOL   H549 2433   4.026   6.363   0.774 -0.0970  0.3354  0.4595
    3MOL   H550 2434   4.182   6.505   0.997  2.0113  1.6102 -0.8106
    3MOL   H551 2435   4.174   6.337   0.968 -0.5496  2.1425  1.9521
    3MOL   H552 2436   4.295   6.372   0.751 -0.4256 -0.2353  0.2170
    3MOL   H553 2437   4.323   6.542   0.791  0.6427  0.3757  0.6015
    3MOL   H554 2438   4.450   6.491   0.983  0.1928  0.1995  0.7134
    3MOL   H555 2439   4.429   6.312   0.957 -0.3116 -1.4889 -1.9106
    3MOL   H556 2440   4.556   6.292   0.773 -1.7184  0.0585  0.0657
    3MOL   H557 2441   4.533   6.453   0.728  0.7567 -1.1562 -1.3818
    3MOL   H558 2442   4.692   6.521   0.922 -0.3958  0.2104 -0.7868
    3MOL   H559 2443   4.768   6.418   0.814  2.5973  0.5239  1.9199
    3MOL   H560 2444   4.643   6.339   1.072  2.2281 -0.6525  1.8901
    3MOL   H561 2445   4.808   6.345   1.044 -0.7208  1.1561  1.0832
    3MOL   H562 2446   5.014   5.949   0.842  0.2227  2.9461 -1.6660
    3MOL   H563 2447   4.992   5.734   0.744  0.4591  0.9134 -3.3335
    3MOL   H564 2448   4.567   5.762   0.781  1.2800 -2.7467 -1.6134
    3MOL   H565 2449   4.582   5.994   0.851 -0.2685  0.3946 -1.6074
    3MOL   O566 2450   4.605   5.407   0.678 -0.1559  0.7318  0.0556
    3MOL   C567 2451   4.555   5.386   0.547  0.2789  0.5954 -0.1664
    3MOL   C568 2452   4.500   5.238   0.551  1.1265 -0.5804 -0.3762
    3MOL   C569 2453   4.411   5.194   0.671 -0.2491 -0.0958 -0.3955
    3MOL   C570 2454   4.374   5.042   0.663 -0.6263  0.2026 -0.5891
    3MOL   C571 2455   4.286   5.000   0.778 -0.6609  0.4180 -0.2264
    3MOL   C572 2456   4.211   4.864   0.758 -0.6971  0.0596 -0.5213
    3MOL   C573 2457   4.133   4.818   0.881  0.0099  1.3118 -0.3379
    3MOL   C574 2458   4.227   4.777   0.993  0.3309 -0.2580  0.1276
    3MOL   C575 2459   4.150   4.737   1.121 -0.7951 -0.1033  0.1117
    3MOL   C576 2460   4.243   4.688   1.237 -0.0419 -0.1077  0.8759
    3MOL   O577 2461   4.322   4.793   1.282 -1.0507 -0.0864 -0.0716
    3MOL   C578 2462   4.450   4.811   1.244  0.5984  0.0538 -0.1369
    3MOL   O579 2463   4.499   4.752   1.146  0.0769  0.1243  0.1047
    3MOL   C580 2464   4.533   4.905   1.315 -0.1834 -0.3218  0.5430
    3MOL   C581 2465   4.472   4.984   1.417  0.3255 -0.3874  0.1294
    3MOL   C582 2466   4.548   5.063   1.503 -0.1480  0.1200  0.6220
    3MOL   C583 2467   4.691   5.058   1.500  0.7330 -0.7068  0.6070
    3MOL   C584 2468   4.775   5.138   1.590 -0.2213 -0.4717 -0.2448
    3MOL   O585 2469   4.743   5.190   1.693  0.3895 -0.7569 -0.1855
    3MOL   O586 2470   4.905   5.143   1.546  0.2495  0.4097 -0.0402
    3MOL   C587 2471   4.747   4.996   1.384  0.2456 -0.5273  0.0812
    3MOL   C588 2472   4.670   4.919   1.295  0.2050  1.1276  0.2899
    3MOL   H589 2473   4.478   5.458   0.522  1.2183  1.1377 -1.5498
    3MOL   H590 2474   4.636   5.397   0.475  0.2501  1.8296 -0.0197
    3MOL   H591 2475   4.572   5.158   0.563  0.2746 -1.0723  1.5664
    3MOL   H592 2476   4.448   5.220   0.456  0.1996 -1.9648  0.3893
    3MOL   H593 2477   4.471   5.218   0.759 -2.4838  1.5533  0.7381
    3MOL   H594 2478   4.322   5.256   0.681  0.7509  1.1550  1.0769
    3MOL   H595 2479   4.469   4.991   0.679 -0.2047  0.6703 -1.5260
    3MOL   H596 2480   4.339   5.016   0.563 -1.2815  2.1245 -0.8833
    3MOL   H597 2481   4.355   4.996   0.863 -0.2046 -1.6341 -0.6557
    3MOL   H598 2482   4.218   5.084   0.794  2.2434  2.5466  1.5771
    3MOL   H599 2483   4.151   4.871   0.667  0.0874 -0.3715 -1.0784
    3MOL   H600 2484   4.287   4.789   0.734  0.4219  0.8773  0.4096
    3MOL   H601 2485   4.070   4.900   0.916  0.8193  2.6080 -1.8386
    3MOL   H602 2486   4.071   4.733   0.855  0.9932  0.7452 -0.8541
    3MOL   H603 2487   4.285   4.691   0.957 -0.5035 -1.2511  1.1008
    3MOL   H604 2488   4.288   4.863   1.017  1.1795 -1.0164  0.7358
    3MOL   H605 2489   4.077   4.658   1.104 -0.2868 -0.9177  1.6109
    3MOL   H606 2490   4.086   4.812   1.167 -0.4073  0.4417 -0.2270
    3MOL   H607 2491   4.297   4.601   1.200 -0.4805  0.3927 -0.9613
    3MOL   H608 2492   4.183   4.657   1.323 -2.6443 -2.5006 -1.6571
    3MOL   H609 2493   4.366   4.980   1.437  0.6985 -1.1281  2.1663
    3MOL   H610 2494   4.499   5.115   1.584  1.3371 -0.4283  1.8987
    3MOL   H611 2495   4.849   5.015   1.356 -0.4179  0.1444 -1.9658
    3MOL   H612 2496   4.714   4.864   1.213  1.3690  2.0172  0.3174
    3MOL   O613 2497   4.999   5.239   1.625 -0.6199  0.5278 -0.5534
    3MOL   C614 2498   4.999   5.362   1.555  0.0644 -0.6338 -0.2675
    3MOL   C615 2499   5.043   5.335   1.416 -0.2638  0.8195  0.2903
    3MOL   C616 2500   5.174   5.265   1.389 -0.0066 -0.6394 -0.2358
    3MOL   C617 2501   5.200   5.241   1.237  0.6564  0.9270  0.1475
    3MOL   C618 2502   5.339   5.185   1.203 -0.5546  0.4642 -0.4257
    3MOL   C619 2503   5.353   5.150   1.058 -0.4272  0.1738 -0.9574
    3MOL   C620 2504   5.503   5.134   1.022  0.3630  0.0130  0.3283
    3MOL   C621 2505   5.514   5.094   0.875 -0.2222  0.4298 -0.1001
    3MOL   C622 2506   5.477   4.949   0.847 -0.6369 -0.2007  0.1100
    3MOL   C623 2507   5.421   4.925   0.709 -0.2356  0.5067  0.8545
    3MOL   O624 2508   5.525   4.933   0.609  0.2043 -0.2598  0.2046
    3MOL   C625 2509   5.499   4.941   0.484  0.3572  0.0821 -0.0885
    3MOL   O626 2510   5.385   4.965   0.436 -0.8000  0.3652 -0.0420
    3MOL   C627 2511   5.621   4.920   0.395  0.4866  0.0428  0.3793
    3MOL   C628 2512   5.749   4.921   0.450 -0.2390  0.0958 -0.1996
    3MOL   C629 2513   5.866   4.906   0.370  0.4680  0.2391 -0.4801
    3MOL   C630 2514   5.857   4.875   0.235  0.4458 -0.6900  0.2681
    3MOL   C631 2515   5.971   4.846   0.145 -0.2583  0.3363  0.7727
    3MOL   O632 2516   5.962   4.852   0.023  0.3428  0.6758  0.0458
    3MOL   O633 2517   6.078   4.815   0.212  0.5526  0.1562  0.1922
    3MOL   C634 2518   5.724   4.881   0.175  0.3774  0.5272  0.6637
    3MOL   C635 2519   5.605   4.900   0.252  0.6556  0.7340  0.7863
    3MOL   H636 2520   4.906   5.416   1.575 -0.1069 -0.9600 -0.1736
    3MOL   H637 2521   5.078   5.418   1.605 -1.3632  1.1079  0.1028
    3MOL   H638 2522   5.036   5.433   1.371 -1.5289 -0.0745 -1.5165
    3MOL   H639 2523   4.972   5.275   1.358  0.7875 -1.3485  1.1730
    3MOL   H640 2524   5.251   5.332   1.426 -1.6179 -0.0487  2.1520
    3MOL   H641 2525   5.183   5.163   1.428  1.2444 -0.0556  1.0132
    3MOL   H642 2526   5.170   5.331   1.183  2.5921  1.2061 -0.4926
    3MOL   H643 2527   5.129   5.166   1.201 -0.8836  1.1833  2.5589
    3MOL   H644 2528   5.408   5.258   1.244 -0.5116  0.1409  0.0806
    3MOL   H645 2529   5.346   5.089   1.255  0.1566  0.8626  0.2188
    3MOL   H646 2530   5.296   5.064   1.024 -0.2201 -0.1714 -0.4367
    3MOL   H647 2531   5.304   5.223   0.993 -2.5986 -0.2732  0.1771
    3MOL   H648 2532   5.547   5.231   1.046  0.4406 -0.1823  0.9828
    3MOL   H649 2533   5.556   5.073   1.094 -0.2234 -1.3558 -0.3770
    3MOL   H650 2534   5.453   5.164   0.818  0.9744  1.5188 -0.0739
    3MOL   H651 2535   5.615   5.111   0.838 -0.0892  0.5442  0.3099
    3MOL   H652 2536   5.426   4.887   0.920  2.9624  0.0179  2.9474
    3MOL   H653 2537   5.576   4.904   0.850 -0.4365  0.3023  1.7528
    3MOL   H654 2538   5.329   4.976   0.680 -0.5170 -0.6950 -0.4146
    3MOL   H655 2539   5.382   4.823   0.704 -0.7667  0.8176 -2.7602
    3MOL   H656 2540   5.764   4.946   0.554 -0.1165 -1.8614  0.2731
    3MOL   H657 2541   5.962   4.933   0.412 -1.0115  1.5400  2.1489
    3MOL   H658 2542   5.718   4.862   0.068  0.6698  0.2585  0.6958
    3MOL   H659 2543   5.506   4.906   0.210  1.5666 -0.3722 -1.6009
    3MOL   O660 2544   6.203   4.807   0.133  0.0691  0.0049 -0.6065
    3MOL   C661 2545   6.274   4.933   0.142  0.2479 -0.4083 -0.7260
    3MOL   C662 2546   6.386   4.943   0.044  0.3953 -0.6462 -0.8772
    3MOL   C663 2547   6.346   4.943   7.874 -0.1437  0.4266  0.3059
    3MOL   C664 2548   6.293   4.817   7.814  0.1766 -0.3404 -0.5382
    3MOL   C665 2549   6.282   4.837   7.659 -0.1798  0.0803 -0.3270
    3MOL   C666 2550   6.229   4.711   7.590 -0.1821  0.3926  0.5348
    3MOL   C667 2551   6.245   4.703   7.438  0.3728 -0.0253 -0.6842
    3MOL   C668 2552   6.291   4.567   7.387 -1.1009 -0.2800  0.0881
    3MOL   C669 2553   6.179   4.476   7.364  0.1638 -0.2091 -0.5868
    3MOL   C670 2554   6.209   4.344   7.291 -0.7333  0.3320 -0.4630
    3MOL   O671 2555   6.090   4.271   7.277 -0.1722 -0.5119 -0.0270
    3MOL   C672 2556   6.089   4.168   7.194 -0.4361  0.1718  0.7707
    3MOL   O673 2557   6.192   4.127   7.134 -0.2315 -0.7162  0.4776
    3MOL   C674 2558   5.948   4.123   7.163 -0.4018  0.0268  0.6369
    3MOL   C675 2559   5.839   4.149   7.252 -0.4561 -0.2395  0.3443
    3MOL   C676 2560   5.714   4.085   7.229 -0.4426  0.6974  0.1290
    3MOL   C677 2561   5.698   4.003   7.113  0.7270 -0.5017 -0.4817
    3MOL   C678 2562   5.566   3.941   7.096 -0.1506 -0.5088 -0.8775
    3MOL   O679 2563   5.478   3.928   7.186 -1.0165 -0.0730 -0.4621
    3MOL   O680 2564   5.552   3.885   6.976 -0.3078 -0.3198  0.0815
    3MOL   C681 2565   5.806   3.979   7.029  0.2408  0.2443  0.0924
    3MOL   C682 2566   5.931   4.038   7.053  0.8925  0.0399 -0.3171
    3MOL   H683 2567   6.198   5.009   0.124  0.6128  0.4121  1.1142
    3MOL   H684 2568   6.306   4.941   0.246  1.7989  0.2902 -1.2454
    3MOL   H685 2569   6.465   4.869   0.059  0.6305  0.0708  1.6549
    3MOL   H686 2570   6.428   5.042   0.058  2.3082 -1.5784  0.2574
    3MOL   H687 2571   6.272   5.022   7.861 -0.4348  0.5012  2.2237
    3MOL   H688 2572   6.432   4.972   7.813 -0.8292  0.5868 -0.5903
    3MOL   H689 2573   6.194   4.804   7.858 -0.1170 -0.1437 -1.1442
    3MOL   H690 2574   6.351   4.729   7.843  1.9234  1.0049  0.1230
    3MOL   H691 2575   6.224   4.924   7.631  0.4616  0.7519  0.3900
    3MOL   H692 2576   6.386   4.841   7.626 -0.1207 -0.3289 -0.1908
    3MOL   H693 2577   6.283   4.621   7.621 -0.1621 -0.0759 -0.8312
    3MOL   H694 2578   6.130   4.680   7.625  0.0853 -1.3907 -0.1895
    3MOL   H695 2579   6.148   4.737   7.404 -0.4424  1.4244  2.9143
    3MOL   H696 2580   6.311   4.773   7.386 -0.3943  1.4378  0.2700
    3MOL   H697 2581   6.344   4.579   7.293 -0.0577  0.5350  0.7758
    3MOL   H698 2582   6.365   4.526   7.456  0.2119  2.1257  0.1527
    3MOL   H699 2583   6.099   4.521   7.305 -0.5299 -2.3761 -1.3638
    3MOL   H700 2584   6.135   4.456   7.462 -3.1238 -0.9130 -2.1205
    3MOL   H701 2585   6.284   4.288   7.346 -1.5024  0.3717  0.6528
    3MOL   H702 2586   6.256   4.370   7.196 -0.6034  0.7451 -0.2877
    3MOL   H703 2587   5.849   4.208   7.342  0.1770 -1.1451  0.8681
    3MOL   H704 2588   5.628   4.097   7.294 -0.4240 -0.6539  0.4070
    3MOL   H705 2589   5.787   3.922   6.939 -0.0255 -0.5629  0.6561
    3MOL   H706 2590   6.016   4.010   6.993  0.1868  1.4068 -1.9929
    3MOL   O707 2591   5.409   3.842   6.943 -0.0639  0.0068  0.2822
    3MOL   C708 2592   5.399   3.713   6.983  0.5694  0.4826 -0.5054
    3MOL   C709 2593   5.289   3.650   6.896  0.0891  0.4931  0.0803
    3MOL   C710 2594   5.285   3.496   6.914 -0.7121 -0.0522  0.0666
    3MOL   C711 2595   5.253   3.453   7.056 -0.3369 -0.7051 -0.4624
    3MOL   C712 2596   5.251   3.296   7.078 -0.5233 -0.3946 -0.2175
    3MOL   C713 2597   5.393   3.244   7.120  1.1065 -0.0451 -0.0737
    3MOL   C714 2598   5.402   3.097   7.100 -0.3717 -0.3131 -0.1975
    3MOL   C715 2599   5.528   3.030   7.160 -0.3329  0.1658 -0.2877
    3MOL   C716 2600   5.584   2.908   7.088 -0.0048 -0.3594 -0.6227
    3MOL   C717 2601   5.719   2.859   7.161  0.2915 -0.1838 -0.0458
    3MOL   O718 2602   5.761   2.726   7.128  0.0996 -0.0400 -0.3456
    3MOL   C719 2603   5.872   2.714   7.058 -0.0222 -0.3211 -0.5475
    3MOL   O720 2604   5.961   2.798   7.055  0.3595 -0.4555  0.2398
    3MOL   C721 2605   5.880   2.580   7.004  0.0318 -0.0123  0.9282
    3MOL   C722 2606   5.784   2.478   7.024  0.1359 -0.5555  0.0502
    3MOL   C723 2607   5.789   2.356   6.960 -0.2682  0.0513 -0.0104
    3MOL   C724 2608   5.895   2.335   6.870  0.1489 -0.1713 -0.2954
    3MOL   C725 2609   5.922   2.202   6.805  0.3509  0.2897 -0.1394
    3MOL   O726 2610   6.030   2.173   6.755 -0.4998  0.0457 -0.4397
    3MOL   O727 2611   5.816   2.114   6.807  0.0807  0.7209 -0.6471
    3MOL   C728 2612   5.989   2.435   6.844 -0.3430 -0.0823 -0.1828
    3MOL   C729 2613   5.983   2.553   6.915 -0.2544  0.3592 -0.2436
    3MOL   H730 2614   5.486   3.654   6.955  0.0199 -1.4020  1.6442
    3MOL   H731 2615   5.386   3.715   7.091  0.8047 -0.8950 -0.4477
    3MOL   H732 2616   5.308   3.684   6.794  0.4858 -0.1767 -0.0674
    3MOL   H733 2617   5.189   3.688   6.918 -1.2240 -1.1426 -2.7893
    3MOL   H734 2618   5.211   3.452   6.848  0.4636  1.6318 -2.4150
    3MOL   H735 2619   5.385   3.457   6.894  0.5769  2.6423  1.0576
    3MOL   H736 2620   5.152   3.488   7.079 -0.4220  0.1359 -2.0350
    3MOL   H737 2621   5.317   3.502   7.130 -0.6621  0.4669 -0.9373
    3MOL   H738 2622   5.186   3.278   7.164 -0.7044  1.2060  0.0064
    3MOL   H739 2623   5.206   3.248   6.991 -0.5445 -0.1861 -0.3211
    3MOL   H740 2624   5.474   3.279   7.057  0.2009  1.4698 -0.4331
    3MOL   H741 2625   5.420   3.276   7.221 -0.0740 -2.7850  1.1522
    3MOL   H742 2626   5.317   3.040   7.138 -1.1102  1.1378  0.3495
    3MOL   H743 2627   5.408   3.088   6.991  3.0872 -1.1611  0.0240
    3MOL   H744 2628   5.612   3.100   7.168  1.2638 -1.1554 -4.2264
    3MOL   H745 2629   5.492   2.998   7.258 -0.0422  0.2480 -0.1544
    3MOL   H746 2630   5.610   2.920   6.983  3.4030 -1.7263 -0.0185
    3MOL   H747 2631   5.505   2.832   7.093  0.6381 -1.0278 -0.4482
    3MOL   H748 2632   5.690   2.845   7.265  1.5220 -2.2237  0.0551
    3MOL   H749 2633   5.790   2.941   7.152 -1.9679  1.9486  0.9066
    3MOL   H750 2634   5.697   2.496   7.086 -0.2862 -1.8663 -0.1351
    3MOL   H751 2635   5.717   2.283   6.994 -0.3244  1.0587  2.1632
    3MOL   H752 2636   6.057   2.422   6.761  0.0812 -0.8469  0.2830
    3MOL   H753 2637   6.050   2.633   6.887  2.4341 -0.8760  2.3561
    3MOL   O754 2638   5.837   1.984   6.731 -0.0172 -0.4875 -0.1300
    3MOL   C755 2639   5.882   1.885   6.823 -0.7847 -0.0791 -0.1390
    3MOL   C756 2640   5.823   1.747   6.780  0.4741  1.0536 -0.0071
    3MOL   C757 2641   5.818   1.639   6.889 -0.1744 -0.0098  0.1561
    3MOL   C758 2642   5.764   1.498   6.850 -0.5274  0.0231 -0.4339
    3MOL   C759 2643   5.787   1.392   6.956  0.4383  0.7070 -0.5472
    3MOL   C760 2644   5.715   1.253   6.931  0.0687  0.1509 -0.1959
    3MOL   C761 2645   5.767   1.150   7.033  0.1989  0.2162  0.0553
    3MOL   C762 2646   5.725   1.007   6.995 -0.6577 -0.5317 -0.3544
    3MOL   C763 2647   5.765   0.913   7.110  0.5579 -0.4085 -0.1297
    3MOL   C764 2648   5.707   0.773   7.088 -0.6514 -0.0561  0.1025
    3MOL   O765 2649   5.740   0.702   7.206 -0.6426 -0.0871 -0.5748
    3MOL   C766 2650   5.719   0.568   7.221 -0.1324  0.0793  0.1620
    3MOL   O767 2651   5.673   0.501   7.126  0.4457 -0.5695  0.2732
    3MOL   C768 2652   5.772   0.514   7.349  0.6403  0.3100  0.2090
    3MOL   C769 2653   5.732   0.383   7.395 -0.0363 -0.5563 -0.1742
    3MOL   C770 2654   5.772   0.347   7.526 -0.1758  0.3509  0.1931
    3MOL   C771 2655   5.853   0.425   7.606  0.3272 -0.1166 -0.0822
    3MOL   C772 2656   5.882   0.389   7.745  0.4145  0.6244 -0.1332
    3MOL   O773 2657   5.951   0.449   7.826  0.2378 -0.4064 -0.8245
    3MOL   O774 2658   5.829   0.270   7.774  0.3403 -0.2908 -0.4178
    3MOL   C775 2659   5.881   0.552   7.563 -0.6012  0.7267 -0.4308
    3MOL   C776 2660   5.848   0.594   7.430 -0.0715 -0.1607 -0.0099
    3MOL   H777 2661   5.989   1.895   6.839 -0.4053 -4.1057  0.1554
    3MOL   H778 2662   5.832   1.898   6.919 -1.6206  0.1014 -0.5906
    3MOL   H779 2663   5.889   1.721   6.697  0.4805 -2.1050  0.9184
    3MOL   H780 2664   5.721   1.768   6.748  0.1322 -0.9374 -0.3062
    3MOL   H781 2665   5.918   1.627   6.930  0.0228 -0.7592 -0.5172
    3MOL   H782 2666   5.767   1.674   6.978 -1.0319 -2.5399  0.7181
    3MOL   H783 2667   5.813   1.465   6.758 -0.0771 -0.0393 -0.1761
    3MOL   H784 2668   5.658   1.518   6.836 -0.3832  1.3582  0.3470
    3MOL   H785 2669   5.894   1.375   6.945 -0.0051 -1.8803 -1.1880
    3MOL   H786 2670   5.753   1.449   7.043 -2.0657  1.0441 -1.7239
    3MOL   H787 2671   5.609   1.272   6.942  0.1963  0.1231  1.1276
    3MOL   H788 2672   5.742   1.227   6.829  0.1410 -1.4028  0.1978
    3MOL   H789 2673   5.875   1.162   7.036  0.0403  1.6864  0.4005
    3MOL   H790 2674   5.725   1.182   7.128  0.2177  0.2921  0.0381
    3MOL   H791 2675   5.622   0.998   6.961 -0.0934 -0.0986 -2.2795
    3MOL   H792 2676   5.780   0.969   6.908  1.2285  0.3621  0.4220
    3MOL   H793 2677   5.706   0.955   7.191  2.0766  2.0138 -0.2287
    3MOL   H794 2678   5.874   0.914   7.122  0.4766  0.8064  0.5535
    3MOL   H795 2679   5.751   0.742   6.994  0.0921  0.4814  0.2726
    3MOL   H796 2680   5.600   0.766   7.068 -0.3707 -2.7812 -0.5580
    3MOL   H797 2681   5.684   0.309   7.333  0.3063  1.2916 -2.7205
    3MOL   H798 2682   5.732   0.254   7.562 -0.8065  0.7739  0.6026
    3MOL   H799 2683   5.955   0.615   7.609  0.0958  0.0305 -0.5847
    3MOL   H800 2684   5.873   0.692   7.392  2.5276 -2.3932 -4.5133
    3MOL   O801 2685   5.897   0.205   7.893 -0.1036 -1.0807  0.0552
    3MOL   C802 2686   5.821   0.216   0.033  0.2275 -0.4287  0.6252
    3MOL   C803 2687   5.899   0.183   0.155  0.5757 -0.2720 -0.0896
    3MOL   C804 2688   6.001   0.296   0.177  0.2916 -0.6631 -1.0890
    3MOL   C805 2689   6.066   0.273   0.312  0.4298  0.6991  0.2056
    3MOL   C806 2690   6.157   0.389   0.363 -0.7022  0.2479 -0.1474
    3MOL   C807 2691   6.197   0.380   0.508  0.9626  0.3766  0.1601
    3MOL   C808 2692   6.328   0.457   0.548 -0.0710 -0.6495  0.5730
    3MOL   C809 2693   6.334   0.605   0.514 -0.2750 -0.8446 -0.1771
    3MOL   C810 2694   6.240   0.687   0.595  0.3181  0.0492  0.3421
    3MOL   C811 2695   6.245   0.829   0.561  0.1423 -0.0024  0.0192
    3MOL   O812 2696   6.184   0.853   0.436 -0.0096  0.6325 -0.1945
    3MOL   C813 2697   6.189   0.974   0.388 -0.0148  0.1993  0.1415
    3MOL   O814 2698   6.242   1.069   0.444 -0.2108  0.0227 -1.0727
    3MOL   C815 2699   6.128   0.989   0.257  0.2951 -0.9349 -0.0522
    3MOL   C816 2700   6.120   1.120   0.209  0.1340 -0.2676  0.0693
    3MOL   C817 2701   6.074   1.137   0.076 -0.1352  0.2988 -0.7445
    3MOL   C818 2702   6.030   1.032   7.978  0.1085 -0.2003 -0.4249
    3MOL   C819 2703   5.972   1.054   7.848 -0.0180  0.3432 -0.2255
    3MOL   O820 2704   5.925   1.162   7.818  0.0681 -0.0140 -0.9071
    3MOL   O821 2705   5.962   0.945   7.771  0.2205 -0.2161  0.0670
    3MOL   C822 2706   6.057   0.907   0.043 -1.0014  0.0942 -0.0242
    3MOL   C823 2707   6.100   0.880   0.175  1.0963  0.1500  0.6508
    3MOL   H824 2708   5.775   0.314   0.040 -1.2174 -1.0540  0.0967
    3MOL   H825 2709   5.741   0.147   0.005  0.2336 -0.1123 -0.1627
    3MOL   H826 2710   5.956   0.091   0.144 -0.1141 -0.8838  1.3357
    3MOL   H827 2711   5.823   0.180   0.233  0.9500  0.4639  0.3147
    3MOL   H828 2712   6.077   0.299   0.099 -0.6736 -1.3694 -2.0716
    3MOL   H829 2713   5.952   0.393   0.186  1.9611  0.1149 -0.1257
    3MOL   H830 2714   6.118   0.178   0.303 -0.8506  0.0224  0.0103
    3MOL   H831 2715   5.982   0.248   0.376 -0.6258 -0.7953 -1.7525
    3MOL   H832 2716   6.248   0.389   0.303 -0.3696  0.8382  0.3508
    3MOL   H833 2717   6.108   0.486   0.353 -2.5672 -0.9047 -2.8969
    3MOL   H834 2718   6.113   0.425   0.563 -0.9476 -0.2767 -2.1313
    3MOL   H835 2719   6.209   0.277   0.543 -2.7949 -0.1671  0.1245
    3MOL   H836 2720   6.356   0.438   0.651  0.5277  1.6218  0.8448
    3MOL   H837 2721   6.401   0.410   0.482 -0.6536 -0.8402  0.0486
    3MOL   H838 2722   6.433   0.651   0.518  0.2268 -1.9102  0.1108
    3MOL   H839 2723   6.304   0.624   0.412 -2.1404 -0.5999  0.3960
    3MOL   H840 2724   6.282   0.680   0.695  2.2652  0.2696 -0.4502
    3MOL   H841 2725   6.136   0.656   0.581 -0.1891  1.9178 -0.1322
    3MOL   H842 2726   6.348   0.865   0.556 -0.6623  2.4735  0.2913
    3MOL   H843 2727   6.212   0.888   0.646  1.4515  2.2035 -0.9412
    3MOL   H844 2728   6.143   1.207   0.269 -1.9538 -0.0316  0.5722
    3MOL   H845 2729   6.061   1.237   0.037 -1.0052  1.2787  1.9201
    3MOL   H846 2730   6.030   0.827   7.955  3.5582 -1.4305 -0.1977
    3MOL   H847 2731   6.103   0.778   0.210 -2.1861 -0.1994  0.0598
    3MOL   O848 2732   5.892   0.967   7.643  0.3506  0.6565  0.3882
    3MOL   C849 2733   5.759   0.909   7.647  0.1893  0.0352 -0.4234
    3MOL   C850 2734   5.686   0.911   7.512  0.0928  0.7007  0.0750
    3MOL   C851 2735   5.584   1.029   7.506 -0.0812 -0.0588  0.1885
    3MOL   C852 2736   5.658   1.168   7.479  0.3608 -0.9676  0.0215
    3MOL   C853 2737   5.556   1.275   7.432  0.7964 -0.8321  0.5719
    3MOL   C854 2738   5.622   1.410   7.398 -0.0996  0.2222 -0.2663
    3MOL   C855 2739   5.540   1.488   7.295 -0.2990  0.0225  0.2208
    3MOL   C856 2740   5.603   1.623   7.270 -0.3138 -0.1830 -0.4779
    3MOL   C857 2741   5.532   1.696   7.149  0.8122  0.4344 -0.4503
    3MOL   C858 2742   5.572   1.840   7.144 -0.0925  0.2041 -0.1064
    3MOL   O859 2743   5.504   1.909   7.041 -0.4124 -0.4151  0.1481
    3MOL   C860 2744   5.492   2.055   7.052  0.0190  0.4205  0.3101
    3MOL   O861 2745   5.525   2.120   7.148  0.3840  0.2692 -0.4945
    3MOL   C862 2746   5.427   2.111   6.940  0.3205  0.1014  0.3593
    3MOL   C863 2747   5.443   2.050   6.812 -0.1597 -0.7144 -0.6492
    3MOL   C864 2748   5.382   2.107   6.701 -0.0398  0.5642 -0.0255
    3MOL   C865 2749   5.294   2.221   6.719  0.8626 -0.1398  0.0888
    3MOL   C866 2750   5.200   2.266   6.606 -0.3528  0.2128 -0.1953
    3MOL   O867 2751   5.183   2.192   6.509 -0.6980  0.1367  0.7048
    3MOL   O868 2752   5.141   2.382   6.622  0.3214 -0.6495  0.2334
    3MOL   C869 2753   5.292   2.290   6.843 -0.3264 -0.8951 -0.3345
    3MOL   C870 2754   5.353   2.231   6.951 -0.4405 -0.0780 -0.5069
    3MOL   H871 2755   5.755   0.810   7.692  1.9974  0.4975  0.8302
    3MOL   H872 2756   5.705   0.968   7.721  1.5416  0.0863  0.5644
    3MOL   H873 2757   5.615   0.831   7.494  0.7129  0.2126 -0.2162
    3MOL   H874 2758   5.761   0.916   7.433  0.7917  1.5524  0.7782
    3MOL   H875 2759   5.516   1.026   7.421  0.2562  0.5225 -0.1033
    3MOL   H876 2760   5.524   1.038   7.596  0.0901 -3.0829  0.6528
    3MOL   H877 2761   5.729   1.148   7.399  1.9472 -0.1815  1.2044
    3MOL   H878 2762   5.724   1.206   7.558  1.4007  2.2248 -2.2961
    3MOL   H879 2763   5.525   1.244   7.333  1.1465 -1.3213  0.6156
    3MOL   H880 2764   5.472   1.267   7.500 -0.1164  0.6174 -0.3577
    3MOL   H881 2765   5.628   1.460   7.495  2.4317 -2.0967  0.8248
    3MOL   H882 2766   5.728   1.408   7.375  0.7465 -0.4908  3.3589
    3MOL   H883 2767   5.544   1.429   7.203 -1.6837 -2.2032  1.5502
    3MOL   H884 2768   5.437   1.498   7.328 -0.2431 -1.3991  0.8759
    3MOL   H885 2769   5.584   1.688   7.355  0.5619  1.0462 -1.2144
    3MOL   H886 2770   5.711   1.616   7.252 -0.1509  1.6176 -0.2435
    3MOL   H887 2771   5.424   1.689   7.155  0.6865  0.7172 -2.1607
    3MOL   H888 2772   5.554   1.641   7.057 -1.0165  0.0718 -0.6907
    3MOL   H889 2773   5.678   1.852   7.123 -0.3055 -2.3441 -3.0528
    3MOL   H890 2774   5.548   1.883   7.242 -2.4101 -2.1142  0.4087
    3MOL   H891 2775   5.493   1.957   6.790 -1.6769 -1.3946 -1.2700
    3MOL   H892 2776   5.389   2.067   6.601  0.9618 -1.3205  0.7808
    3MOL   H893 2777   5.229   2.376   6.860  0.7588 -0.4531  1.6015
    3MOL   H894 2778   5.329   2.268   7.049 -1.8241  1.7618 -1.5128
    3MOL   O895 2779   5.052   2.427   6.509 -0.1193 -0.9008 -0.0065
    3MOL   C896 2780   4.917   2.415   6.542 -0.4126 -0.4212  0.2392
    3MOL   C897 2781   4.884   2.508   6.657 -0.0956 -0.3300 -0.5155
    3MOL   C898 2782   4.741   2.559   6.671 -0.5711  0.1572  0.2948
    3MOL   C899 2783   4.651   2.445   6.723  0.1344 -0.7901  0.5180
    3MOL   C900 2784   4.501   2.476   6.722 -0.5621 -0.2411  0.2014
    3MOL   C901 2785   4.414   2.355   6.762 -0.1444 -0.3357  0.2804
    3MOL   C902 2786   4.418   2.323   6.907 -0.2905  0.4396 -0.0039
    3MOL   C903 2787   4.436   2.443   7.003 -0.8419  0.0019 -0.1721
    3MOL   C904 2788   4.450   2.403   7.151 -0.1258  0.4672 -0.5317
    3MOL   C905 2789   4.321   2.332   7.206  0.2507  0.1530 -0.8143
    3MOL   O906 2790   4.343   2.314   7.341 -1.0034 -0.2771 -0.8509
    3MOL   C907 2791   4.250   2.243   7.402 -1.2791  0.2165 -0.3685
    3MOL   O908 2792   4.158   2.183   7.349 -0.6074 -0.1732  0.3510
    3MOL   C909 2793   4.266   2.250   7.550  1.0934 -0.8871  0.2051
    3MOL   C910 2794   4.350   2.347   7.610  0.4880 -0.6171  0.3627
    3MOL   C911 2795   4.368   2.348   7.751 -0.1403 -0.0310  0.3277
    3MOL   C912 2796   4.310   2.251   7.834  0.1831 -0.3423  0.2678
    3MOL   C913 2797   4.341   2.259   0.002  0.3794  0.2192 -0.2425
    3MOL   O914 2798   4.415   2.345   0.048  0.0252 -0.0676 -0.4451
    3MOL   O915 2799   4.269   2.175   0.080  0.2459  0.3991  0.2997
    3MOL   C916 2800   4.227   2.159   7.778 -0.8600  0.3001 -0.5282
    3MOL   C917 2801   4.203   2.155   7.637 -0.0993 -0.2427 -0.4488
    3MOL   H918 2802   4.864   2.438   6.449  1.8809 -0.4642 -1.1198
    3MOL   H919 2803   4.895   2.310   6.559 -0.1920 -0.8904 -2.1091
    3MOL   H920 2804   4.941   2.597   6.629 -1.9637  0.5296 -1.7100
    3MOL   H921 2805   4.940   2.482   6.747 -1.5821  0.8863  0.8047
    3MOL   H922 2806   4.731   2.649   6.731 -0.7454  0.9706 -0.9327
    3MOL   H923 2807   4.706   2.587   6.571  2.0195 -0.4024 -0.8057
    3MOL   H924 2808   4.690   2.424   6.823  0.8745 -1.6090  0.0732
    3MOL   H925 2809   4.664   2.354   6.665  1.1983 -1.0600  1.1583
    3MOL   H926 2810   4.478   2.562   6.786  2.8672  1.0561 -0.1798
    3MOL   H927 2811   4.470   2.506   6.622  0.8005  0.8939  0.0891
    3MOL   H928 2812   4.311   2.368   6.728 -0.2344  2.0831  1.4026
    3MOL   H929 2813   4.444   2.263   6.713  0.9820  1.3567 -2.3377
    3MOL   H930 2814   4.326   2.271   6.935 -1.0948  1.1827 -1.2553
    3MOL   H931 2815   4.499   2.253   6.931 -0.0695  0.0467 -1.8451
    3MOL   H932 2816   4.516   2.510   6.972 -0.9579  0.3146  0.1990
    3MOL   H933 2817   4.345   2.503   6.992 -2.2622 -1.7655  1.4338
    3MOL   H934 2818   4.461   2.498   7.204  1.3690  0.5421 -0.9386
    3MOL   H935 2819   4.543   2.349   7.170  1.0689  3.1516  1.6254
    3MOL   H936 2820   4.301   2.239   7.152  0.6469 -0.5044  0.1682
    3MOL   H937 2821   4.234   2.396   7.192 -0.8564 -1.0247  0.5533
    3MOL   H938 2822   4.397   2.423   7.550 -0.5413 -0.4337 -0.2331
    3MOL   H939 2823   4.433   2.425   7.791  0.2150 -0.0361 -0.2247
    3MOL   H940 2824   4.192   2.075   7.836  1.1029 -0.9409 -1.0702
    3MOL   H941 2825   4.141   2.076   7.597  0.5952 -2.0164  1.8113
    3MOL   H942 2826   4.310   2.187   0.164  3.2101  4.0462 -1.5195
    4MOL     O1 2827   7.118   3.819   3.548 -0.0153  0.4534 -0.6746
    4MOL     C2 2828   7.172   3.866   3.677  0.5849 -0.8947  0.5000
    4MOL     C3 2829   7.060   3.944   3.745 -0.2837 -0.5187  0.1070
    4MOL     C4 2830   7.100   3.998   3.879  0.6311 -0.0965 -0.2934
    4MOL     C5 2831   6.995   4.093   3.925  0.1030  0.3347  0.0133
    4MOL     C6 2832   7.013   4.143   4.072 -0.4723 -0.0267  0.3913
    4MOL     C7 2833   6.898   4.228   4.121  0.1930 -0.0689  0.4933
    4MOL     C8 2834   6.901   4.284   4.263  0.6413  0.8144  0.2466
    4MOL     C9 2835   6.776   4.381   4.286  0.0030 -0.0539  0.1635
    4MOL    C10 2836   6.789   4.438   4.431 -0.5377 -0.3671 -0.1790
    4MOL    C11 2837   6.674   4.530   4.466 -0.1153 -0.6490 -0.4111
    4MOL    O12 2838   6.728   4.643   4.544 -0.2907  0.2189 -0.0768
    4MOL    C13 2839   6.681   4.684   4.665  0.5637 -0.0444 -0.5344
    4MOL    O14 2840   6.591   4.623   4.720  0.5343 -0.2713 -0.1391
    4MOL    C15 2841   6.760   4.797   4.716 -0.0250 -0.4105  0.1282
    4MOL    C16 2842   6.744   4.842   4.848 -0.0244  0.6102  0.5690
    4MOL    C17 2843   6.795   4.970   4.885  0.9007  0.3827  0.8379
    4MOL    C18 2844   6.869   5.045   4.792  1.1209 -0.5746 -0.1270
    4MOL    C19 2845   6.927   5.176   4.846 -0.0721  0.1781 -0.9512
    4MOL    O20 2846   6.878   5.230   4.946  0.1197  0.3831  0.2323
    4MOL    O21 2847   7.033   5.224   4.777  0.5999  0.1285  0.4367
    4MOL    C22 2848   6.908   4.994   4.668 -0.7979  1.0745  0.3138
    4MOL    C23 2849   6.847   4.874   4.630 -0.4377 -0.3211 -0.0050
    4MOL    H24 2850   7.219   3.791   3.740 -3.7422 -2.7758  1.6838
    4MOL    H25 2851   7.255   3.932   3.653 -1.3760  1.1023 -1.0253
    4MOL    H26 2852   6.969   3.887   3.761 -0.7204  0.1428 -0.0001
    4MOL    H27 2853   7.031   4.025   3.679 -0.6765  1.1190  2.2336
    4MOL    H28 2854   7.122   3.916   3.947  2.1784  0.0814 -0.5581
    4MOL    H29 2855   7.192   4.056   3.870  0.5357  0.6014  2.7236
    4MOL    H30 2856   6.899   4.041   3.929  1.0083 -1.4727 -1.3120
    4MOL    H31 2857   6.982   4.177   3.856 -0.8485  0.1408 -0.0497
    4MOL    H32 2858   7.032   4.057   4.136 -1.3841 -0.9566 -0.5810
    4MOL    H33 2859   7.103   4.202   4.089  0.4104 -0.8871 -1.1942
    4MOL    H34 2860   6.904   4.311   4.052 -0.4273 -0.1097  0.3836
    4MOL    H35 2861   6.799   4.185   4.105  0.0968  0.6603 -0.9207
    4MOL    H36 2862   6.899   4.198   4.330  1.3309  1.5099  1.1755
    4MOL    H37 2863   6.994   4.324   4.304  0.8106  1.4542 -0.7460
    4MOL    H38 2864   6.771   4.472   4.227 -1.0297  1.1373  2.0345
    4MOL    H39 2865   6.682   4.327   4.276 -2.1121  3.7132 -1.5891
    4MOL    H40 2866   6.879   4.500   4.435 -0.2572 -0.8141  0.5530
    4MOL    H41 2867   6.776   4.364   4.510 -0.6203  0.1565  0.2998
    4MOL    H42 2868   6.595   4.485   4.526 -0.0792  1.7893  1.5452
    4MOL    H43 2869   6.633   4.568   4.373  3.1567  2.7981 -0.5639
    4MOL    H44 2870   6.687   4.789   4.922  0.6383 -0.1717  0.5256
    4MOL    H45 2871   6.787   5.001   4.988  0.8101 -2.5954  1.7818
    4MOL    H46 2872   6.970   5.056   4.605 -0.9296  1.1924  0.3012
    4MOL    H47 2873   6.870   4.828   4.535 -0.6813 -0.2423 -0.1037
    4MOL    H48 2874   7.148   3.882   3.485 -1.5740  1.9137 -0.0045
    4MOL    O49 2875   7.091   5.357   4.817 -0.5429  0.1284 -0.3554
    4MOL    C50 2876   7.005   5.457   4.764 -0.1873 -0.3963  0.1900
    4MOL    C51 2877   7.036   5.470   4.622 -0.1134  0.3580  0.2892
    4MOL    C52 2878   6.919   5.487   4.520  0.3063  0.6880 -0.4518
    4MOL    C53 2879   6.839   5.358   4.494  0.1066  0.7442  0.3781
    4MOL    C54 2880   6.911   5.261   4.399 -0.3684 -0.2588  0.0640
    4MOL    C55 2881   6.815   5.175   4.309  0.3273  0.0553  0.2153
    4MOL    C56 2882   6.731   5.071   4.385 -0.5224 -0.0519  0.0519
    4MOL    C57 2883   6.621   5.008   4.295  0.4120  0.0091  0.6059
    4MOL    C58 2884   6.539   4.897   4.365  0.0548 -0.3447  0.2963
    4MOL    C59 2885   6.438   4.938   4.471  0.0334  1.2766  0.8151
    4MOL    O60 2886   6.372   4.833   4.539  0.5651  0.8405  0.1819
    4MOL    C61 2887   6.242   4.799   4.503  0.1695  0.2425  0.0098
    4MOL    O62 2888   6.181   4.841   4.403  0.6171  0.9504  0.4387
    4MOL    C63 2889   6.191   4.693   4.592 -0.7792  0.4745 -0.4399
    4MOL    C64 2890   6.090   4.605   4.556  0.1262 -0.4212 -0.0948
    4MOL    C65 2891   6.056   4.490   4.635  0.0691 -0.3131 -0.1946
    4MOL    C66 2892   6.121   4.472   4.762  0.3286 -0.9108 -0.1947
    4MOL    C67 2893   6.081   4.367   4.851  0.0104  0.0377  0.9743
    4MOL    O68 2894   6.145   4.337   4.957 -0.1798 -0.3439 -0.2981
    4MOL    O69 2895   5.959   4.320   4.812 -0.0440 -0.2848  0.4245
    4MOL    C70 2896   6.217   4.571   4.807 -0.0520  0.1427 -0.0556
    4MOL    C71 2897   6.255   4.678   4.722 -0.0339  0.2528 -0.2533
    4MOL    H72 2898   6.898   5.440   4.778 -0.8655  1.8732 -1.7964
    4MOL    H73 2899   7.026   5.546   4.822  0.2566 -0.2502 -0.1857
    4MOL    H74 2900   7.093   5.383   4.588  0.3195  0.4123  0.8620
    4MOL    H75 2901   7.105   5.554   4.622  1.5743 -0.9770 -0.1625
    4MOL    H76 2902   6.854   5.568   4.554  1.2403  2.1426 -2.0517
    4MOL    H77 2903   6.961   5.523   4.426 -1.6292  0.3333 -1.4870
    4MOL    H78 2904   6.751   5.397   4.443  0.6824  0.9372 -0.4822
    4MOL    H79 2905   6.815   5.321   4.594 -0.2936 -0.5048 -0.1757
    4MOL    H80 2906   6.966   5.322   4.327 -1.8300  1.4169  0.3266
    4MOL    H81 2907   6.981   5.199   4.455 -1.3671 -1.9878 -0.5528
    4MOL    H82 2908   6.749   5.254   4.274  1.3220  1.1653  0.7900
    4MOL    H83 2909   6.867   5.128   4.226 -2.7215 -2.1908 -0.5024
    4MOL    H84 2910   6.812   5.006   4.419 -0.4105 -0.8052 -1.5685
    4MOL    H85 2911   6.684   5.124   4.467 -3.0439  0.5901 -1.7403
    4MOL    H86 2912   6.558   5.087   4.255 -1.1407 -0.7703  1.4677
    4MOL    H87 2913   6.673   4.965   4.209 -0.8026 -0.8282  0.2889
    4MOL    H88 2914   6.606   4.824   4.410  0.6269 -1.5488 -2.4407
    4MOL    H89 2915   6.478   4.858   4.284 -0.6591  1.5840 -0.1334
    4MOL    H90 2916   6.372   5.014   4.428 -1.1533  0.1194  0.5534
    4MOL    H91 2917   6.490   5.006   4.538  0.7837  0.5258  0.9935
    4MOL    H92 2918   6.042   4.609   4.459  1.6123 -2.3944 -0.9449
    4MOL    H93 2919   5.979   4.425   4.598  0.5673 -0.9375 -0.1447
    4MOL    H94 2920   6.280   4.552   4.892 -0.8607 -1.4931  0.1995
    4MOL    H95 2921   6.338   4.740   4.752 -0.2233  0.3583  0.0466
    4MOL    O96 2922   5.924   4.190   4.889  0.2767 -0.1968 -0.1328
    4MOL    C97 2923   5.884   4.096   4.786  0.2206 -0.1535  0.5027
    4MOL    C98 2924   5.817   3.976   4.846  0.3740  0.2795 -0.3938
    4MOL    C99 2925   5.739   3.883   4.751 -0.0156  0.5733 -0.0261
    4MOL   C100 2926   5.651   3.785   4.827  0.3311 -0.1914  0.0624
    4MOL   C101 2927   5.550   3.729   4.738  0.8247  0.3865  0.0232
    4MOL   C102 2928   5.442   3.640   4.798  0.2068  0.6483 -0.0533
    4MOL   C103 2929   5.326   3.607   4.702 -0.4888 -0.3002  0.0433
    4MOL   C104 2930   5.205   3.532   4.760 -0.2018 -0.1740  0.5705
    4MOL   C105 2931   5.140   3.602   4.883  0.0311  0.2877  0.1850
    4MOL   C106 2932   5.056   3.724   4.852  0.4006  0.2654 -0.1625
    4MOL   O107 2933   5.140   3.829   4.813  0.1638  0.1779  0.0193
    4MOL   C108 2934   5.077   3.937   4.750  0.5162  1.0488  0.7381
    4MOL   O109 2935   4.955   3.953   4.750  0.2177  0.1103  0.3322
    4MOL   C110 2936   5.167   4.027   4.668 -0.4031  0.1739 -0.2232
    4MOL   C111 2937   5.103   4.135   4.609  0.0275  0.2921  0.1128
    4MOL   C112 2938   5.177   4.229   4.535  0.4917  0.4265  0.1467
    4MOL   C113 2939   5.314   4.217   4.522  0.4172  0.1205  0.7902
    4MOL   C114 2940   5.392   4.324   4.457  0.0627 -0.2256 -0.6173
    4MOL   O115 2941   5.513   4.318   4.449 -0.3534 -0.1455  0.2443
    4MOL   O116 2942   5.320   4.426   4.404  0.4230  0.3238  0.0216
    4MOL   C117 2943   5.379   4.104   4.574  0.3577  0.3220  0.0951
    4MOL   C118 2944   5.305   4.009   4.655 -0.1520  0.6326  0.3700
    4MOL   H119 2945   5.812   4.149   4.722 -2.4823 -2.4424  1.5781
    4MOL   H120 2946   5.971   4.060   4.730  0.3381  0.8794 -0.0024
    4MOL   H121 2947   5.761   4.009   4.934 -0.2112 -1.0712 -0.2493
    4MOL   H122 2948   5.901   3.923   4.891  1.5156  0.7934 -1.8966
    4MOL   H123 2949   5.683   3.942   4.678 -0.5661  2.9211  2.2009
    4MOL   H124 2950   5.819   3.828   4.703  1.2068  1.7592  0.6249
    4MOL   H125 2951   5.606   3.850   4.902 -1.1378 -0.8858 -0.1959
    4MOL   H126 2952   5.712   3.714   4.882  2.0656  1.2133 -0.0132
    4MOL   H127 2953   5.516   3.808   4.671  2.9736  1.0179 -0.3836
    4MOL   H128 2954   5.599   3.662   4.668  0.6980 -0.0500  0.3517
    4MOL   H129 2955   5.486   3.554   4.848 -0.0497  1.6686  1.9976
    4MOL   H130 2956   5.400   3.686   4.888 -0.8720 -1.1792  0.4163
    4MOL   H131 2957   5.287   3.696   4.652  1.9743  0.9751  0.2821
    4MOL   H132 2958   5.372   3.546   4.624 -1.0388 -2.1485  1.1344
    4MOL   H133 2959   5.119   3.523   4.694 -0.5391 -0.3804  1.0429
    4MOL   H134 2960   5.237   3.434   4.794  2.8397  1.0817  1.5207
    4MOL   H135 2961   5.209   3.622   4.966  0.5186 -0.7664  0.0408
    4MOL   H136 2962   5.073   3.527   4.923 -0.5954 -0.0987 -1.5480
    4MOL   H137 2963   5.003   3.770   4.936  1.7646 -1.7873  1.8857
    4MOL   H138 2964   4.995   3.693   4.767  1.1240 -2.0255  0.1307
    4MOL   H139 2965   4.998   4.156   4.623 -0.1738 -1.3575  1.1787
    4MOL   H140 2966   5.122   4.311   4.490 -0.1319 -0.6184 -1.0225
    4MOL   H141 2967   5.487   4.099   4.567  0.5138  2.9329  0.3289
    4MOL   H142 2968   5.350   3.924   4.704 -0.0499  0.9906  0.9125
    4MOL   O143 2969   5.401   4.518   4.312  0.6841  0.2547 -0.7795
    4MOL   C144 2970   5.423   4.632   4.387  0.6015  0.5644 -0.5794
    4MOL   C145 2971   5.298   4.720   4.395  0.1850 -0.1481  0.5158
    4MOL   C146 2972   5.308   4.833   4.497 -0.0365  0.9677  0.5762
    4MOL   C147 2973   5.196   4.935   4.475 -0.1147  0.0525  0.2146
    4MOL   C148 2974   5.206   5.052   4.573  0.6215  0.9579  0.5639
    4MOL   C149 2975   5.154   5.188   4.516 -0.1436 -0.3860  0.2886
    4MOL   C150 2976   5.193   5.307   4.599 -0.1093  0.2784  0.6357
    4MOL   C151 2977   5.135   5.443   4.547 -0.0510  0.3496  0.2294
    4MOL   C152 2978   5.170   5.567   4.631  0.1206  0.0810 -0.7375
    4MOL   C153 2979   5.084   5.694   4.596 -0.2369  0.3922  0.0443
    4MOL   O154 2980   5.149   5.786   4.513  0.5154  0.0932 -0.1385
    4MOL   C155 2981   5.141   5.772   4.374  0.1031  0.5105  0.0414
    4MOL   O156 2982   5.059   5.702   4.322 -0.1608 -0.6988 -0.2524
    4MOL   C157 2983   5.255   5.843   4.301  0.3527  0.3902  0.0434
    4MOL   C158 2984   5.265   5.826   4.159 -0.1544 -0.5725 -0.3972
    4MOL   C159 2985   5.352   5.908   4.087 -0.4391  0.3937  0.1074
    4MOL   C160 2986   5.442   5.993   4.152  0.1263 -0.3824 -0.3400
    4MOL   C161 2987   5.549   6.067   4.076 -0.3681 -0.5295  0.6196
    4MOL   O162 2988   5.606   6.019   3.980 -0.1338 -0.1658 -0.1980
    4MOL   O163 2989   5.585   6.187   4.123 -0.4007  0.2412 -0.2738
    4MOL   C164 2990   5.432   6.007   4.293  0.0834 -0.0234  0.2996
    4MOL   C165 2991   5.338   5.929   4.366 -0.0868 -1.1082 -0.6484
    4MOL   H166 2992   5.453   4.608   4.489  1.5816  2.7320 -0.3388
    4MOL   H167 2993   5.505   4.678   4.333  0.6237 -1.9252 -2.7985
    4MOL   H168 2994   5.218   4.655   4.430 -1.5167  1.9820  0.7142
    4MOL   H169 2995   5.271   4.740   4.291 -0.2489 -1.3273  0.4023
    4MOL   H170 2996   5.321   4.790   4.597  0.9224  1.4743  0.6714
    4MOL   H171 2997   5.406   4.874   4.477  1.0740 -1.8906 -0.0757
    4MOL   H172 2998   5.100   4.885   4.481  0.2433 -0.7115 -0.2418
    4MOL   H173 2999   5.204   4.966   4.371 -2.6852 -2.3029 -0.7344
    4MOL   H174 3000   5.160   5.035   4.670 -0.5054  0.5421 -0.0469
    4MOL   H175 3001   5.312   5.071   4.591  0.9754 -1.2549  0.9355
    4MOL   H176 3002   5.195   5.206   4.417 -1.4592  1.0617 -0.0125
    4MOL   H177 3003   5.046   5.176   4.506 -0.5035  1.3857  1.7904
    4MOL   H178 3004   5.158   5.306   4.703  1.2982 -0.9369  1.1130
    4MOL   H179 3005   5.298   5.315   4.626  0.5043 -0.2663 -1.4998
    4MOL   H180 3006   5.165   5.456   4.443  0.4734 -0.0996  0.3213
    4MOL   H181 3007   5.027   5.428   4.537 -0.0040  0.3954 -0.3661
    4MOL   H182 3008   5.275   5.594   4.616  0.3074 -0.2253 -0.0284
    4MOL   H183 3009   5.176   5.533   4.735 -0.8648 -0.4929 -0.8732
    4MOL   H184 3010   5.068   5.735   4.696  1.2517 -0.4213  0.6411
    4MOL   H185 3011   4.987   5.675   4.552 -0.5463  2.2038 -0.1017
    4MOL   H186 3012   5.202   5.760   4.101 -0.0539 -0.4251 -0.6730
    4MOL   H187 3013   5.361   5.899   3.979  2.3259  1.6907  0.1851
    4MOL   H188 3014   5.495   6.080   4.342  1.1882 -0.4953 -0.3937
    4MOL   H189 3015   5.322   5.945   4.472  0.1727 -0.2577 -0.7392
    4MOL   O190 3016   5.685   6.255   4.041  0.1586 -0.1913  0.2092
    4MOL   C191 3017   5.807   6.243   4.107 -0.6447  0.2725  0.0075
    4MOL   C192 3018   5.820   6.338   4.218 -0.2675  0.4344  0.2169
    4MOL   C193 3019   5.952   6.333   4.294  0.6207 -0.0752 -0.5496
    4MOL   C194 3020   5.953   6.430   4.415 -0.7583 -0.3593  0.2056
    4MOL   C195 3021   6.099   6.470   4.461  0.1474 -0.8822  0.4479
    4MOL   C196 3022   6.088   6.588   4.558  0.7763  0.5627  0.0614
    4MOL   C197 3023   6.234   6.637   4.604  0.0745 -0.0296 -0.6334
    4MOL   C198 3024   6.231   6.783   4.636 -0.0129  0.2796 -0.4434
    4MOL   C199 3025   6.362   6.827   4.713 -0.7605  0.1269 -0.4062
    4MOL   C200 3026   6.349   6.974   4.754 -0.3700  0.6095 -0.2116
    4MOL   O201 3027   6.472   7.029   4.794  0.0952  0.3809 -0.1243
    4MOL   C202 3028   6.480   7.147   4.859  1.0373 -0.5022 -0.0745
    4MOL   O203 3029   6.390   7.190   4.934 -0.3722  0.8671  0.1510
    4MOL   C204 3030   6.613   7.211   4.849 -0.5564 -0.3811  0.4628
    4MOL   C205 3031   6.725   7.139   4.792  0.0428 -0.3491  0.2099
    4MOL   C206 3032   6.854   7.200   4.785 -0.3349 -0.3513  0.0881
    4MOL   C207 3033   6.875   7.335   4.818  0.4376  0.9025  0.3177
    4MOL   C208 3034   7.006   7.396   4.789 -0.0274 -0.3021  0.6567
    4MOL   O209 3035   7.022   7.515   4.805  0.2711  0.0788  0.0866
    4MOL   O210 3036   7.101   7.317   4.732 -0.3448 -0.6206  0.3167
    4MOL   C211 3037   6.764   7.398   4.880  0.6919 -0.5936 -0.4348
    4MOL   C212 3038   6.642   7.338   4.902  0.3077 -0.3495  0.2087
    4MOL   H213 3039   5.829   6.143   4.148 -2.5247 -0.8575 -1.6801
    4MOL   H214 3040   5.885   6.268   4.035 -1.1641 -1.5420 -1.2278
    4MOL   H215 3041   5.734   6.322   4.283  0.7723 -1.3767  1.1607
    4MOL   H216 3042   5.803   6.440   4.181  2.2239  0.9615  0.4590
    4MOL   H217 3043   5.966   6.233   4.335 -2.4342 -1.8727 -3.6596
    4MOL   H218 3044   6.038   6.347   4.228  0.6596  1.8408 -0.1266
    4MOL   H219 3045   5.901   6.384   4.500 -3.0091 -0.1962 -1.0319
    4MOL   H220 3046   5.900   6.520   4.384 -0.8905 -1.1564 -1.9660
    4MOL   H221 3047   6.142   6.390   4.521  1.6490 -3.0785 -3.3274
    4MOL   H222 3048   6.175   6.488   4.385  0.7870 -0.7364  1.1209
    4MOL   H223 3049   6.047   6.676   4.509  0.5064  0.7133  0.5570
    4MOL   H224 3050   6.019   6.567   4.640 -1.4563 -0.3788 -1.9768
    4MOL   H225 3051   6.260   6.576   4.690 -2.4606 -0.1663  0.0488
    4MOL   H226 3052   6.303   6.620   4.521  3.6099  2.8353  1.5359
    4MOL   H227 3053   6.218   6.849   4.550  1.3397 -0.3318 -1.1429
    4MOL   H228 3054   6.146   6.803   4.701  0.6504 -0.1482  0.5631
    4MOL   H229 3055   6.455   6.826   4.655  0.4253 -0.7992  1.4656
    4MOL   H230 3056   6.377   6.762   4.799  2.4960  0.7543 -0.4036
    4MOL   H231 3057   6.263   6.988   4.820 -0.9927 -1.0849 -0.6328
    4MOL   H232 3058   6.316   7.026   4.664 -0.1188  1.1469  0.0057
    4MOL   H233 3059   6.707   7.042   4.747 -0.7835 -0.8167  1.5239
    4MOL   H234 3060   6.927   7.137   4.736 -0.3596  0.1636 -0.6120
    4MOL   H235 3061   6.766   7.501   4.910 -0.8888 -0.4419 -0.7869
    4MOL   H236 3062   6.567   7.396   4.954 -1.0873 -1.7445 -0.1927
    4MOL   O237 3063   7.234   7.386   4.695 -0.0805  0.1225  0.2836
    4MOL   C238 3064   7.219   7.434   4.557  0.3907 -0.2720 -0.3472
    4MOL   C239 3065   7.213   7.321   4.453  0.1137  0.3655  0.2365
    4MOL   C240 3066   7.329   7.234   4.451  0.3688  0.3941 -0.4779
    4MOL   C241 3067   7.320   7.127   4.343  0.5335  0.1692 -0.0210
    4MOL   C242 3068   7.443   7.035   4.328  0.7087 -0.4657  0.0004
    4MOL   C243 3069   7.422   6.919   4.232 -0.6430  0.0710 -0.4368
    4MOL   C244 3070   7.546   6.822   4.243 -0.3683 -0.5818 -0.1351
    4MOL   C245 3071   7.532   6.705   4.144 -0.5190 -0.0184 -0.2484
    4MOL   C246 3072   7.654   6.615   4.134 -0.4154 -0.0196 -0.3936
    4MOL   C247 3073   7.650   6.517   4.016  0.0174  0.3416  0.8006
    4MOL   O248 3074   7.548   6.426   4.048 -0.1214 -0.2182 -0.1022
    4MOL   C249 3075   7.579   6.301   4.085  0.0375 -0.8815  0.3819
    4MOL   O250 3076   7.690   6.256   4.092  0.0522 -0.4901  0.1229
    4MOL   C251 3077   7.456   6.222   4.123 -0.0445  0.7533 -1.0880
    4MOL   C252 3078   7.457   6.091   4.152 -0.1509 -0.4546  0.1666
    4MOL   C253 3079   7.340   6.013   4.172 -0.0845  0.5714 -0.6616
    4MOL   C254 3080   7.212   6.072   4.183  0.0825 -0.7497  0.4788
    4MOL   C255 3081   7.087   5.992   4.206  0.4683  0.1706 -0.0560
    4MOL   O256 3082   6.979   6.043   4.181  0.4596  0.0248  0.0418
    4MOL   O257 3083   7.110   5.859   4.243 -0.0134 -0.3461  0.3890
    4MOL   C258 3084   7.210   6.212   4.150 -0.4989 -0.0501  0.1249
    4MOL   C259 3085   7.327   6.280   4.115  0.0549  0.8053 -0.2923
    4MOL   H260 3086   7.145   7.512   4.538  2.9470  1.8257 -2.1132
    4MOL   H261 3087   7.307   7.494   4.534  0.2209  0.8369  1.7992
    4MOL   H262 3088   7.195   7.367   4.356  0.9956 -1.0835 -0.6363
    4MOL   H263 3089   7.123   7.262   4.474  0.4135 -0.9987 -2.1719
    4MOL   H264 3090   7.420   7.293   4.442  0.1766  0.5401 -1.5117
    4MOL   H265 3091   7.329   7.188   4.550 -2.6906  1.5135  0.0989
    4MOL   H266 3092   7.297   7.183   4.253 -1.0670  1.8653  1.4051
    4MOL   H267 3093   7.236   7.059   4.360  0.1930  0.3925 -0.7851
    4MOL   H268 3094   7.532   7.089   4.297  1.7221 -2.1908 -0.1998
    4MOL   H269 3095   7.471   6.990   4.424  1.3695  0.4651  0.2533
    4MOL   H270 3096   7.330   6.870   4.263  0.6960  0.1993  4.1427
    4MOL   H271 3097   7.401   6.953   4.130  0.6349 -2.2470 -1.5332
    4MOL   H272 3098   7.634   6.882   4.218 -0.8528  0.6606  1.1378
    4MOL   H273 3099   7.566   6.784   4.343 -2.3991  1.5423  1.1259
    4MOL   H274 3100   7.452   6.641   4.182 -0.4432 -0.1416 -0.2958
    4MOL   H275 3101   7.516   6.747   4.045  4.3810 -0.4663 -1.3442
    4MOL   H276 3102   7.679   6.563   4.227  0.6116 -0.4499 -0.9029
    4MOL   H277 3103   7.743   6.673   4.108 -0.2877 -0.1849 -0.3266
    4MOL   H278 3104   7.748   6.476   3.992 -1.0006 -1.2778 -0.6775
    4MOL   H279 3105   7.619   6.575   3.930  2.1262 -1.6850 -1.4317
    4MOL   H280 3106   7.554   6.044   4.150  0.0524 -0.0661  0.8012
    4MOL   H281 3107   7.350   5.907   4.189 -0.4048  0.6599  0.1247
    4MOL   H282 3108   7.114   6.261   4.150 -1.3461 -1.6370 -1.0524
    4MOL   H283 3109   7.320   6.385   4.089 -0.3507  0.7869 -0.2612
    4MOL   O284 3110   6.979   5.782   4.253 -0.2772  0.0769  0.0433
    4MOL   C285 3111   6.945   5.719   4.124 -1.1285 -0.0210 -0.6176
    4MOL   C286 3112   7.036   5.587   4.114 -0.3077  0.2492  0.4896
    4MOL   C287 3113   7.013   5.503   3.989 -0.0208  0.6531  0.4580
    4MOL   C288 3114   6.883   5.412   3.994 -0.4811 -0.7183  0.2801
    4MOL   C289 3115   6.892   5.311   3.880 -0.6944  0.1014  0.1220
    4MOL   C290 3116   6.779   5.205   3.878 -0.3841  0.1430  0.0850
    4MOL   C291 3117   6.820   5.085   3.792 -0.0876 -0.2548 -0.3432
    4MOL   C292 3118   6.878   4.976   3.870  0.4205 -0.0121  0.1653
    4MOL   C293 3119   6.875   4.845   3.798 -0.1728  0.7552 -0.2043
    4MOL   C294 3120   6.932   4.726   3.885 -0.3066 -0.4278  0.4835
    4MOL   O295 3121   6.965   4.624   3.798 -0.0284  0.0178  0.0768
    4MOL   C296 3122   7.063   4.540   3.817 -0.3086 -0.4496 -0.0144
    4MOL   O297 3123   7.140   4.546   3.908 -0.1651 -0.2480 -0.9335
    4MOL   C298 3124   7.072   4.439   3.708 -0.7247  0.6156  0.4634
    4MOL   C299 3125   6.998   4.452   3.596  0.2252  0.7032 -0.7331
    4MOL   C300 3126   7.007   4.354   3.497  0.0278 -0.5939  0.1795
    4MOL   C301 3127   7.102   4.250   3.501 -0.1159 -0.5201  0.4526
    4MOL   C302 3128   7.094   4.145   3.397 -0.0608  0.0369 -0.0949
    4MOL   O303 3129   7.175   4.050   3.393  0.4692 -0.1947  0.0888
    4MOL   O304 3130   6.992   4.167   3.308 -0.5593  0.2677  0.4954
    4MOL   C305 3131   7.188   4.240   3.609  0.3857 -0.2972 -0.2748
    4MOL   C306 3132   7.175   4.338   3.713 -0.4996 -0.0782  0.0327
    4MOL   H307 3133   6.845   5.678   4.119 -0.9248 -0.5653 -0.3244
    4MOL   H308 3134   6.961   5.793   4.046  1.5806 -0.2991 -0.3776
    4MOL   H309 3135   7.020   5.531   4.206 -1.9949 -2.9685 -1.6601
    4MOL   H310 3136   7.143   5.610   4.118 -0.6545  2.0262  0.1264
    4MOL   H311 3137   7.025   5.562   3.899  2.4944  2.3732  1.8626
    4MOL   H312 3138   7.097   5.434   3.986  1.6032  2.3458  4.3260
    4MOL   H313 3139   6.800   5.482   3.986  0.3314  0.1384 -0.9090
    4MOL   H314 3140   6.871   5.364   4.090 -0.8675 -0.0538  0.5656
    4MOL   H315 3141   6.905   5.370   3.790  2.0602  1.0097  1.0653
    4MOL   H316 3142   6.987   5.258   3.890 -0.9109 -0.0774  1.3216
    4MOL   H317 3143   6.758   5.172   3.980  0.4480  0.8414  0.4935
    4MOL   H318 3144   6.691   5.256   3.841 -0.8459 -0.0926  0.8501
    4MOL   H319 3145   6.728   5.049   3.747 -2.4652  0.5791  3.5992
    4MOL   H320 3146   6.885   5.129   3.716  2.1708 -0.7787  1.2142
    4MOL   H321 3147   6.984   4.988   3.892  0.3811 -1.0915  0.9728
    4MOL   H322 3148   6.824   4.961   3.963  0.0305  0.6245  0.0499
    4MOL   H323 3149   6.937   4.855   3.709 -0.1956  0.0975 -0.2970
    4MOL   H324 3150   6.773   4.824   3.764  0.8591 -2.2323 -1.5972
    4MOL   H325 3151   6.863   4.696   3.963  0.9256 -0.0039  1.7634
    4MOL   H326 3152   7.026   4.763   3.927  1.4489 -0.9161 -2.8204
    4MOL   H327 3153   6.921   4.526   3.580 -1.6458 -0.8266  1.0249
    4MOL   H328 3154   6.936   4.362   3.416 -0.1507 -0.9126  0.3060
    4MOL   H329 3155   7.263   4.164   3.624  0.4156 -0.1711  0.2296
    4MOL   H330 3156   7.241   4.335   3.798  0.0841  0.3854 -0.4054
    4MOL   O331 3157   6.990   4.062   3.199 -0.1213  0.7479  0.0049
    4MOL   C332 3158   6.875   3.981   3.224  0.0215  0.2014  0.0737
    4MOL   C333 3159   6.877   3.852   3.137  0.0120  0.0608  0.4971
    4MOL   C334 3160   6.997   3.758   3.168 -0.1838  0.0462 -0.2435
    4MOL   C335 3161   6.969   3.618   3.110  0.2399  0.6343  0.0047
    4MOL   C336 3162   7.079   3.522   3.142 -0.2086 -0.0121  0.0171
    4MOL   C337 3163   7.050   3.383   3.089 -0.6286 -0.6000 -0.2609
    4MOL   C338 3164   7.143   3.267   3.133 -0.4353 -0.6744 -0.1446
    4MOL   C339 3165   7.081   3.135   3.076 -0.7133 -0.6577 -0.2694
    4MOL   C340 3166   7.162   3.010   3.084  0.1196 -0.3667 -1.0747
    4MOL   C341 3167   7.088   2.884   3.037  0.0072  0.0631  0.5327
    4MOL   O342 3168   7.052   2.896   2.902  0.1766  0.0477 -0.5047
    4MOL   C343 3169   7.114   2.812   2.818 -0.0227 -1.3349  0.7439
    4MOL   O344 3170   7.201   2.727   2.851  0.3721 -0.0902 -0.8430
    4MOL   C345 3171   7.053   2.818   2.677  0.1186  1.1473 -0.0456
    4MOL   C346 3172   7.087   2.714   2.586  0.8590 -0.1174 -0.1101
    4MOL   C347 3173   7.037   2.720   2.454  0.3712  0.1510  0.0008
    4MOL   C348 3174   6.958   2.830   2.417 -0.0932  0.5594 -0.4672
    4MOL   C349 3175   6.910   2.835   2.278 -0.5650  0.3081  0.0191
    4MOL   O350 3176   6.931   2.746   2.204 -0.0365 -0.0299  0.1403
    4MOL   O351 3177   6.846   2.943   2.240  0.4743 -0.3813  0.3884
    4MOL   C352 3178   6.923   2.929   2.508 -0.1359 -0.6178 -0.3116
    4MOL   C353 3179   6.966   2.923   2.641 -0.1516  0.2306 -0.0467
    4MOL   H354 3180   6.869   3.953   3.329  0.6822  3.0260  0.8993
    4MOL   H355 3181   6.786   4.038   3.198 -0.7392 -0.0488  2.0218
    4MOL   H356 3182   6.878   3.869   3.029  4.8497 -0.3781  0.3812
    4MOL   H357 3183   6.789   3.793   3.162  0.1760 -0.0198  0.8836
    4MOL   H358 3184   7.085   3.808   3.126  1.1252 -1.4620  0.6548
    4MOL   H359 3185   7.018   3.744   3.274 -0.1406 -1.7002 -0.4750
    4MOL   H360 3186   6.957   3.616   3.002 -0.2374  1.5964  0.0366
    4MOL   H361 3187   6.875   3.581   3.152 -0.9014  2.3845 -0.9644
    4MOL   H362 3188   7.168   3.560   3.092  0.6678 -1.9995  0.0240
    4MOL   H363 3189   7.104   3.520   3.248  1.1995  2.4361 -0.2418
    4MOL   H364 3190   6.953   3.360   3.132 -0.8149  1.9400  0.7411
    4MOL   H365 3191   7.045   3.391   2.980 -1.3401 -2.1971 -0.3637
    4MOL   H366 3192   7.240   3.303   3.098 -1.2980  0.6306 -1.2162
    4MOL   H367 3193   7.158   3.274   3.241  3.5079 -1.8346 -0.5427
    4MOL   H368 3194   6.979   3.113   3.107 -0.3151 -1.6300  0.3753
    4MOL   H369 3195   7.078   3.154   2.969  1.0312 -0.0130 -0.2119
    4MOL   H370 3196   7.199   3.024   3.186  0.0565 -1.0178 -0.9569
    4MOL   H371 3197   7.246   3.008   3.015  0.5804 -1.5012 -0.4928
    4MOL   H372 3198   7.000   2.865   3.098  0.7569 -0.4857  1.4474
    4MOL   H373 3199   7.140   2.793   3.066  1.1796  0.4903 -0.2126
    4MOL   H374 3200   7.156   2.632   2.602  1.6481  0.2680 -1.4260
    4MOL   H375 3201   7.064   2.637   2.392  1.2958  0.7259 -0.3756
    4MOL   H376 3202   6.859   3.014   2.488  2.4264  1.2921 -0.6642
    4MOL   H377 3203   6.940   3.008   2.703  1.4263  1.8444 -1.5365
    4MOL   O378 3204   6.835   2.965   2.093 -0.0775  0.9187 -0.3477
    4MOL   C379 3205   6.693   2.950   2.062 -0.3537 -0.0118 -0.4169
    4MOL   C380 3206   6.669   2.990   1.916 -0.6243  0.4264  0.7916
    4MOL   C381 3207   6.688   3.138   1.902 -0.3416 -0.8708  0.3206
    4MOL   C382 3208   6.683   3.191   1.760 -0.3374  0.3130  0.0341
    4MOL   C383 3209   6.724   3.338   1.748  0.4791 -0.0090 -0.1997
    4MOL   C384 3210   6.713   3.405   1.604 -0.2460  0.8068 -0.4752
    4MOL   C385 3211   6.756   3.551   1.611  1.0073  0.1722  0.0287
    4MOL   C386 3212   6.718   3.615   1.484  0.0065 -0.5209 -0.1466
    4MOL   C387 3213   6.776   3.755   1.467  0.0910 -0.3765 -0.2950
    4MOL   C388 3214   6.765   3.799   1.323  0.1213 -0.1752  0.5863
    4MOL   O389 3215   6.818   3.930   1.304  0.3482 -0.2767  0.1837
    4MOL   C390 3216   6.798   3.993   1.190 -0.1330 -0.4037  0.6751
    4MOL   O391 3217   6.737   3.938   1.093  0.5336 -0.0417  0.1399
    4MOL   C392 3218   6.869   4.136   1.183 -0.5704  0.0141 -0.4507
    4MOL   C393 3219   6.980   4.176   1.262  0.3276 -0.7829 -0.5922
    4MOL   C394 3220   7.039   4.299   1.251 -0.5065 -0.5014  0.2266
    4MOL   C395 3221   6.982   4.389   1.161  0.5446  0.7983 -0.5964
    4MOL   C396 3222   7.045   4.523   1.143 -0.2393 -0.2585 -0.5113
    4MOL   O397 3223   7.001   4.615   1.075  0.0822  0.0042 -0.0317
    4MOL   O398 3224   7.166   4.540   1.208 -0.8454 -0.6861 -0.3796
    4MOL   C399 3225   6.865   4.357   1.090 -0.1188  0.1181  0.0388
    4MOL   C400 3226   6.817   4.227   1.090 -0.2144  0.3242 -0.3170
    4MOL   H401 3227   6.664   2.847   2.080 -0.4755  0.1475  0.2975
    4MOL   H402 3228   6.636   3.018   2.126  0.5188  0.3955 -0.0600
    4MOL   H403 3229   6.569   2.969   1.881  0.3334 -0.9690 -1.1712
    4MOL   H404 3230   6.737   2.933   1.853 -0.1477 -1.2296  2.7721
    4MOL   H405 3231   6.618   3.203   1.954  0.2492 -0.4329  0.5800
    4MOL   H406 3232   6.787   3.162   1.942 -1.2021  2.7702  0.4267
    4MOL   H407 3233   6.578   3.172   1.734 -0.1687 -1.1543  0.3461
    4MOL   H408 3234   6.747   3.126   1.701  1.0054 -0.9381  2.7935
    4MOL   H409 3235   6.668   3.392   1.824  2.6564 -1.1900  2.3570
    4MOL   H410 3236   6.829   3.354   1.773  0.6799  1.6596 -2.0358
    4MOL   H411 3237   6.775   3.348   1.535 -0.9416 -1.0346  0.3750
    4MOL   H412 3238   6.610   3.398   1.567 -0.4122 -0.5735  0.2146
    4MOL   H413 3239   6.724   3.609   1.698  0.9758 -0.0832  0.1870
    4MOL   H414 3240   6.864   3.563   1.612  1.1544 -0.8320 -1.6598
    4MOL   H415 3241   6.752   3.549   1.404  1.6722  2.3362 -1.8990
    4MOL   H416 3242   6.610   3.626   1.477  0.2187  0.1590 -2.6193
    4MOL   H417 3243   6.879   3.751   1.499  0.4557  2.3593 -0.9378
    4MOL   H418 3244   6.730   3.820   1.542 -1.5658 -2.5441  0.6043
    4MOL   H419 3245   6.660   3.785   1.299  0.5927 -1.3704 -0.8240
    4MOL   H420 3246   6.807   3.728   1.251  1.7257  1.5776 -0.2485
    4MOL   H421 3247   7.019   4.099   1.327  0.1689 -1.3358 -1.1493
    4MOL   H422 3248   7.121   4.316   1.320 -1.3211  2.8880  0.4765
    4MOL   H423 3249   6.829   4.432   1.021 -0.0104  0.4455  0.3343
    4MOL   H424 3250   6.727   4.191   1.043  0.1226 -3.3774  1.7034
    4MOL   O425 3251   7.235   4.671   1.190 -0.6698  0.4198 -0.2351
    4MOL   C426 3252   7.337   4.654   1.094  0.0929  0.5644 -0.7425
    4MOL   C427 3253   7.393   4.800   1.080  0.2400  0.0865 -0.9573
    4MOL   C428 3254   7.535   4.804   1.027 -0.1540 -0.0837 -0.0445
    4MOL   C429 3255   7.598   4.948   1.007 -0.0343 -0.3106 -0.1018
    4MOL   C430 3256   7.742   4.954   0.957 -0.5830  0.1532  0.9079
    4MOL   C431 3257   7.765   4.866   0.832  1.0468 -0.2850  0.0363
    4MOL   C432 3258   7.895   4.895   0.759 -0.4810  0.3762  0.0924
    4MOL   C433 3259   0.042   4.851   0.834 -0.1712 -0.4333  0.7819
    4MOL   C434 3260   0.180   4.896   0.776  0.0020  0.0298 -0.5712
    4MOL   C435 3261   0.293   4.850   0.859 -0.0949  0.0518 -0.2982
    4MOL   O436 3262   0.406   4.912   0.802 -0.4149  0.3131  0.2377
    4MOL   C437 3263   0.527   4.921   0.869  0.2475 -0.1085  0.6564
    4MOL   O438 3264   0.541   4.858   0.970 -0.3378 -0.1988 -0.3353
    4MOL   C439 3265   0.620   5.021   0.813 -0.4483  0.0956 -0.4107
    4MOL   C440 3266   0.597   5.084   0.688  0.2733  0.3816  0.2865
    4MOL   C441 3267   0.690   5.183   0.649  0.0728  0.5651 -0.4705
    4MOL   C442 3268   0.811   5.211   0.719  0.1459  0.4699 -0.0066
    4MOL   C443 3269   0.899   5.310   0.665  0.2027  0.5965 -0.0580
    4MOL   O444 3270   0.901   5.343   0.548 -0.5132 -0.3829 -0.1021
    4MOL   O445 3271   0.986   5.351   0.758  0.1497  0.1430  0.5508
    4MOL   C446 3272   0.847   5.132   0.828 -0.6567 -0.2647 -0.3953
    4MOL   C447 3273   0.751   5.038   0.873 -0.0979 -0.0696 -0.0985
    4MOL   H448 3274   7.416   4.584   1.123 -0.0095 -0.5925 -3.1469
    4MOL   H449 3275   7.294   4.606   1.006  0.0793  0.4873 -0.6934
    4MOL   H450 3276   7.404   4.835   1.183  1.2853 -3.5020  0.2276
    4MOL   H451 3277   7.332   4.869   1.023  1.4327  2.5317  0.6014
    4MOL   H452 3278   7.597   4.758   1.103  0.0958  1.1847  0.5420
    4MOL   H453 3279   7.542   4.752   0.931  0.8302 -0.4240  0.2086
    4MOL   H454 3280   7.604   5.006   1.099  3.1826 -0.8537  0.0942
    4MOL   H455 3281   7.536   5.012   0.945 -0.2387 -0.6275 -0.2265
    4MOL   H456 3282   7.754   5.058   0.926 -0.0813 -0.4898 -1.1439
    4MOL   H457 3283   7.816   4.932   1.033  2.0705 -0.9752 -1.9200
    4MOL   H458 3284   7.753   4.760   0.853 -2.8282  0.4297  1.6548
    4MOL   H459 3285   7.685   4.890   0.762  0.8920 -0.3978  0.1755
    4MOL   H460 3286   7.896   4.834   0.668 -1.0215 -1.4165  1.2759
    4MOL   H461 3287   7.894   4.999   0.726  0.4168  0.4104  0.1575
    4MOL   H462 3288   0.040   4.902   0.930 -1.0777  0.7750  0.1370
    4MOL   H463 3289   0.042   4.743   0.846  1.0094 -0.8018 -2.1162
    4MOL   H464 3290   0.184   5.005   0.773 -0.9446  0.1648  1.9670
    4MOL   H465 3291   0.208   4.861   0.676  1.1365  2.5467 -1.1563
    4MOL   H466 3292   0.297   4.741   0.858  0.5897  0.0863 -1.4224
    4MOL   H467 3293   0.267   4.892   0.957 -2.8849 -3.4011  0.5295
    4MOL   H468 3294   0.512   5.067   0.623 -0.2880  0.3639  1.0135
    4MOL   H469 3295   0.675   5.236   0.556 -1.6741  2.3051  0.7774
    4MOL   H470 3296   0.943   5.139   0.876  1.0469 -0.2175 -3.6880
    4MOL   H471 3297   0.774   4.978   0.960  3.5728  1.1903 -0.0990
    4MOL   O472 3298   1.108   5.427   0.715  0.1104  0.5007 -0.5677
    4MOL   C473 3299   1.074   5.561   0.717  0.0722 -0.7219  0.2483
    4MOL   C474 3300   1.037   5.609   0.858  0.0836 -0.6245 -1.1411
    4MOL   C475 3301   1.056   5.753   0.870 -0.3643 -0.4338 -0.1467
    4MOL   C476 3302   1.035   5.798   1.016  0.3038 -0.3811  0.4280
    4MOL   C477 3303   0.891   5.840   1.041 -0.8210 -0.4737  0.1415
    4MOL   C478 3304   0.862   5.990   1.022 -0.4830  0.7772  0.3267
    4MOL   C479 3305   0.719   6.027   1.058  0.0196 -1.0338  1.1458
    4MOL   C480 3306   0.608   5.960   0.979 -0.1625 -0.1712  0.4833
    4MOL   C481 3307   0.619   5.980   0.823  0.6898 -0.2976 -0.2697
    4MOL   C482 3308   0.606   6.128   0.792 -0.0270  0.0089  0.0700
    4MOL   O483 3309   0.628   6.155   0.653  0.6636  0.7176  0.2113
    4MOL   C484 3310   0.604   6.267   0.610  0.4091 -0.1767  0.5709
    4MOL   O485 3311   0.557   6.359   0.675  0.7804 -0.3562  0.0918
    4MOL   C486 3312   0.644   6.280   0.465  0.0487  0.2208 -0.1896
    4MOL   C487 3313   0.632   6.176   0.368 -0.1402  0.3664  0.2540
    4MOL   C488 3314   0.686   6.187   0.241 -0.0258  0.4589  0.0892
    4MOL   C489 3315   0.746   6.311   0.204  0.4021 -0.3323  0.3021
    4MOL   C490 3316   0.807   6.329   0.066  0.0566  0.2697  0.0772
    4MOL   O491 3317   0.804   6.433   0.004 -0.1034 -0.0682 -0.2285
    4MOL   O492 3318   0.859   6.210   0.005  0.2684  0.0806 -0.1159
    4MOL   C493 3319   0.749   6.418   0.297  0.5866 -1.1616  0.1681
    4MOL   C494 3320   0.694   6.404   0.426 -0.5484  0.2236  0.7867
    4MOL   H495 3321   1.161   5.617   0.682 -0.3048  2.0513  3.4991
    4MOL   H496 3322   0.998   5.580   0.641  1.3310 -0.9991 -1.0894
    4MOL   H497 3323   1.097   5.561   0.934  1.5412  1.4612 -0.9393
    4MOL   H498 3324   0.935   5.577   0.881  0.0525 -0.0962 -0.5452
    4MOL   H499 3325   1.156   5.779   0.836 -1.5170  2.1043 -1.7575
    4MOL   H500 3326   0.979   5.800   0.809  1.3998  1.7236 -0.7754
    4MOL   H501 3327   1.093   5.881   1.057 -0.6573 -0.4103  1.9082
    4MOL   H502 3328   1.055   5.717   1.085 -1.1756  0.0727  1.4155
    4MOL   H503 3329   0.826   5.791   0.968 -0.6649 -0.6980  0.1520
    4MOL   H504 3330   0.866   5.800   1.140 -2.6642 -1.6942 -0.7927
    4MOL   H505 3331   0.932   6.042   1.087 -0.6228 -0.8810  1.8830
    4MOL   H506 3332   0.887   6.010   0.918 -1.9783  1.2972  0.0497
    4MOL   H507 3333   0.710   5.998   1.162 -1.1846 -0.2732  1.2595
    4MOL   H508 3334   0.710   6.136   1.055 -1.6306 -1.1545  1.3205
    4MOL   H509 3335   0.605   5.852   0.997  2.3977 -0.6325 -1.5715
    4MOL   H510 3336   0.513   5.997   1.017 -0.2204  1.4586 -1.2048
    4MOL   H511 3337   0.544   5.926   0.766  0.7834  2.9659 -3.6706
    4MOL   H512 3338   0.716   5.944   0.788  0.6007 -0.4572 -0.3513
    4MOL   H513 3339   0.691   6.170   0.846 -0.1090 -0.9220  0.9372
    4MOL   H514 3340   0.520   6.175   0.838  0.5954  0.6572  0.5827
    4MOL   H515 3341   0.603   6.075   0.392 -0.0144 -0.1551 -1.7186
    4MOL   H516 3342   0.675   6.117   0.159  1.1288 -1.0573  1.1813
    4MOL   H517 3343   0.799   6.508   0.267 -1.0197  0.6883  2.7721
    4MOL   H518 3344   0.711   6.481   0.500  4.0007 -0.6861  0.8352
    4MOL   O519 3345   0.898   6.219   7.844 -0.3913  0.1418  0.3199
    4MOL   C520 3346   0.791   6.174   7.764  0.0092  0.3377 -0.2526
    4MOL   C521 3347   0.774   6.027   7.762  0.6821 -0.0677  0.0990
    4MOL   C522 3348   0.716   5.966   7.887 -0.2764  0.2564  0.0728
    4MOL   C523 3349   0.666   5.823   7.866 -0.2603 -0.2019 -0.1765
    4MOL   C524 3350   0.616   5.766   0.016  0.2168  0.1892 -0.2219
    4MOL   C525 3351   0.598   5.615   0.013 -0.4747 -0.0263  0.3267
    4MOL   C526 3352   0.533   5.560   7.864  0.2666 -0.4642  0.2684
    4MOL   C527 3353   0.545   5.408   7.871 -0.2404 -0.2350 -0.6171
    4MOL   C528 3354   0.504   5.345   7.737 -0.2830 -0.1584 -0.2191
    4MOL   C529 3355   0.607   5.366   7.619  0.0812  0.1329 -0.3958
    4MOL   O530 3356   0.586   5.486   7.542 -0.2197  0.0264 -0.1871
    4MOL   C531 3357   0.668   5.493   7.431  0.5759  0.7786  0.5627
    4MOL   O532 3358   0.761   5.415   7.401 -0.2302  0.2200 -0.4673
    4MOL   C533 3359   0.628   5.611   7.344 -0.1650  0.1488 -0.4966
    4MOL   C534 3360   0.655   5.618   7.209  0.1315  0.2806  0.6711
    4MOL   C535 3361   0.622   5.733   7.133  0.1959 -0.3432 -0.0494
    4MOL   C536 3362   0.575   5.854   7.193 -0.7234 -0.2216 -0.5066
    4MOL   C537 3363   0.554   5.982   7.125  0.0477  0.7173 -0.2790
    4MOL   O538 3364   0.524   6.087   7.189  0.3944  0.0369  0.6456
    4MOL   O539 3365   0.558   5.968   6.991  0.6730 -0.1561 -0.7091
    4MOL   C540 3366   0.538   5.843   7.329 -0.1610  0.1370 -1.0131
    4MOL   C541 3367   0.567   5.726   7.401  0.9078  0.5292 -0.3714
    4MOL   H542 3368   0.699   6.227   7.793 -0.2917 -0.4351  0.2241
    4MOL   H543 3369   0.812   6.201   7.661 -1.2872  0.8596 -0.3942
    4MOL   H544 3370   0.871   5.985   7.737  0.9084 -0.9476  2.2847
    4MOL   H545 3371   0.719   6.001   7.671 -0.2618  1.8868  0.0966
    4MOL   H546 3372   0.788   5.965   7.969 -1.4274  0.5081  1.0994
    4MOL   H547 3373   0.631   6.018   7.929 -0.4711  0.3591 -0.4407
    4MOL   H548 3374   0.748   5.761   7.830 -0.2910 -1.6746  2.1743
    4MOL   H549 3375   0.585   5.824   7.793 -0.4742 -2.5148  0.0019
    4MOL   H550 3376   0.682   5.777   0.102 -0.4954 -1.9646  0.6448
    4MOL   H551 3377   0.520   5.810   0.042 -0.4531 -1.9645  1.0487
    4MOL   H552 3378   0.694   5.567   0.030  0.4448  1.0655 -1.6271
    4MOL   H553 3379   0.530   5.588   0.094 -1.1360 -1.7152 -0.7860
    4MOL   H554 3380   0.427   5.578   7.847  0.7988  1.6322 -0.9695
    4MOL   H555 3381   0.588   5.596   7.777  0.3058 -1.1012  0.0280
    4MOL   H556 3382   0.643   5.367   7.894 -0.9717 -1.5405  0.2195
    4MOL   H557 3383   0.483   5.387   7.958  2.5721  1.2964  1.8430
    4MOL   H558 3384   0.402   5.379   7.718 -0.3979 -0.3900 -0.0201
    4MOL   H559 3385   0.490   5.237   7.749 -0.9666 -0.2753 -1.9466
    4MOL   H560 3386   0.586   5.278   7.558  0.0107 -0.2282  0.1454
    4MOL   H561 3387   0.710   5.347   7.649 -0.0434  0.1309  0.0330
    4MOL   H562 3388   0.712   5.538   7.164 -0.2889 -0.4916  1.5012
    4MOL   H563 3389   0.639   5.728   7.026  3.9638  0.5622  0.4274
    4MOL   H564 3390   0.492   5.924   7.383 -0.1285  0.2179 -1.1056
    4MOL   H565 3391   0.531   5.726   7.502 -0.1096  0.8996 -0.7253
    4MOL   O566 3392   0.532   6.093   6.910  0.3802 -0.0157  0.2940
    4MOL   C567 3393   0.658   6.159   6.896  0.3883 -0.0974 -0.1458
    4MOL   C568 3394   0.739   6.108   6.783  0.7619  0.0316  0.2889
    4MOL   C569 3395   0.785   5.965   6.783 -0.6764  0.5438  0.5171
    4MOL   C570 3396   0.869   5.926   6.908 -1.0509 -0.2105  0.4780
    4MOL   C571 3397   0.933   5.787   6.904  0.7703  0.2291 -0.1873
    4MOL   C572 3398   1.033   5.770   7.023 -0.6760 -0.3871 -0.9682
    4MOL   C573 3399   1.089   5.632   7.035  0.0592  0.1812 -0.6323
    4MOL   C574 3400   1.126   5.595   7.182 -0.0512 -0.0152  0.3712
    4MOL   C575 3401   1.222   5.478   7.193 -0.4990 -0.0284  0.4018
    4MOL   C576 3402   1.246   5.434   7.339  0.9681  0.0275 -0.2384
    4MOL   O577 3403   1.322   5.527   7.406  0.1904  0.1028 -0.2577
    4MOL   C578 3404   1.372   5.503   7.528  0.4840  0.4834  0.6595
    4MOL   O579 3405   1.346   5.405   7.593  0.2133 -0.2601  0.1073
    4MOL   C580 3406   1.478   5.605   7.577 -0.1612 -0.1589  0.5473
    4MOL   C581 3407   1.578   5.559   7.665 -0.2132 -0.3685  0.0695
    4MOL   C582 3408   1.665   5.644   7.724 -0.0439 -0.2352 -0.6635
    4MOL   C583 3409   1.654   5.784   7.703  0.2446  0.7673  0.3065
    4MOL   C584 3410   1.739   5.872   7.784 -0.1654  0.3019  0.0637
    4MOL   O585 3411   1.793   5.844   7.893 -0.2310  0.4215  0.6456
    4MOL   O586 3412   1.738   5.998   7.746 -0.0805 -0.2748  0.3576
    4MOL   C587 3413   1.563   5.834   7.606 -0.3819 -0.2320  0.9507
    4MOL   C588 3414   1.470   5.745   7.543  0.3471  0.1596  0.1787
    4MOL   H589 3415   0.625   6.261   6.874 -0.4052  0.2768  2.6130
    4MOL   H590 3416   0.719   6.160   6.986 -1.3062  1.3599  1.0196
    4MOL   H591 3417   0.829   6.168   6.771  0.4032  0.7047  0.9221
    4MOL   H592 3418   0.679   6.117   6.692  2.2646  2.0422 -0.5488
    4MOL   H593 3419   0.701   5.896   6.783 -0.7337  0.6112  0.0500
    4MOL   H594 3420   0.836   5.943   6.689 -1.0248  0.4071  0.3584
    4MOL   H595 3421   0.810   5.934   6.999  0.8023  1.1036  1.6024
    4MOL   H596 3422   0.947   5.999   6.929 -0.3342 -0.8304  0.0221
    4MOL   H597 3423   0.856   5.710   6.910  1.2722 -0.1419  1.9566
    4MOL   H598 3424   0.985   5.767   6.811  1.6020  0.6030  0.1896
    4MOL   H599 3425   1.122   5.834   7.020  0.7400 -2.3334 -1.3832
    4MOL   H600 3426   0.982   5.791   7.117 -0.5161  1.3490 -1.2541
    4MOL   H601 3427   1.014   5.563   6.994 -1.8928  0.9492  1.5233
    4MOL   H602 3428   1.176   5.631   6.970  1.9664  1.6128  1.8053
    4MOL   H603 3429   1.163   5.682   7.237  2.3876 -0.1844 -0.9453
    4MOL   H604 3430   1.034   5.574   7.236 -0.6844  0.9845 -0.2975
    4MOL   H605 3431   1.317   5.504   7.145  0.4026 -2.3818  0.8423
    4MOL   H606 3432   1.171   5.403   7.132  1.1989 -0.5184 -0.4462
    4MOL   H607 3433   1.292   5.335   7.346  0.1359 -0.4139 -0.9192
    4MOL   H608 3434   1.147   5.441   7.385  0.8272 -0.4044 -0.4780
    4MOL   H609 3435   1.586   5.452   7.679 -1.0399 -0.8847 -2.9324
    4MOL   H610 3436   1.733   5.604   7.798  0.0138 -0.5759 -0.8990
    4MOL   H611 3437   1.554   5.938   7.579  0.6693 -0.9620 -2.5094
    4MOL   H612 3438   1.407   5.791   7.468  0.2146 -1.9241 -1.0253
    4MOL   O613 3439   1.840   6.083   7.822  0.3240 -0.5397  0.0912
    4MOL   C614 3440   1.953   6.102   7.739  0.1732  0.8416 -0.1374
    4MOL   C615 3441   2.074   6.153   7.823 -0.7031  0.4605  0.2648
    4MOL   C616 3442   2.131   6.046   7.912  0.4690 -0.2248  0.1171
    4MOL   C617 3443   2.247   6.096   0.015  0.1179 -0.4333 -0.5879
    4MOL   C618 3444   2.333   5.988   0.081  0.2522  0.5153  0.2038
    4MOL   C619 3445   2.267   5.874   0.160  0.3098  0.0388 -0.3162
    4MOL   C620 3446   2.366   5.763   0.204  1.1728  0.4304 -0.2990
    4MOL   C621 3447   2.303   5.659   0.292 -0.1613  0.2457 -0.4377
    4MOL   C622 3448   2.255   5.690   0.439  0.2173 -0.0598 -0.1870
    4MOL   C623 3449   2.380   5.694   0.527 -0.0675 -0.7098  0.0461
    4MOL   O624 3450   2.358   5.654   0.663 -0.5494  0.3662 -0.3325
    4MOL   C625 3451   2.315   5.753   0.748 -0.0272 -0.0307  0.2812
    4MOL   O626 3452   2.284   5.864   0.705  0.0176  0.3896 -0.1781
    4MOL   C627 3453   2.315   5.710   0.891 -0.1866  0.2056 -0.1398
    4MOL   C628 3454   2.361   5.582   0.932  0.0253  0.2475 -0.7664
    4MOL   C629 3455   2.339   5.533   1.064  0.7209  0.2531  0.1809
    4MOL   C630 3456   2.274   5.619   1.154  0.5980  0.0553  0.2522
    4MOL   C631 3457   2.235   5.555   1.281 -0.7092 -0.3970 -0.7391
    4MOL   O632 3458   2.274   5.436   1.311 -0.2320  0.7494 -0.2574
    4MOL   O633 3459   2.149   5.626   1.353  0.6165 -0.4710  0.3373
    4MOL   C634 3460   2.243   5.750   1.116 -0.1246 -0.1038 -0.7122
    4MOL   C635 3461   2.264   5.799   0.987  0.2802 -0.3505  0.3598
    4MOL   H636 3462   1.974   6.010   7.686  1.4789 -1.5003  4.2538
    4MOL   H637 3463   1.921   6.175   7.664  0.1296  1.1956  0.2200
    4MOL   H638 3464   2.054   6.244   7.879 -0.7835  0.0592  0.8963
    4MOL   H639 3465   2.155   6.191   7.759  1.0871 -0.4404  1.9440
    4MOL   H640 3466   2.062   6.002   0.006 -0.7272  1.3212 -0.0570
    4MOL   H641 3467   2.166   5.958   7.858 -0.1115 -0.0853 -0.4858
    4MOL   H642 3468   2.216   6.166   0.092  2.1020  1.0839 -1.1444
    4MOL   H643 3469   2.312   6.155   7.929 -0.1113  0.5439  0.0712
    4MOL   H644 3470   2.389   5.952   7.974 -0.4124 -1.1493  0.4611
    4MOL   H645 3471   2.409   6.044   0.135  1.9353 -1.4610 -0.0665
    4MOL   H646 3472   2.209   5.910   0.245  3.4525  0.7554  1.5822
    4MOL   H647 3473   2.191   5.831   0.095 -0.5201  1.1132 -0.0711
    4MOL   H648 3474   2.394   5.711   0.113 -0.0388 -0.8857  0.0643
    4MOL   H649 3475   2.449   5.818   0.247  1.5616 -0.0915 -0.3883
    4MOL   H650 3476   2.215   5.615   0.244 -1.0295  0.7474  0.6730
    4MOL   H651 3477   2.376   5.578   0.287 -0.1448  0.3212 -1.4595
    4MOL   H652 3478   2.195   5.608   0.478  0.8141 -1.6881 -2.5414
    4MOL   H653 3479   2.207   5.788   0.442  0.0798 -0.1286 -0.1506
    4MOL   H654 3480   2.435   5.788   0.520 -0.4403 -0.5261 -0.4582
    4MOL   H655 3481   2.452   5.626   0.482  0.0090 -0.4971 -0.1565
    4MOL   H656 3482   2.409   5.505   0.873 -0.6559 -1.7233  1.1840
    4MOL   H657 3483   2.365   5.434   1.099 -0.2284  0.9516  3.0250
    4MOL   H658 3484   2.197   5.820   1.184 -0.5793  0.4447 -1.5790
    4MOL   H659 3485   2.235   5.899   0.955 -2.6119 -1.3897 -0.4563
    4MOL   O660 3486   2.108   5.550   1.487  0.5987 -0.1754 -0.3630
    4MOL   C661 3487   1.969   5.521   1.474 -0.1175 -0.5220  0.0530
    4MOL   C662 3488   1.907   5.440   1.581  0.3493 -0.3734 -0.1954
    4MOL   C663 3489   1.758   5.423   1.555 -0.7771 -0.6270  0.8017
    4MOL   C664 3490   1.705   5.347   1.674  0.2987 -0.0632 -0.0638
    4MOL   C665 3491   1.566   5.286   1.658  0.3832 -0.2369  0.5053
    4MOL   C666 3492   1.521   5.182   1.765 -0.3024  0.2087  0.3007
    4MOL   C667 3493   1.420   5.092   1.701 -0.6961 -1.0705  0.0057
    4MOL   C668 3494   1.347   5.008   1.803  0.7930 -0.7381  0.2446
    4MOL   C669 3495   1.225   4.943   1.748 -0.7947  0.4010  0.1507
    4MOL   C670 3496   1.245   4.840   1.645 -0.2088  0.1311  0.1880
    4MOL   O671 3497   1.117   4.795   1.614 -0.5196  0.4538 -0.3979
    4MOL   C672 3498   1.113   4.698   1.524 -0.0066 -0.3080 -0.7900
    4MOL   O673 3499   1.201   4.684   1.434 -0.2221 -0.4989 -0.5771
    4MOL   C674 3500   1.006   4.596   1.545 -0.4233  0.3384  0.1808
    4MOL   C675 3501   1.010   4.484   1.461  0.2390  0.0205  0.4409
    4MOL   C676 3502   0.913   4.372   1.475 -0.6997 -0.0873  0.0672
    4MOL   C677 3503   0.813   4.378   1.576 -0.1636  0.1830 -0.5814
    4MOL   C678 3504   0.715   4.271   1.607 -0.0835  0.2723  0.1914
    4MOL   O679 3505   0.619   4.288   1.681  0.5257 -0.2036  0.6777
    4MOL   O680 3506   0.729   4.160   1.538  0.3071  0.1096  0.2549
    4MOL   C681 3507   0.812   4.489   1.658  0.4558  0.0521  0.2382
    4MOL   C682 3508   0.905   4.599   1.642 -0.2096 -0.5681  0.1465
    4MOL   H683 3509   1.941   5.627   1.466 -1.7262 -1.0343 -1.2830
    4MOL   H684 3510   1.948   5.470   1.380 -0.5118  0.5897 -0.4802
    4MOL   H685 3511   1.932   5.497   1.671  1.0417  0.8540 -1.1341
    4MOL   H686 3512   1.951   5.341   1.582  0.4048 -0.3473  0.1083
    4MOL   H687 3513   1.705   5.519   1.554  1.4199  0.6222  0.0099
    4MOL   H688 3514   1.729   5.374   1.462 -0.2609  0.3244  0.1302
    4MOL   H689 3515   1.702   5.423   1.753 -1.0114  0.6883 -0.8239
    4MOL   H690 3516   1.776   5.268   1.697 -1.8854 -1.6736  1.3224
    4MOL   H691 3517   1.493   5.364   1.636  1.7753  0.3830 -2.1034
    4MOL   H692 3518   1.583   5.236   1.563 -3.1080  0.3472 -0.4925
    4MOL   H693 3519   1.611   5.136   1.807  0.8712  2.6332  0.4836
    4MOL   H694 3520   1.484   5.228   1.857 -1.8314 -1.2514  0.4661
    4MOL   H695 3521   1.346   5.155   1.651  0.2604  2.1292  2.4933
    4MOL   H696 3522   1.451   5.024   1.621 -0.3835  2.3673 -2.9542
    4MOL   H697 3523   1.411   4.930   1.844 -1.0415 -1.2308  2.2443
    4MOL   H698 3524   1.320   5.069   1.889 -0.4166 -0.1203 -0.5666
    4MOL   H699 3525   1.169   5.024   1.702 -0.3285  1.2006  0.9632
    4MOL   H700 3526   1.171   4.900   1.833 -1.0045 -0.0033 -0.1853
    4MOL   H701 3527   1.318   4.769   1.683 -0.5861  0.5960  1.8406
    4MOL   H702 3528   1.292   4.886   1.558  0.1424 -0.6960 -0.0582
    4MOL   H703 3529   1.089   4.480   1.387 -1.6604  1.2569 -1.7106
    4MOL   H704 3530   0.918   4.283   1.413 -1.3264  0.4019 -0.6996
    4MOL   H705 3531   0.750   4.492   1.747  0.1644  0.1213  0.0358
    4MOL   H706 3532   0.905   4.680   1.713 -0.6577 -1.5975  1.3340
    4MOL   O707 3533   0.607   4.070   1.529 -0.3797  0.0891  0.2782
    4MOL   C708 3534   0.525   4.111   1.420 -0.6508 -0.2128 -0.2677
    4MOL   C709 3535   0.399   4.021   1.407 -0.1444  0.3904  0.0796
    4MOL   C710 3536   0.291   4.099   1.326  0.4884 -0.7131  0.1824
    4MOL   C711 3537   0.148   4.043   1.347 -0.1664  0.0586 -0.0446
    4MOL   C712 3538   0.036   4.131   1.294 -0.0019  0.2433 -0.5464
    4MOL   C713 3539   7.877   4.086   1.326 -0.0402 -0.2043  0.0862
    4MOL   C714 3540   7.778   4.183   1.268 -0.0330 -0.4357 -0.0774
    4MOL   C715 3541   7.628   4.159   1.301 -0.3110 -0.2835  0.4096
    4MOL   C716 3542   7.536   4.277   1.265  0.8871 -0.2701 -0.3617
    4MOL   C717 3543   7.408   4.266   1.337  0.1682  0.0553 -0.1881
    4MOL   O718 3544   7.327   4.156   1.290 -0.0995 -0.2981  0.0112
    4MOL   C719 3545   7.308   4.043   1.367 -0.1077 -0.3331 -0.3295
    4MOL   O720 3546   7.355   4.023   1.478  0.1585  0.5649  0.2225
    4MOL   C721 3547   7.225   3.945   1.300 -0.6130 -0.1270 -0.2844
    4MOL   C722 3548   7.203   3.961   1.161  0.0998  0.5815 -0.2287
    4MOL   C723 3549   7.124   3.873   1.082  0.1723 -0.3904  0.0588
    4MOL   C724 3550   7.067   3.762   1.145  1.1730  0.4189 -0.4635
    4MOL   C725 3551   6.996   3.656   1.059 -0.2837  0.2239 -0.6394
    4MOL   O726 3552   6.926   3.572   1.115 -0.0045 -0.1366 -0.2732
    4MOL   O727 3553   6.996   3.661   0.925 -0.5142  0.2820  0.3005
    4MOL   C728 3554   7.095   3.739   1.280 -0.2011 -0.6213  0.0070
    4MOL   C729 3555   7.165   3.831   1.361 -0.0128  0.6433 -0.2908
    4MOL   H730 3556   0.499   4.216   1.437  1.3269  0.2845 -0.2201
    4MOL   H731 3557   0.576   4.104   1.324 -0.6957 -3.8842 -0.0796
    4MOL   H732 3558   0.378   3.994   1.510 -0.2192 -0.1218 -0.0663
    4MOL   H733 3559   0.436   3.926   1.366  3.7389  2.3796 -1.3151
    4MOL   H734 3560   0.292   4.202   1.362  1.0874 -0.4801 -0.4986
    4MOL   H735 3561   0.316   4.108   1.220  0.6724  0.3844  0.3176
    4MOL   H736 3562   0.138   4.030   1.455  3.1294  0.1147  0.3182
    4MOL   H737 3563   0.139   3.942   1.308  0.1473  0.8817 -2.3171
    4MOL   H738 3564   0.053   4.234   1.324  0.1157  0.2360 -0.5919
    4MOL   H739 3565   0.041   4.135   1.185  1.6580 -1.5098 -0.5703
    4MOL   H740 3566   7.860   3.981   1.300 -0.8890  0.0406 -0.3558
    4MOL   H741 3567   7.860   4.080   1.433 -3.6031 -1.1793 -0.4574
    4MOL   H742 3568   7.802   4.286   1.293 -0.2079 -0.4913  0.3317
    4MOL   H743 3569   7.796   4.186   1.160 -2.2277 -1.6259 -0.5160
    4MOL   H744 3570   7.596   4.067   1.252  2.7565 -0.6288 -1.0772
    4MOL   H745 3571   7.616   4.138   1.407 -2.0834 -0.6948  0.1344
    4MOL   H746 3572   7.527   4.275   1.157  3.2496 -2.6404 -0.5544
    4MOL   H747 3573   7.587   4.368   1.298  0.3383  0.4890 -1.5721
    4MOL   H748 3574   7.353   4.357   1.315 -0.1407 -0.5295 -1.8840
    4MOL   H749 3575   7.433   4.276   1.443  1.9243 -0.3628 -0.5422
    4MOL   H750 3576   7.250   4.040   1.105 -1.0320  2.8087  1.8641
    4MOL   H751 3577   7.128   3.879   0.974  2.7168 -0.3275  0.1367
    4MOL   H752 3578   7.060   3.651   1.331 -1.8393  0.3334  0.6038
    4MOL   H753 3579   7.172   3.817   1.468  0.1750 -1.9370 -0.6154
    4MOL   O754 3580   6.932   3.539   0.862 -0.1033  0.2837  0.0723
    4MOL   C755 3581   6.841   3.585   0.764  0.2338  0.6619  1.2573
    4MOL   C756 3582   6.772   3.467   0.684 -0.1128  0.3504  0.1723
    4MOL   C757 3583   6.668   3.516   0.595 -0.6541  0.0924 -0.1786
    4MOL   C758 3584   6.636   3.406   0.495 -0.4902  0.2845 -0.2565
    4MOL   C759 3585   6.527   3.446   0.396  0.4561 -0.1137  0.5335
    4MOL   C760 3586   6.570   3.540   0.280  0.1258 -0.3771  0.4243
    4MOL   C761 3587   6.549   3.685   0.318 -0.9804 -0.2916  0.5520
    4MOL   C762 3588   6.651   3.785   0.246  0.2518  0.0477 -0.1637
    4MOL   C763 3589   6.789   3.790   0.311  0.1042 -0.0728 -0.4185
    4MOL   C764 3590   6.879   3.892   0.239  0.2406  0.2631  1.0305
    4MOL   O765 3591   6.960   3.965   0.330  0.2055  0.3768 -0.4701
    4MOL   C766 3592   7.093   3.962   0.325  0.1759 -0.0734 -0.4617
    4MOL   O767 3593   7.162   3.914   0.234  0.5349  0.1854  0.5281
    4MOL   C768 3594   7.153   4.027   0.438  0.4715 -0.6148 -0.2220
    4MOL   C769 3595   7.085   4.029   0.558  0.6152  0.3320 -0.4699
    4MOL   C770 3596   7.140   4.093   0.669 -0.2184 -0.8769  0.4447
    4MOL   C771 3597   7.270   4.153   0.670 -0.9997 -0.3679 -0.1578
    4MOL   C772 3598   7.313   4.226   0.788  0.3464 -0.3656 -0.3483
    4MOL   O773 3599   7.242   4.279   0.875  0.0985  0.6531 -0.5739
    4MOL   O774 3600   7.446   4.248   0.779  0.1020  0.1566  0.1735
    4MOL   C775 3601   7.343   4.142   0.548 -0.5658 -0.0926  0.5180
    4MOL   C776 3602   7.283   4.080   0.435  0.0661 -0.2270 -0.3068
    4MOL   H777 3603   6.761   3.644   0.809  0.3122  2.6600 -1.1065
    4MOL   H778 3604   6.887   3.659   0.698  0.6617 -0.9002 -0.2610
    4MOL   H779 3605   6.719   3.412   0.761  0.9112 -0.7241  0.1234
    4MOL   H780 3606   6.844   3.399   0.637 -0.5035  2.0059 -2.9727
    4MOL   H781 3607   6.580   3.555   0.647  1.0288  0.6634  2.3595
    4MOL   H782 3608   6.714   3.594   0.535 -1.4128  0.6583 -0.0332
    4MOL   H783 3609   6.605   3.316   0.549  1.0943 -0.1945 -0.1088
    4MOL   H784 3610   6.729   3.385   0.443 -1.4252 -0.9506 -1.4526
    4MOL   H785 3611   6.497   3.350   0.354 -1.4301  0.9990 -0.7003
    4MOL   H786 3612   6.432   3.474   0.442 -0.2020  1.8494 -1.8839
    4MOL   H787 3613   6.668   3.507   0.248  1.2238  2.2318  0.9993
    4MOL   H788 3614   6.510   3.524   0.190  0.9063 -1.3690  0.0684
    4MOL   H789 3615   6.450   3.709   0.280 -0.7872 -1.5052 -0.7534
    4MOL   H790 3616   6.524   3.715   0.420 -0.5747  1.1284  0.2491
    4MOL   H791 3617   6.646   3.763   0.140  0.5165  1.1739 -0.4139
    4MOL   H792 3618   6.599   3.881   0.249  0.1150  0.0577 -2.3063
    4MOL   H793 3619   6.854   3.702   0.313  1.7593  1.1101 -1.5244
    4MOL   H794 3620   6.779   3.840   0.407  0.3185  1.3726 -1.1499
    4MOL   H795 3621   6.803   3.964   0.209  0.0305 -0.8934 -1.3045
    4MOL   H796 3622   6.940   3.862   0.153  2.8206 -1.2108  3.3064
    4MOL   H797 3623   6.987   3.988   0.574  0.1356  1.7138  0.1684
    4MOL   H798 3624   7.088   4.113   0.761  1.1164  1.0226  0.8054
    4MOL   H799 3625   7.446   4.170   0.531 -0.8783 -0.4746 -2.2131
    4MOL   H800 3626   7.343   4.071   0.346  0.5267 -0.9259  0.0717
    4MOL   O801 3627   7.507   4.322   0.895  0.0903  0.5116 -0.1956
    4MOL   C802 3628   7.545   4.446   0.854  0.1631  0.2611  0.1967
    4MOL   C803 3629   7.694   4.445   0.804  0.0464  0.3596  0.1385
    4MOL   C804 3630   7.790   4.402   0.910 -0.0315  0.0058 -0.4243
    4MOL   C805 3631   7.940   4.413   0.853 -0.5580 -0.2162  0.5827
    4MOL   C806 3632   0.059   4.351   0.951  1.0338  0.0809  0.3359
    4MOL   C807 3633   0.201   4.403   0.905 -0.1750  0.4850  0.1470
    4MOL   C808 3634   0.311   4.356   0.997 -0.0990 -0.0717  0.8390
    4MOL   C809 3635   0.449   4.424   0.965  0.2670 -0.1391 -0.2666
    4MOL   C810 3636   0.504   4.383   0.824 -0.6455 -0.3632  0.5998
    4MOL   C811 3637   0.630   4.455   0.794  0.0625 -0.6557  0.2007
    4MOL   O812 3638   0.732   4.391   0.877  0.5095  0.0909 -0.4433
    4MOL   C813 3639   0.842   4.459   0.913 -0.1093  0.1228  0.0229
    4MOL   O814 3640   0.864   4.568   0.863 -0.7195 -1.0460 -0.0327
    4MOL   C815 3641   0.932   4.389   1.009 -0.7713 -0.6976  0.0201
    4MOL   C816 3642   1.053   4.455   1.055  0.8856  0.1352 -0.3905
    4MOL   C817 3643   1.138   4.391   1.149 -0.2790  0.9864 -1.0133
    4MOL   C818 3644   1.113   4.255   1.186 -0.8363  0.5001 -0.2302
    4MOL   C819 3645   1.199   4.187   1.288  0.0271  0.1856 -0.0083
    4MOL   O820 3646   1.168   4.085   1.345 -0.0104  0.8845  0.3766
    4MOL   O821 3647   1.313   4.253   1.321  0.4930  0.8794  0.0421
    4MOL   C822 3648   1.004   4.186   1.135 -0.0438  0.3398 -0.0242
    4MOL   C823 3649   0.906   4.256   1.054  0.3188  0.3234 -0.0661
    4MOL   H824 3650   7.477   4.494   0.784 -1.7521  1.0146  2.5349
    4MOL   H825 3651   7.533   4.503   0.946 -3.7275  1.9329 -1.2270
    4MOL   H826 3652   7.718   4.544   0.765  2.0933  0.3552  1.3040
    4MOL   H827 3653   7.705   4.380   0.717  0.8035 -3.2869  2.8200
    4MOL   H828 3654   7.781   4.470   0.994 -0.8147 -1.0286  0.3393
    4MOL   H829 3655   7.775   4.300   0.944  0.6650 -0.1816 -0.6598
    4MOL   H830 3656   7.949   4.520   0.835  0.8658 -0.4714 -0.2971
    4MOL   H831 3657   7.945   4.369   0.753  0.4649  1.7567 -0.2511
    4MOL   H832 3658   0.034   4.374   1.055 -2.6538  1.3262 -0.7567
    4MOL   H833 3659   0.046   4.243   0.948 -1.7918  0.4261 -1.4769
    4MOL   H834 3660   0.224   4.374   0.803 -1.4422  1.8227 -0.5402
    4MOL   H835 3661   0.209   4.511   0.917 -1.3499  0.7264 -1.1090
    4MOL   H836 3662   0.277   4.380   1.098 -1.8740  0.2442  0.1834
    4MOL   H837 3663   0.335   4.251   0.982  2.2084  0.7471 -1.3968
    4MOL   H838 3664   0.441   4.532   0.975 -2.6512 -0.2869 -0.5923
    4MOL   H839 3665   0.521   4.392   1.040  0.4490  1.0200  0.0648
    4MOL   H840 3666   0.436   4.408   0.743  0.7244 -1.8168 -1.0507
    4MOL   H841 3667   0.503   4.274   0.825 -1.2187 -0.3593  1.5799
    4MOL   H842 3668   0.627   4.559   0.827  0.8930 -0.0230 -1.6607
    4MOL   H843 3669   0.661   4.450   0.690  0.7180 -2.0754  0.4527
    4MOL   H844 3670   1.063   4.562   1.046 -0.3069  0.2939  0.0856
    4MOL   H845 3671   1.228   4.440   1.183 -0.6006  1.1931 -0.4367
    4MOL   H846 3672   0.993   4.082   1.159  0.3551  0.3770  0.3109
    4MOL   H847 3673   0.810   4.217   1.023 -0.4495  1.8770  0.3074
    4MOL   O848 3674   1.418   4.174   1.394  0.5047 -0.4044  0.1214
    4MOL   C849 3675   1.396   4.185   1.533 -0.4489 -0.2336 -0.5583
    4MOL   C850 3676   1.453   4.314   1.578  0.1329 -0.1214  0.0915
    4MOL   C851 3677   1.602   4.328   1.563 -0.0676 -0.7248 -0.4016
    4MOL   C852 3678   1.646   4.469   1.615 -0.3156 -0.2909  0.0701
    4MOL   C853 3679   1.607   4.601   1.544  0.1417 -0.2190  0.2604
    4MOL   C854 3680   1.639   4.729   1.625  0.5661  0.2898 -0.1014
    4MOL   C855 3681   1.783   4.770   1.614 -0.5669 -0.4273 -0.1902
    4MOL   C856 3682   1.817   4.905   1.684  0.1316  0.3721 -0.0796
    4MOL   C857 3683   1.956   4.957   1.659  0.0608  0.1991  0.1456
    4MOL   C858 3684   2.072   4.876   1.719  0.6999  0.2209 -0.5644
    4MOL   O859 3685   2.090   4.758   1.641  0.4695  0.2500 -0.2625
    4MOL   C860 3686   2.200   4.731   1.570  0.0067  0.1745 -0.4195
    4MOL   O861 3687   2.302   4.797   1.574 -0.2934 -0.4600 -0.0506
    4MOL   C862 3688   2.179   4.604   1.493  0.2413 -0.2376  0.1086
    4MOL   C863 3689   2.047   4.547   1.478  0.0745 -0.3266  0.5773
    4MOL   C864 3690   2.026   4.426   1.409  0.1654 -0.1503 -0.0291
    4MOL   C865 3691   2.140   4.353   1.365  0.7280  0.3207  0.1651
    4MOL   C866 3692   2.115   4.221   1.303 -0.3454  0.2297  0.9340
    4MOL   O867 3693   2.004   4.192   1.250 -0.1839  0.2832 -0.2344
    4MOL   O868 3694   2.224   4.147   1.309  0.6631  0.6185 -0.0141
    4MOL   C869 3695   2.263   4.414   1.369 -0.3400  0.0520  0.5994
    4MOL   C870 3696   2.287   4.537   1.432  0.2878 -0.4990 -0.3371
    4MOL   H871 3697   1.290   4.173   1.556 -0.1835  0.2851  1.0319
    4MOL   H872 3698   1.446   4.100   1.580  1.0163  0.0085 -1.6347
    4MOL   H873 3699   1.426   4.327   1.682  2.1888 -1.2360  0.7844
    4MOL   H874 3700   1.403   4.397   1.527  2.2752  1.6724  0.8579
    4MOL   H875 3701   1.663   4.248   1.606 -0.3178 -0.5340  0.3148
    4MOL   H876 3702   1.636   4.342   1.460 -0.2578  0.8572 -0.2715
    4MOL   H877 3703   1.753   4.477   1.633 -0.3141 -0.8249  0.2964
    4MOL   H878 3704   1.607   4.473   1.716  1.0299 -0.3707  0.5989
    4MOL   H879 3705   1.665   4.609   1.452 -0.4892 -0.9405 -0.2032
    4MOL   H880 3706   1.505   4.602   1.506  0.4741  1.2012 -0.6283
    4MOL   H881 3707   1.571   4.802   1.582 -0.9754 -1.3908 -0.5691
    4MOL   H882 3708   1.600   4.709   1.724  0.2139 -1.3801 -0.5560
    4MOL   H883 3709   1.843   4.703   1.677  0.6941  0.8297 -0.0369
    4MOL   H884 3710   1.824   4.772   1.513  1.4548  0.6010  0.6084
    4MOL   H885 3711   1.744   4.980   1.654 -0.6571 -0.5086 -0.3521
    4MOL   H886 3712   1.805   4.906   1.793 -0.5015 -0.3536 -0.1454
    4MOL   H887 3713   1.963   5.059   1.696 -1.6762  0.2951  0.2288
    4MOL   H888 3714   1.971   4.968   1.552 -2.7949 -1.6356 -0.4932
    4MOL   H889 3715   2.042   4.842   1.818  2.2478 -2.2093 -0.8898
    4MOL   H890 3716   2.165   4.934   1.724 -0.7485  2.6070 -0.3382
    4MOL   H891 3717   1.964   4.604   1.517  0.3805  0.0369  0.6983
    4MOL   H892 3718   1.924   4.395   1.391 -0.1422  1.3844 -1.0624
    4MOL   H893 3719   2.355   4.364   1.343 -0.3541  0.3551 -0.0394
    4MOL   H894 3720   2.387   4.578   1.422 -0.2726  0.9012 -0.2355
    4MOL   O895 3721   2.211   4.020   1.228 -0.1773 -0.4425 -0.3350
    4MOL   C896 3722   2.175   3.923   1.323  0.7965 -0.2147 -0.3070
    4MOL   C897 3723   2.127   3.798   1.249 -0.0572  0.3573 -0.4935
    4MOL   C898 3724   2.001   3.813   1.163  1.1995  0.8443  0.2169
    4MOL   C899 3725   1.952   3.686   1.085 -0.3265  0.4710 -0.1936
    4MOL   C900 3726   1.817   3.705   1.018  0.0502 -0.2159  0.5841
    4MOL   C901 3727   1.746   3.588   0.946  0.4961 -0.1880 -0.0133
    4MOL   C902 3728   1.613   3.634   0.877  0.0030 -0.2854  0.2369
    4MOL   C903 3729   1.643   3.725   0.764 -0.2879 -0.6779 -0.2075
    4MOL   C904 3730   1.517   3.771   0.696 -0.6443 -0.8291  0.2354
    4MOL   C905 3731   1.535   3.884   0.604 -0.4418 -0.4419 -0.2794
    4MOL   O906 3732   1.415   3.918   0.539 -0.3471  0.0548  0.5812
    4MOL   C907 3733   1.412   4.016   0.450 -0.8044 -0.3605 -0.3825
    4MOL   O908 3734   1.506   4.084   0.419  0.4312 -0.3900 -0.4154
    4MOL   C909 3735   1.272   4.031   0.392  0.5015  0.8535 -0.5122
    4MOL   C910 3736   1.255   4.127   0.287 -0.6766 -0.4281  0.4413
    4MOL   C911 3737   1.129   4.147   0.233 -0.5280  0.7506 -0.2606
    4MOL   C912 3738   1.016   4.070   0.274 -0.1681  0.5449 -0.0692
    4MOL   C913 3739   0.882   4.092   0.214  0.0137  0.6795 -0.0073
    4MOL   O914 3740   0.859   4.145   0.103 -0.1113  0.2254 -0.3867
    4MOL   O915 3741   0.785   4.038   0.291  0.3468 -0.5480  0.0793
    4MOL   C916 3742   1.039   3.978   0.379  0.7323  0.1798  0.4646
    4MOL   C917 3743   1.165   3.957   0.435 -0.1841 -0.0478  0.7423
    4MOL   H918 3744   2.268   3.899   1.374  0.4677  0.3472  0.5698
    4MOL   H919 3745   2.097   3.954   1.392  2.5477  2.0878  0.7163
    4MOL   H920 3746   2.111   3.717   1.320  0.4372 -0.1208 -0.9264
    4MOL   H921 3747   2.213   3.767   1.190  1.6633  1.2906  1.4185
    4MOL   H922 3748   1.930   3.858   1.233 -0.4065 -1.4642  0.1308
    4MOL   H923 3749   2.025   3.887   1.086 -1.3753  1.4941 -0.0272
    4MOL   H924 3750   1.958   3.596   1.145  0.8773  0.8353  0.2599
    4MOL   H925 3751   2.023   3.664   1.005 -0.8371  0.0068 -0.5241
    4MOL   H926 3752   1.753   3.745   1.097 -1.3586  1.8110 -1.5386
    4MOL   H927 3753   1.824   3.785   0.945  0.7770 -0.3686  0.4850
    4MOL   H928 3754   1.806   3.534   0.871  0.2731 -1.8092  0.9459
    4MOL   H929 3755   1.724   3.512   1.021 -0.8856  0.1275 -0.0911
    4MOL   H930 3756   1.564   3.546   0.835 -0.8504 -0.4482  1.5196
    4MOL   H931 3757   1.550   3.665   0.961  1.1909  1.0278  0.6519
    4MOL   H932 3758   1.701   3.815   0.784 -1.2076 -0.4059  1.2516
    4MOL   H933 3759   1.702   3.671   0.689  1.2518  2.1859 -1.1538
    4MOL   H934 3760   1.441   3.793   0.772  0.4916  0.6523  0.9551
    4MOL   H935 3761   1.482   3.693   0.627 -1.0362 -1.4238  1.0961
    4MOL   H936 3762   1.617   3.867   0.534 -0.3118 -1.4473  0.1018
    4MOL   H937 3763   1.550   3.978   0.658  1.6604 -0.4812 -0.7455
    4MOL   H938 3764   1.346   4.172   0.250 -2.1996  1.4316 -1.1177
    4MOL   H939 3765   1.114   4.217   0.152 -0.8333  2.5648  1.3287
    4MOL   H940 3766   0.961   3.923   0.429  1.3541 -0.6805  0.4976
    4MOL   H941 3767   1.175   3.887   0.517 -0.6741 -1.4180 -0.3384
    4MOL   H942 3768   0.702   4.063   0.253  0.4737 -1.0674 -0.5365
    5MOL     O1 3769   2.821   7.584   4.283  0.4454 -0.2523  0.0198
    5MOL     C2 3770   2.893   7.693   4.255  0.2340 -0.0754 -0.6229
    5MOL     C3 3771   3.045   7.660   4.257  0.1758 -0.2682  0.2725
    5MOL     C4 3772   3.145   7.773   4.241  0.0459  0.1901 -0.1181
    5MOL     C5 3773   3.183   7.797   4.090  0.2296 -0.2233 -0.3041
    5MOL     C6 3774   3.279   7.917   4.091 -0.2363 -0.6632 -0.6537
    5MOL     C7 3775   3.360   7.928   3.954 -0.5674  0.0145 -0.0372
    5MOL     C8 3776   3.469   0.062   3.967 -0.0565  0.9300 -0.2533
    5MOL     C9 3777   3.566   0.063   3.854 -0.0998 -0.3371 -0.0602
    5MOL    C10 3778   3.513   0.131   3.726 -0.0202  0.4227  0.2294
    5MOL    C11 3779   3.617   0.107   3.616  0.2112 -0.1715  0.0422
    5MOL    O12 3780   3.752   0.140   3.657 -0.4499  0.1712  0.1453
    5MOL    C13 3781   3.792   0.263   3.640 -0.2615 -0.3583  0.6110
    5MOL    O14 3782   3.716   0.358   3.604  0.1748 -0.5458  0.5090
    5MOL    C15 3783   3.944   0.275   3.651 -0.4984 -0.0606 -0.6462
    5MOL    C16 3784   4.028   0.167   3.688 -0.3182 -0.9110  0.0252
    5MOL    C17 3785   4.166   0.179   3.671 -0.2561 -0.2512 -0.4551
    5MOL    C18 3786   4.232   0.305   3.646 -0.0557  0.4599 -0.0644
    5MOL    C19 3787   4.380   0.316   3.654  0.4558 -0.2186 -0.0049
    5MOL    O20 3788   4.441   0.208   3.675  0.0679 -0.1722 -0.2012
    5MOL    O21 3789   4.439   0.439   3.636  0.0398 -0.4475 -0.0802
    5MOL    C22 3790   4.146   0.424   3.636 -0.0598  0.1736  0.0186
    5MOL    C23 3791   4.006   0.403   3.628 -0.3472  0.1399  0.5238
    5MOL    H24 3792   2.878   7.726   4.152 -1.2977 -0.0470 -0.3906
    5MOL    H25 3793   2.865   7.770   4.326 -0.0425 -1.3749  0.6995
    5MOL    H26 3794   3.075   7.577   4.193  0.5403 -0.3683  0.5711
    5MOL    H27 3795   3.058   7.609   4.352  1.3648 -0.2233  0.1349
    5MOL    H28 3796   3.105   7.866   4.281  0.1759  0.3213 -0.2958
    5MOL    H29 3797   3.232   7.755   4.304 -1.3526 -1.2501  1.4563
    5MOL    H30 3798   3.098   7.830   4.031 -0.2305  0.3018  0.6563
    5MOL    H31 3799   3.229   7.709   4.044 -0.0799 -0.0101 -1.0225
    5MOL    H32 3800   3.215   0.028   4.099 -1.0569 -1.2973 -0.0922
    5MOL    H33 3801   3.334   7.918   4.184 -2.4605  0.2842  0.7023
    5MOL    H34 3802   3.402   7.828   3.941  0.5405  0.6515 -1.4729
    5MOL    H35 3803   3.296   7.947   3.868 -2.1580 -0.9779  0.9004
    5MOL    H36 3804   3.425   0.159   3.991 -0.8378  0.4511  0.2890
    5MOL    H37 3805   3.534   0.047   4.053  0.2522 -0.2190 -0.6729
    5MOL    H38 3806   3.658   0.103   3.899 -0.6104 -0.9611  1.5770
    5MOL    H39 3807   3.585   7.935   3.835 -2.3146 -0.6033 -0.8608
    5MOL    H40 3808   3.508   0.235   3.759  0.2586  0.5369 -0.0920
    5MOL    H41 3809   3.416   0.093   3.695 -0.7371  2.3424  0.0344
    5MOL    H42 3810   3.592   0.153   3.521  0.5139  0.7972  0.4155
    5MOL    H43 3811   3.606   0.003   3.586  1.4299  0.8844 -4.3975
    5MOL    H44 3812   3.972   0.079   3.714 -2.4619  0.0575 -1.1663
    5MOL    H45 3813   4.232   0.095   3.685  1.3799  1.2730  1.2885
    5MOL    H46 3814   4.195   0.520   3.637 -0.4121  0.3594 -0.3821
    5MOL    H47 3815   3.944   0.486   3.597 -2.7550 -2.4868 -1.9899
    5MOL    H48 3816   2.801   7.574   4.375 -0.8751 -3.1116 -0.4968
    5MOL    O49 3817   4.588   0.438   3.645  0.4387  0.0776 -0.5455
    5MOL    C50 3818   4.617   0.484   3.778  0.1461  0.1513 -0.7982
    5MOL    C51 3819   4.601   0.375   3.884  0.2888 -0.0436  0.7209
    5MOL    C52 3820   4.648   0.417   4.023  0.5794 -0.2648  1.2774
    5MOL    C53 3821   4.662   0.307   4.127  0.3885  0.7441  0.2078
    5MOL    C54 3822   4.714   0.351   4.266 -0.2067  0.7306  0.2965
    5MOL    C55 3823   4.842   0.437   4.258 -0.0590  0.1842  0.2903
    5MOL    C56 3824   4.911   0.468   4.395  0.7116 -0.0809  0.0103
    5MOL    C57 3825   5.051   0.548   4.393 -0.3641  0.0197  0.1234
    5MOL    C58 3826   5.107   0.558   4.537  0.7488  0.2842  0.1945
    5MOL    C59 3827   5.249   0.617   4.541 -0.0853  0.3749  0.6813
    5MOL    O60 3828   5.295   0.623   4.673  0.0534  0.4032 -0.1810
    5MOL    C61 3829   5.272   0.729   4.759  0.0818 -0.5121  0.2497
    5MOL    O62 3830   5.195   0.826   4.741 -0.4918  0.0849  0.2522
    5MOL    C63 3831   5.346   0.719   4.889 -0.4774  1.1796  0.2743
    5MOL    C64 3832   5.410   0.594   4.930  0.3901 -0.4074 -0.1214
    5MOL    C65 3833   5.486   0.597   5.051 -0.0980  0.0447 -0.2329
    5MOL    C66 3834   5.493   0.716   5.132 -0.0754  0.4382  0.1530
    5MOL    C67 3835   5.553   0.707   5.266  0.3115  0.3175 -0.3189
    5MOL    O68 3836   5.611   0.611   5.303 -0.1892  0.3045  0.2182
    5MOL    O69 3837   5.530   0.823   5.343 -0.6633  0.0333 -0.1177
    5MOL    C70 3838   5.429   0.833   5.096  0.6482 -0.2588  0.0951
    5MOL    C71 3839   5.357   0.831   4.969 -0.7014 -0.6607 -0.9146
    5MOL    H72 3840   4.718   0.522   3.767 -0.6887  2.2112 -1.5645
    5MOL    H73 3841   4.556   0.568   3.811  1.4959  0.4592  0.9782
    5MOL    H74 3842   4.662   0.294   3.846  2.0664  1.0120  1.2610
    5MOL    H75 3843   4.494   0.362   3.898  0.4568 -1.0642  1.0492
    5MOL    H76 3844   4.748   0.459   4.016 -0.3201  1.7838  0.2773
    5MOL    H77 3845   4.571   0.483   4.063 -0.0565  0.4888 -1.1153
    5MOL    H78 3846   4.729   0.236   4.079 -0.0445  0.4848 -0.0107
    5MOL    H79 3847   4.574   0.245   4.137  1.0447 -0.4024 -1.0028
    5MOL    H80 3848   4.646   0.405   4.332 -0.8880 -0.3374  0.4747
    5MOL    H81 3849   4.735   0.264   4.329 -2.8475  0.8523  1.4142
    5MOL    H82 3850   4.916   0.400   4.187 -1.5455  1.8997 -2.2680
    5MOL    H83 3851   4.816   0.534   4.214 -0.6438 -0.5018 -0.9036
    5MOL    H84 3852   4.839   0.516   4.462 -1.3737 -4.4436  1.0956
    5MOL    H85 3853   4.944   0.369   4.429 -0.5580 -0.3886  0.3947
    5MOL    H86 3854   5.118   0.488   4.331  3.1494  2.0450  1.7873
    5MOL    H87 3855   5.025   0.642   4.344 -0.2497 -1.0744 -2.0824
    5MOL    H88 3856   5.110   0.456   4.573  0.4329  0.1231 -0.2334
    5MOL    H89 3857   5.042   0.614   4.604  0.4146  0.5729 -0.3630
    5MOL    H90 3858   5.242   0.723   4.517  0.0493 -0.5792 -4.1945
    5MOL    H91 3859   5.320   0.570   4.472 -1.8537  0.1164 -1.0014
    5MOL    H92 3860   5.400   0.506   4.868  1.2078 -0.4538 -0.1955
    5MOL    H93 3861   5.533   0.509   5.092  0.9905  1.7730  2.3585
    5MOL    H94 3862   5.432   0.920   5.160 -0.8604 -0.3334  0.2835
    5MOL    H95 3863   5.301   0.920   4.946  0.5401  0.3076 -0.1974
    5MOL    O96 3864   5.600   0.822   5.474 -0.4424 -0.6908 -0.1638
    5MOL    C97 3865   5.731   0.869   5.472 -0.2125 -0.3626 -0.2543
    5MOL    C98 3866   5.729   1.007   5.413 -0.8828  0.0480  0.1983
    5MOL    C99 3867   5.851   1.094   5.452 -0.4388 -0.0588 -0.1449
    5MOL   C100 3868   5.837   1.237   5.405  0.0601 -0.8006  0.7077
    5MOL   C101 3869   5.951   1.331   5.466  0.3022  0.1725  0.0541
    5MOL   C102 3870   5.936   1.478   5.437  0.2804  0.2789  0.2961
    5MOL   C103 3871   6.031   1.538   5.339  0.8164  0.6546  0.1406
    5MOL   C104 3872   6.024   1.482   5.197 -0.1038 -0.1542  0.0780
    5MOL   C105 3873   5.891   1.485   5.126 -0.2341 -0.1136  0.0508
    5MOL   C106 3874   5.879   1.416   4.991  0.2487  0.1021 -0.0729
    5MOL   O107 3875   5.872   1.280   5.001  0.2571 -0.2761 -0.0044
    5MOL   C108 3876   5.768   1.216   4.950  1.0742 -0.1150  0.0408
    5MOL   O109 3877   5.665   1.267   4.902 -0.4911  0.9796  0.3298
    5MOL   C110 3878   5.789   1.067   4.951  0.4362  0.5545 -0.4272
    5MOL   C111 3879   5.704   0.983   4.875 -0.0815 -0.2101 -0.3170
    5MOL   C112 3880   5.725   0.842   4.878 -0.0065  1.1286 -0.2067
    5MOL   C113 3881   5.835   0.784   4.945 -0.6530  0.3335  0.2530
    5MOL   C114 3882   5.859   0.633   4.937  0.5789  0.4447  0.2292
    5MOL   O115 3883   5.826   0.560   4.844  0.0569 -0.1391  0.3922
    5MOL   O116 3884   5.933   0.594   5.040  0.0061  0.2104  0.7207
    5MOL   C117 3885   5.921   0.870   5.018 -0.0039  0.0009 -0.0804
    5MOL   C118 3886   5.897   1.011   5.017 -0.2149  0.4216 -0.1106
    5MOL   H119 3887   5.770   0.866   5.574  0.4546  0.3841 -0.4790
    5MOL   H120 3888   5.805   0.814   5.414 -0.8877 -1.2328 -0.2924
    5MOL   H121 3889   5.639   1.065   5.433  0.3511  2.1674 -0.2995
    5MOL   H122 3890   5.728   0.998   5.304 -0.4941 -0.2982  0.2237
    5MOL   H123 3891   5.856   1.112   5.560 -1.5426  2.1273 -0.4222
    5MOL   H124 3892   5.943   1.045   5.421 -0.0404  0.8013 -0.3324
    5MOL   H125 3893   5.739   1.280   5.425  0.6009  1.6886 -1.6336
    5MOL   H126 3894   5.860   1.244   5.299 -2.1224 -0.2752  0.2485
    5MOL   H127 3895   5.944   1.323   5.574  2.2964  0.7904  0.2390
    5MOL   H128 3896   6.051   1.306   5.432  0.4050  0.6809 -0.0255
    5MOL   H129 3897   5.836   1.499   5.399  0.0164 -2.2441 -0.4523
    5MOL   H130 3898   5.941   1.535   5.530  1.5353 -2.0608  1.7140
    5MOL   H131 3899   6.016   1.646   5.329  0.4987  0.7248  1.3334
    5MOL   H132 3900   6.133   1.525   5.374  0.8557 -2.0461 -0.8798
    5MOL   H133 3901   6.096   1.544   5.144  0.8616  0.8054  2.3986
    5MOL   H134 3902   6.054   1.378   5.194  0.1447 -0.1287  1.1242
    5MOL   H135 3903   5.861   1.589   5.114 -0.4585 -0.0693  0.9739
    5MOL   H136 3904   5.810   1.437   5.181  0.7626 -0.8714  0.8634
    5MOL   H137 3905   5.962   1.445   4.926  0.7946 -0.2958  0.4366
    5MOL   H138 3906   5.795   1.454   4.934 -0.7580  0.8103  1.8415
    5MOL   H139 3907   5.618   1.020   4.823 -0.1095  1.1149  0.6321
    5MOL   H140 3908   5.655   0.774   4.832 -0.5410  1.1688  0.5472
    5MOL   H141 3909   5.997   0.832   5.085  0.3332 -1.1281 -1.0996
    5MOL   H142 3910   5.959   1.074   5.078 -0.9219 -0.5402  1.6440
    5MOL   O143 3911   5.964   0.451   5.058 -0.8440  0.3033  0.2993
    5MOL   C144 3912   5.868   0.383   5.131  0.3685  0.0883  0.2451
    5MOL   C145 3913   5.852   0.431   5.272  0.7937  0.0584  0.4727
    5MOL   C146 3914   5.996   0.411   5.336 -0.2062  0.1664 -0.4872
    5MOL   C147 3915   6.007   0.446   5.487  0.0662 -0.0160 -0.4723
    5MOL   C148 3916   6.145   0.408   5.560  0.6542  0.1591  0.6546
    5MOL   C149 3917   6.144   0.464   5.700  0.1056  0.1117  0.7808
    5MOL   C150 3918   6.279   0.478   5.755  0.6510 -0.1583 -0.2744
    5MOL   C151 3919   6.279   0.541   5.899 -0.4586 -0.4566  0.5585
    5MOL   C152 3920   6.416   0.581   5.945 -0.2121 -0.1493 -0.1099
    5MOL   C153 3921   6.422   0.614   6.096 -0.1553  0.7142 -0.0657
    5MOL   O154 3922   6.548   0.680   6.124 -0.4598  0.1519  0.5146
    5MOL   C155 3923   6.560   0.806   6.166  0.4976 -0.3266  0.4868
    5MOL   O156 3924   6.463   0.878   6.181  0.2488  0.3659  0.0738
    5MOL   C157 3925   6.708   0.843   6.185  0.6336 -0.2276  0.3997
    5MOL   C158 3926   6.726   0.979   6.226  0.4459  0.8313 -0.5507
    5MOL   C159 3927   6.850   1.016   6.283  0.0605 -1.1312 -0.3384
    5MOL   C160 3928   6.959   0.923   6.278  0.1864  0.8559  0.5095
    5MOL   C161 3929   7.084   0.961   6.343  0.3742 -0.0184  0.2754
    5MOL   O162 3930   7.171   0.879   6.378 -0.2189  0.0419  0.2975
    5MOL   O163 3931   7.100   1.094   6.370 -0.2934  0.2377 -0.0082
    5MOL   C164 3932   6.936   0.797   6.220  0.0061  0.1664  1.0102
    5MOL   C165 3933   6.814   0.756   6.171 -0.4928 -0.1113 -0.7716
    5MOL   H166 3934   5.770   0.376   5.083  0.2291  0.6809  0.4383
    5MOL   H167 3935   5.905   0.280   5.132  1.2496  0.2703 -4.0979
    5MOL   H168 3936   5.770   0.379   5.320  0.2996 -0.5144 -0.9827
    5MOL   H169 3937   5.827   0.536   5.256  3.6593  0.8597  0.9412
    5MOL   H170 3938   6.018   0.306   5.316  1.2625 -0.1898  2.6967
    5MOL   H171 3939   6.076   0.465   5.286  1.1179 -0.2960  1.0965
    5MOL   H172 3940   5.920   0.404   5.538  0.5585 -1.4573 -0.7960
    5MOL   H173 3941   6.003   0.554   5.501  0.3274 -0.0883  0.1935
    5MOL   H174 3942   6.148   0.301   5.579  1.1169  0.0719  0.1140
    5MOL   H175 3943   6.237   0.426   5.504  0.6024  2.0032  1.1194
    5MOL   H176 3944   6.092   0.561   5.701 -0.1330  0.0740 -2.2176
    5MOL   H177 3945   6.081   0.399   5.760  0.7108 -1.1318  0.0674
    5MOL   H178 3946   6.343   0.390   5.766  1.5810  0.6069  0.5489
    5MOL   H179 3947   6.341   0.546   5.696  1.5230  0.5508  1.4210
    5MOL   H180 3948   6.215   0.628   5.914 -0.5892 -0.7102  1.5098
    5MOL   H181 3949   6.250   0.459   5.964 -0.8546 -0.7177  0.0590
    5MOL   H182 3950   6.446   0.675   5.900  0.8317  0.7832  2.4912
    5MOL   H183 3951   6.487   0.503   5.919 -0.4894 -0.5667  0.3740
    5MOL   H184 3952   6.417   0.520   6.151  2.0121  0.9281  0.5731
    5MOL   H185 3953   6.338   0.680   6.119  0.1493  0.8861  0.5871
    5MOL   H186 3954   6.647   1.052   6.225  0.4176  0.8106 -0.1613
    5MOL   H187 3955   6.855   1.109   6.338 -1.8425 -1.9364  1.3075
    5MOL   H188 3956   7.011   0.719   6.217  1.3329  1.3974  1.7393
    5MOL   H189 3957   6.799   0.653   6.144 -0.0628 -0.8138  1.5921
    5MOL   O190 3958   7.238   1.130   6.401 -0.3315  0.2991  0.9906
    5MOL   C191 3959   7.286   1.213   6.303 -0.4519 -1.0620  0.3586
    5MOL   C192 3960   7.428   1.247   6.347  0.6753  0.3893  0.4916
    5MOL   C193 3961   7.503   1.323   6.241 -0.1265  0.1564  0.0434
    5MOL   C194 3962   7.653   1.354   6.275 -0.5002  0.6262  0.0326
    5MOL   C195 3963   7.724   1.439   6.169  0.0664  0.3128 -0.3586
    5MOL   C196 3964   7.872   1.450   6.195 -0.4694  1.0179 -0.0698
    5MOL   C197 3965   7.932   1.533   6.087  0.2385  0.6223 -0.3519
    5MOL   C198 3966   0.112   1.521   6.097  0.4800  0.2162  0.5280
    5MOL   C199 3967   0.194   1.628   6.015 -0.1733 -0.2153 -0.0098
    5MOL   C200 3968   0.351   1.605   5.998  0.2066  0.6385 -0.0946
    5MOL   O201 3969   0.372   1.479   5.928  0.3308  0.0504 -0.0094
    5MOL   C202 3970   0.476   1.450   5.849 -0.1874 -0.2919 -0.9639
    5MOL   O203 3971   0.576   1.523   5.831 -0.3292  0.1596 -0.3601
    5MOL   C204 3972   0.459   1.315   5.791 -0.1605 -0.2973 -0.6239
    5MOL   C205 3973   0.541   1.281   5.685 -1.1834  0.0036 -0.1059
    5MOL   C206 3974   0.540   1.150   5.630 -0.0705 -0.3999  0.8132
    5MOL   C207 3975   0.447   1.059   5.685  0.2104 -0.2913 -0.7752
    5MOL   C208 3976   0.438   0.925   5.619  0.7935 -0.0271  0.6165
    5MOL   O209 3977   0.521   0.890   5.538 -0.2283  0.6935  0.0025
    5MOL   O210 3978   0.327   0.860   5.659 -0.3927  0.5739 -0.3205
    5MOL   C211 3979   0.361   1.093   5.800  0.3243 -0.6606 -0.2687
    5MOL   C212 3980   0.369   1.224   5.851 -0.8536  0.2101  0.3919
    5MOL   H213 3981   7.290   1.154   6.211  0.9419 -0.5498  0.0785
    5MOL   H214 3982   7.223   1.301   6.291  0.0280 -0.7803 -0.1273
    5MOL   H215 3983   7.485   1.158   6.370  1.4077  0.3797 -1.2712
    5MOL   H216 3984   7.442   1.288   6.447  0.5298  0.0268  0.6611
    5MOL   H217 3985   7.497   1.273   6.144 -1.7730 -0.7050  0.5728
    5MOL   H218 3986   7.453   1.418   6.224 -0.1444  0.5353  2.1351
    5MOL   H219 3987   7.710   1.270   6.314 -0.1314  1.3497  1.0755
    5MOL   H220 3988   7.645   1.416   6.364 -1.7195  1.4694 -0.6397
    5MOL   H221 3989   7.704   1.393   6.071 -0.3635 -1.5640  0.5801
    5MOL   H222 3990   7.684   1.539   6.153  0.2102  0.3490 -0.4964
    5MOL   H223 3991   7.891   1.505   6.287  2.5607  0.5050 -0.3097
    5MOL   H224 3992   7.908   1.347   6.199 -0.7728  0.9745  1.8136
    5MOL   H225 3993   7.893   1.502   5.991 -1.8014  0.9157  0.3580
    5MOL   H226 3994   7.911   1.639   6.088  1.2909  0.8414  0.0618
    5MOL   H227 3995   0.152   1.523   6.198 -0.1475 -0.4918  0.7884
    5MOL   H228 3996   0.132   1.419   6.066  1.0319  0.9040 -1.5042
    5MOL   H229 3997   0.179   1.728   6.056 -1.7459 -0.4728  0.0403
    5MOL   H230 3998   0.147   1.628   5.917 -0.1934 -0.7806 -0.0036
    5MOL   H231 3999   0.398   1.604   6.096  0.3552 -0.3865 -0.1682
    5MOL   H232 4000   0.390   1.688   5.939 -1.5393 -0.0161 -2.2597
    5MOL   H233 4001   0.618   1.347   5.647  0.1828 -0.9230  0.9823
    5MOL   H234 4002   0.603   1.142   5.543  0.4076  2.2366  0.8626
    5MOL   H235 4003   0.287   1.028   5.846  1.7386  0.0421  3.1610
    5MOL   H236 4004   0.310   1.247   5.939 -0.5829  1.8050  0.1881
    5MOL   O237 4005   0.308   0.732   5.582  0.3729  0.2433  0.1495
    5MOL   C238 4006   0.364   0.620   5.653  0.0291  0.0149  0.2199
    5MOL   C239 4007   0.489   0.564   5.593 -0.4021 -0.6691 -0.0771
    5MOL   C240 4008   0.541   0.447   5.677 -0.4477 -0.0507  0.3682
    5MOL   C241 4009   0.673   0.389   5.617  0.2863  0.3285  0.2248
    5MOL   C242 4010   0.790   0.482   5.624  0.0034  0.7157 -0.6671
    5MOL   C243 4011   0.917   0.404   5.581 -0.3995  0.0495  0.4834
    5MOL   C244 4012   1.046   0.478   5.592 -0.3905 -0.0754 -0.1923
    5MOL   C245 4013   1.169   0.391   5.571  0.4554 -0.7090 -0.2495
    5MOL   C246 4014   1.301   0.458   5.594 -0.8578  0.7564 -0.9547
    5MOL   C247 4015   1.426   0.373   5.582 -0.1445 -0.0712 -0.8042
    5MOL   O248 4016   1.441   0.335   5.443  0.5455 -0.0719  0.3271
    5MOL   C249 4017   1.507   0.427   5.347 -0.5204 -0.0331  0.1834
    5MOL   O250 4018   1.544   0.536   5.382  0.1462  0.0846 -0.2496
    5MOL   C251 4019   1.500   0.376   5.206 -0.1989  0.9264  0.0017
    5MOL   C252 4020   1.571   0.450   5.114  0.0797  0.3814  0.4351
    5MOL   C253 4021   1.572   0.404   4.981 -0.0842  0.6402  0.4301
    5MOL   C254 4022   1.497   0.286   4.944  0.4245 -0.9114 -0.0372
    5MOL   C255 4023   1.519   0.226   4.807 -0.2228 -0.0134  0.1336
    5MOL   O256 4024   1.604   0.263   4.722  0.9490 -0.4817 -0.0732
    5MOL   O257 4025   1.445   0.118   4.791  0.1548  0.3987  0.4571
    5MOL   C258 4026   1.415   0.223   5.039 -0.0336 -0.0526  0.2288
    5MOL   C259 4027   1.420   0.265   5.171 -0.0740  0.2034  0.0113
    5MOL   H260 4028   0.380   0.640   5.759  0.3022 -1.2705  0.4263
    5MOL   H261 4029   0.290   0.542   5.638 -1.5306  1.3047  1.0354
    5MOL   H262 4030   0.560   0.646   5.584  0.0662 -0.9566  0.8645
    5MOL   H263 4031   0.467   0.524   5.494  0.7096  0.2830 -0.7224
    5MOL   H264 4032   0.553   0.471   5.783 -0.0571 -0.3046  0.3802
    5MOL   H265 4033   0.464   0.369   5.677  1.3728 -1.9143 -2.0164
    5MOL   H266 4034   0.660   0.353   5.515  0.4569  1.1909 -0.0991
    5MOL   H267 4035   0.694   0.297   5.672  0.9649  0.0692 -0.4698
    5MOL   H268 4036   0.779   0.567   5.556  1.4787  0.5288 -1.1503
    5MOL   H269 4037   0.797   0.538   5.717  0.1987  0.3333 -0.4530
    5MOL   H270 4038   0.940   0.318   5.643 -1.3599  0.4744  1.4481
    5MOL   H271 4039   0.887   0.375   5.480  0.0128  1.4418 -0.0529
    5MOL   H272 4040   1.059   0.565   5.527  0.3198 -0.0815 -0.0566
    5MOL   H273 4041   1.054   0.529   5.688  2.1834  1.4469 -1.1536
    5MOL   H274 4042   1.167   0.298   5.629 -3.1082 -1.2841 -1.1980
    5MOL   H275 4043   1.167   0.369   5.464 -0.2480 -0.6938 -0.2447
    5MOL   H276 4044   1.288   0.486   5.699 -1.6518  1.2041 -1.1692
    5MOL   H277 4045   1.308   0.550   5.536  1.1554  2.3252  1.6930
    5MOL   H278 4046   1.415   0.280   5.639 -1.9207 -0.1475 -1.2375
    5MOL   H279 4047   1.520   0.415   5.617 -0.4751 -0.9541  1.2331
    5MOL   H280 4048   1.648   0.524   5.130 -0.2800  0.6951  0.7358
    5MOL   H281 4049   1.632   0.455   4.907  0.3596  0.7324  0.8506
    5MOL   H282 4050   1.347   0.145   5.010  0.7434 -0.2125 -1.1803
    5MOL   H283 4051   1.363   0.217   5.248  2.1568 -0.1828  1.4740
    5MOL   O284 4052   1.493   0.029   4.676  0.2648 -0.2204  0.0938
    5MOL   C285 4053   1.397   0.039   4.571  0.3740  0.0634  0.0838
    5MOL   C286 4054   1.412   7.914   4.470 -0.6270 -0.0555  0.6178
    5MOL   C287 4055   1.300   7.921   4.368 -0.4614  0.6875  0.2694
    5MOL   C288 4056   1.287   7.798   4.280  0.3679  0.4379 -0.4280
    5MOL   C289 4057   1.183   7.817   4.162 -0.7631  0.2286 -1.0581
    5MOL   C290 4058   1.161   7.678   4.098 -0.4722  0.5247 -0.0509
    5MOL   C291 4059   1.050   7.609   4.165 -0.0521  0.3647  0.0837
    5MOL   C292 4060   0.977   7.506   4.079  0.2385 -0.2410  0.0997
    5MOL   C293 4061   0.861   7.433   4.154 -0.4030  0.5301  0.1395
    5MOL   C294 4062   0.791   7.333   4.058 -0.0073 -0.3154 -0.4380
    5MOL   O295 4063   0.691   7.250   4.117 -0.2912  0.3552  0.1162
    5MOL   C296 4064   0.566   7.305   4.149 -0.4014 -0.7689 -0.6897
    5MOL   O297 4065   0.542   7.424   4.139 -0.6578  0.1217 -0.0496
    5MOL   C298 4066   0.458   7.202   4.182 -0.9397 -0.7184 -0.1518
    5MOL   C299 4067   0.327   7.247   4.205  0.1971  0.1124 -0.3914
    5MOL   C300 4068   0.223   7.152   4.230  0.3304 -0.0773 -0.3212
    5MOL   C301 4069   0.258   7.014   4.225 -0.7403  0.5391  0.1428
    5MOL   C302 4070   0.148   6.913   4.252  0.1986  0.2311  0.1453
    5MOL   O303 4071   0.025   6.942   4.255  0.3602 -0.5842 -0.4439
    5MOL   O304 4072   0.195   6.789   4.267  0.2773  0.2136 -0.4968
    5MOL   C305 4073   0.389   6.973   4.195  0.5383  0.2824 -0.7176
    5MOL   C306 4074   0.488   7.065   4.180  0.0923  0.5087 -0.3848
    5MOL   H307 4075   1.304   0.020   4.626  0.4550 -1.5817 -0.3043
    5MOL   H308 4076   1.409   0.135   4.522  1.7649 -0.5483 -0.7691
    5MOL   H309 4077   1.402   7.820   4.526 -4.6004  1.2959  2.3411
    5MOL   H310 4078   1.507   7.934   4.422 -1.5709  1.0917 -0.7919
    5MOL   H311 4079   1.204   7.940   4.417 -0.5423  1.9968 -0.3748
    5MOL   H312 4080   1.314   0.032   4.306  2.2053 -1.1111 -1.8351
    5MOL   H313 4081   1.258   7.717   4.347 -2.2705  0.3592 -1.6131
    5MOL   H314 4082   1.381   7.757   4.244  0.8959 -0.7380  2.1271
    5MOL   H315 4083   1.091   7.857   4.204  0.5466  2.1997 -0.0232
    5MOL   H316 4084   1.221   7.885   4.086  1.7962 -0.0143 -0.0539
    5MOL   H317 4085   1.125   7.695   3.996 -1.1318  2.9635  0.5710
    5MOL   H318 4086   1.252   7.619   4.098 -0.2799  0.8077  1.4937
    5MOL   H319 4087   1.084   7.570   4.261 -0.5538 -0.2939 -0.0041
    5MOL   H320 4088   0.968   7.679   4.185 -0.5663  0.7789 -3.2748
    5MOL   H321 4089   0.943   7.551   3.986 -1.8840 -0.8746  0.5306
    5MOL   H322 4090   1.054   7.433   4.055  0.8287  1.4409 -3.4396
    5MOL   H323 4091   0.788   7.499   4.200 -0.5411  0.5083 -0.0527
    5MOL   H324 4092   0.914   7.374   4.229 -0.2529 -1.2424 -1.3361
    5MOL   H325 4093   0.861   7.261   4.015  2.3768  1.6371  0.0844
    5MOL   H326 4094   0.759   7.393   3.973 -0.1423  0.7697  0.3722
    5MOL   H327 4095   0.298   7.351   4.200  0.4729  0.1939 -0.2992
    5MOL   H328 4096   0.127   7.190   4.260  1.8366  1.0753  3.3615
    5MOL   H329 4097   0.430   6.873   4.187  0.7290  0.4354 -1.7556
    5MOL   H330 4098   0.585   7.022   4.161 -0.2603 -0.0705 -0.8894
    5MOL   O331 4099   0.084   6.692   4.292  0.3441  0.2305 -0.0080
    5MOL   C332 4100   0.098   6.639   4.419  0.0126 -0.1403  0.3628
    5MOL   C333 4101   0.238   6.566   4.422 -0.7718  0.2065  0.6045
    5MOL   C334 4102   0.291   6.504   4.547  0.0131  0.6998 -0.0569
    5MOL   C335 4103   0.221   6.376   4.598 -0.4411  0.1631  0.1888
    5MOL   C336 4104   0.287   6.309   4.723  0.4595 -0.7637 -0.1920
    5MOL   C337 4105   0.301   6.405   4.845  0.8388  0.3740 -0.6656
    5MOL   C338 4106   0.410   6.348   4.952 -0.3654  0.5052 -0.0081
    5MOL   C339 4107   0.400   6.406   5.095  0.1838  0.1802 -0.3406
    5MOL   C340 4108   0.393   6.557   5.098 -0.0773  0.9438  0.5196
    5MOL   C341 4109   0.409   6.618   5.237 -0.3388 -0.6376  0.6116
    5MOL   O342 4110   0.284   6.588   5.309  0.0887  0.6216  0.1505
    5MOL   C343 4111   0.245   6.662   5.419 -0.4662  0.5467  0.4632
    5MOL   O344 4112   0.324   6.734   5.481 -0.1980  0.5180  0.0638
    5MOL   C345 4113   0.098   6.642   5.460  0.3745  0.3511  0.0156
    5MOL   C346 4114   0.054   6.689   5.584 -0.3729 -0.2721 -0.0232
    5MOL   C347 4115   7.891   6.682   5.616 -0.0996 -0.3565 -0.2731
    5MOL   C348 4116   7.800   6.618   5.531  0.5246 -0.1478  0.1604
    5MOL   C349 4117   7.660   6.619   5.570  0.9992 -0.3507  0.7929
    5MOL   O350 4118   7.606   6.694   5.656 -0.0505 -0.5227 -0.2352
    5MOL   O351 4119   7.589   6.529   5.491  0.0773 -0.3524 -0.5606
    5MOL   C352 4120   7.843   6.566   5.407  0.3415  0.8413  0.1809
    5MOL   C353 4121   0.001   6.580   5.371  0.0643 -0.1511  0.4736
    5MOL   H354 4122   0.073   6.708   4.499  0.4316 -0.5602  0.8616
    5MOL   H355 4123   0.028   6.557   4.432  0.3970 -0.8315 -1.6955
    5MOL   H356 4124   0.316   6.642   4.411 -0.3937 -0.1904  0.5019
    5MOL   H357 4125   0.247   6.493   4.342 -4.1720  1.4319 -0.9948
    5MOL   H358 4126   0.391   6.470   4.520 -0.6827 -1.1289 -0.4022
    5MOL   H359 4127   0.283   6.585   4.620 -1.8610 -0.6606  1.3079
    5MOL   H360 4128   0.235   6.303   4.519 -3.3011 -0.2486 -0.0107
    5MOL   H361 4129   0.113   6.365   4.610 -0.6043  1.4624 -0.0461
    5MOL   H362 4130   0.230   6.225   4.762 -1.2692 -0.6909 -2.4750
    5MOL   H363 4131   0.374   6.255   4.687 -0.1884 -2.1181  0.2540
    5MOL   H364 4132   0.324   6.506   4.812  0.7940  1.1848  1.7344
    5MOL   H365 4133   0.206   6.423   4.895  1.4263  1.6347  0.0096
    5MOL   H366 4134   0.384   6.243   4.963 -1.7897  0.7706 -0.6955
    5MOL   H367 4135   0.498   6.366   4.891  1.3691  0.1985  2.3672
    5MOL   H368 4136   0.310   6.366   5.141 -0.2737 -0.3670 -1.6803
    5MOL   H369 4137   0.476   6.364   5.160  0.4271  2.2898  0.7858
    5MOL   H370 4138   0.301   6.589   5.048  0.2016 -0.7474 -1.1282
    5MOL   H371 4139   0.469   6.592   5.028 -0.7994  2.3346  0.4130
    5MOL   H372 4140   0.432   6.725   5.237  1.6087 -1.0451  1.4855
    5MOL   H373 4141   0.481   6.564   5.297  1.3600  0.0167 -0.8116
    5MOL   H374 4142   0.122   6.746   5.646 -0.8541 -0.3619  0.5914
    5MOL   H375 4143   7.862   6.727   5.710 -1.8985 -2.1997  0.0823
    5MOL   H376 4144   7.770   6.516   5.345 -0.5373  2.4884 -0.1397
    5MOL   H377 4145   0.025   6.536   5.275 -1.8277  0.7014 -0.4016
    5MOL   O378 4146   7.442   6.505   5.549 -0.0562 -0.3146 -0.8933
    5MOL   C379 4147   7.354   6.591   5.479  0.7000  0.3020 -0.4995
    5MOL   C380 4148   7.214   6.538   5.502 -0.3015  0.3015 -0.2750
    5MOL   C381 4149   7.103   6.631   5.444  0.4760 -0.0018 -0.3300
    5MOL   C382 4150   6.959   6.579   5.427  0.5621  0.0787  0.1863
    5MOL   C383 4151   6.877   6.678   5.341 -0.0250  0.2020  0.0662
    5MOL   C384 4152   6.727   6.648   5.348 -0.2631 -0.3248  0.3926
    5MOL   C385 4153   6.662   6.591   5.474  0.2976 -0.7848 -0.3706
    5MOL   C386 4154   6.668   6.681   5.597  0.6148 -0.1897  0.6812
    5MOL   C387 4155   6.638   6.613   5.734 -0.4991 -0.0375 -0.3713
    5MOL   C388 4156   6.757   6.538   5.789 -0.2038 -0.0944 -0.0112
    5MOL   O389 4157   6.881   6.618   5.799  0.2140  0.2964  0.0466
    5MOL   C390 4158   7.000   6.556   5.821  0.1605  0.1204  0.2567
    5MOL   O391 4159   7.012   6.434   5.810  0.3917  0.1767 -0.4059
    5MOL   C392 4160   7.116   6.638   5.849  0.1679 -0.3304 -0.6035
    5MOL   C393 4161   7.232   6.572   5.896  0.2489  0.6709 -0.9525
    5MOL   C394 4162   7.347   6.650   5.925 -0.0502  0.4694 -0.2802
    5MOL   C395 4163   7.357   6.787   5.897  0.1670  0.5763  0.2820
    5MOL   C396 4164   7.491   6.852   5.913 -0.0066 -0.1292  0.6733
    5MOL   O397 4165   7.576   6.815   5.993  0.2846  0.0942  0.1138
    5MOL   O398 4166   7.510   6.967   5.841  0.4891 -0.7663  0.0458
    5MOL   C399 4167   7.238   6.854   5.863 -0.1455 -0.1719  0.5639
    5MOL   C400 4168   7.116   6.781   5.849 -0.8267  0.7913  0.2326
    5MOL   H401 4169   7.368   6.694   5.512 -2.3199  0.2133  1.3062
    5MOL   H402 4170   7.373   6.587   5.372 -3.3323  3.3718 -1.4485
    5MOL   H403 4171   7.194   6.519   5.608 -1.4803 -0.5830 -0.6613
    5MOL   H404 4172   7.220   6.442   5.452  0.8730  0.2035  0.0271
    5MOL   H405 4173   7.097   6.724   5.501 -0.5556 -0.0828 -0.3065
    5MOL   H406 4174   7.136   6.643   5.341 -0.0267 -0.2155 -0.5170
    5MOL   H407 4175   6.914   6.575   5.527  3.6349 -0.9059  1.6013
    5MOL   H408 4176   6.961   6.478   5.386  0.8067 -0.2125  0.9014
    5MOL   H409 4177   6.875   6.768   5.403  0.7406 -0.7774  1.5453
    5MOL   H410 4178   6.915   6.694   5.240  0.7004 -3.1568 -0.2606
    5MOL   H411 4179   6.665   6.733   5.321 -0.4139 -0.4279  0.4137
    5MOL   H412 4180   6.708   6.569   5.276  1.5775 -0.8718  0.4777
    5MOL   H413 4181   6.557   6.571   5.455  0.0979  3.2796 -4.1788
    5MOL   H414 4182   6.715   6.498   5.497 -0.0404 -0.5924  1.2748
    5MOL   H415 4183   6.768   6.724   5.594  1.9140 -3.1831 -1.5275
    5MOL   H416 4184   6.590   6.755   5.578  1.3539  0.3872 -0.1671
    5MOL   H417 4185   6.557   6.544   5.710  0.2009  0.1064 -3.3353
    5MOL   H418 4186   6.594   6.685   5.804 -1.4275 -1.6562  0.7417
    5MOL   H419 4187   6.782   6.449   5.730 -1.2463 -0.5820  0.2707
    5MOL   H420 4188   6.734   6.494   5.886 -0.0280 -0.7255 -0.2537
    5MOL   H421 4189   7.234   6.464   5.901 -0.6164  0.6987  0.0409
    5MOL   H422 4190   7.435   6.597   5.958 -1.5096 -1.0973  1.1800
    5MOL   H423 4191   7.227   6.961   5.853  0.9416  0.1062  2.0907
    5MOL   H424 4192   7.030   6.844   5.833  0.3822  2.0709 -1.3489
    5MOL   O425 4193   7.633   7.040   5.881 -0.5128 -0.0547 -0.0974
    5MOL   C426 4194   7.730   7.021   5.773  0.3662 -0.3173  0.0236
    5MOL   C427 4195   7.868   7.051   5.833 -0.6762 -0.0657 -0.8240
    5MOL   C428 4196   7.921   7.194   5.818 -0.4431 -0.0925  0.0867
    5MOL   C429 4197   0.079   7.221   5.884 -0.1582 -0.4798 -0.2476
    5MOL   C430 4198   0.135   7.364   5.874  0.1444  0.0327 -0.7599
    5MOL   C431 4199   0.290   7.373   5.899 -0.5907 -0.5019 -0.4641
    5MOL   C432 4200   0.335   7.518   5.871 -0.2295 -0.4996 -0.0411
    5MOL   C433 4201   0.477   7.534   5.922 -0.3112  0.3639 -0.7065
    5MOL   C434 4202   0.577   7.423   5.888 -0.0891  0.2384  0.1554
    5MOL   C435 4203   0.716   7.481   5.901 -0.6929 -0.2858 -0.1005
    5MOL   O436 4204   0.797   7.369   5.851  0.1203 -0.3524 -0.2334
    5MOL   C437 4205   0.858   7.372   5.735  0.2226  0.3688 -0.5735
    5MOL   O438 4206   0.864   7.471   5.665  0.1303  0.4493 -0.1336
    5MOL   C439 4207   0.916   7.238   5.708  0.2406  0.6162 -0.7665
    5MOL   C440 4208   0.952   7.154   5.820  0.1211  0.0033 -0.0144
    5MOL   C441 4209   0.995   7.020   5.788  0.0731 -0.2392 -0.6054
    5MOL   C442 4210   1.012   6.979   5.653 -0.2071 -0.2114 -0.0207
    5MOL   C443 4211   1.061   6.833   5.633  0.3673 -0.9258 -0.5134
    5MOL   O444 4212   1.031   6.739   5.708  0.3175 -0.6721 -0.3320
    5MOL   O445 4213   1.126   6.826   5.514  0.0212 -0.4657  0.5465
    5MOL   C446 4214   0.991   7.067   5.542 -0.6210 -0.1837 -0.5209
    5MOL   C447 4215   0.945   7.200   5.574  0.7958  0.1944 -0.4655
    5MOL   H448 4216   7.720   6.917   5.745  1.3555 -1.4381  3.5945
    5MOL   H449 4217   7.703   7.081   5.686  0.3012 -0.3338  0.0329
    5MOL   H450 4218   7.945   6.990   5.785  0.5433 -0.9529  2.1509
    5MOL   H451 4219   7.857   7.029   5.939 -0.4743  0.1523 -0.7545
    5MOL   H452 4220   7.928   7.218   5.712  0.3905  0.9924  0.3818
    5MOL   H453 4221   7.846   7.261   5.860  1.4806  1.0017  1.8791
    5MOL   H454 4222   0.154   7.153   5.843  0.0112 -1.3514  1.4791
    5MOL   H455 4223   0.068   7.199   5.990 -1.5064  0.9217 -0.0768
    5MOL   H456 4224   0.117   7.380   5.768 -3.5090 -1.6846 -0.4749
    5MOL   H457 4225   0.075   7.427   5.940  0.5939  0.3293 -0.6306
    5MOL   H458 4226   0.337   7.329   5.986  2.0945 -0.6385 -1.9237
    5MOL   H459 4227   0.346   7.315   5.825  0.1312  0.2013 -0.4848
    5MOL   H460 4228   0.334   7.534   5.763 -1.4745  1.5210  0.2498
    5MOL   H461 4229   0.267   7.594   5.909 -0.8766  0.0519 -2.2274
    5MOL   H462 4230   0.515   7.629   5.884  0.2149  0.7268  0.7031
    5MOL   H463 4231   0.484   7.551   6.029  1.3999 -0.7074 -0.6252
    5MOL   H464 4232   0.548   7.402   5.785 -2.5808  1.0159  0.6543
    5MOL   H465 4233   0.567   7.338   5.956  3.3723 -0.4030 -0.0686
    5MOL   H466 4234   0.743   7.502   6.005  0.0987  2.5738 -0.8324
    5MOL   H467 4235   0.718   7.580   5.854 -0.7900 -0.1601  0.1582
    5MOL   H468 4236   0.942   7.180   5.924  2.5480 -0.5122  0.3797
    5MOL   H469 4237   1.006   6.940   5.860  1.6594  0.6944  0.2110
    5MOL   H470 4238   1.009   7.034   5.441 -1.1410 -4.3072  0.6365
    5MOL   H471 4239   0.910   7.265   5.495 -2.1460 -1.7896 -0.8536
    5MOL   O472 4240   1.176   6.690   5.483  0.3832 -0.0322  0.3006
    5MOL   C473 4241   1.312   6.678   5.526 -0.2686 -0.0533 -0.8610
    5MOL   C474 4242   1.363   6.534   5.538  0.0241  0.0649 -0.3730
    5MOL   C475 4243   1.501   6.518   5.605  0.2087 -0.3612  0.3580
    5MOL   C476 4244   1.489   6.526   5.753 -0.1430  0.4215  0.0773
    5MOL   C477 4245   1.617   6.471   5.818 -0.6460 -0.3255 -0.0204
    5MOL   C478 4246   1.607   6.478   5.967  0.2989  0.2571  0.3024
    5MOL   C479 4247   1.739   6.412   6.026 -0.1506  0.1948  0.1122
    5MOL   C480 4248   1.769   6.433   6.176  0.6095 -0.0222 -0.2155
    5MOL   C481 4249   1.851   6.558   6.196 -0.2143 -0.3395 -0.6250
    5MOL   C482 4250   1.910   6.568   6.341  0.0352 -0.3667  0.2920
    5MOL   O483 4251   2.019   6.475   6.358  0.1224  0.0969  0.5838
    5MOL   C484 4252   2.024   6.416   6.480 -1.1227  0.1926  0.4651
    5MOL   O485 4253   1.950   6.446   6.571  0.4039  0.3050 -0.1555
    5MOL   C486 4254   2.145   6.321   6.501 -0.4394  0.7040  0.6569
    5MOL   C487 4255   2.171   6.285   6.635  0.4618  0.1579 -0.3407
    5MOL   C488 4256   2.281   6.205   6.673  0.0341 -0.0353 -0.4555
    5MOL   C489 4257   2.351   6.137   6.565  0.0006  0.1171 -0.1201
    5MOL   C490 4258   2.445   6.025   6.596 -0.3761 -0.6339  0.1561
    5MOL   O491 4259   2.465   5.976   6.709  0.2752 -0.1765  1.4759
    5MOL   O492 4260   2.504   5.973   6.488  0.5309  0.1410 -0.2760
    5MOL   C493 4261   2.323   6.172   6.431  0.8824 -0.6043 -1.1816
    5MOL   C494 4262   2.227   6.269   6.400  0.6232 -1.3014  0.4552
    5MOL   H495 4263   1.370   6.721   5.444  1.1444 -1.0513 -0.3991
    5MOL   H496 4264   1.332   6.736   5.616 -2.3106  0.2969 -0.6069
    5MOL   H497 4265   1.369   6.503   5.434  0.2843 -1.5757  0.1246
    5MOL   H498 4266   1.287   6.471   5.584  0.4706 -0.8388 -0.8711
    5MOL   H499 4267   1.543   6.418   5.592  0.4872 -0.6370  3.1175
    5MOL   H500 4268   1.579   6.584   5.568 -0.8186  1.0356  0.6469
    5MOL   H501 4269   1.408   6.468   5.796  0.2721  0.4422  0.8985
    5MOL   H502 4270   1.481   6.633   5.776  0.9522  0.2037  1.5442
    5MOL   H503 4271   1.652   6.380   5.770 -1.4619  0.6549 -2.5663
    5MOL   H504 4272   1.705   6.525   5.783  1.3583 -1.5601  2.8800
    5MOL   H505 4273   1.574   6.575   6.005 -1.3561 -0.9796  2.1117
    5MOL   H506 4274   1.526   6.412   5.998  0.8735 -1.2515 -1.3388
    5MOL   H507 4275   1.736   6.304   6.009 -2.1435  0.3217 -0.3684
    5MOL   H508 4276   1.821   6.462   5.973  0.4599 -0.4359  0.4539
    5MOL   H509 4277   1.678   6.431   6.237 -0.0914  1.1835 -1.1943
    5MOL   H510 4278   1.833   6.352   6.210  0.1358 -0.3331 -0.0539
    5MOL   H511 4279   1.794   6.645   6.164  0.2198  0.3660  0.5142
    5MOL   H512 4280   1.940   6.545   6.135  0.4270  1.0456  0.0030
    5MOL   H513 4281   1.833   6.549   6.415  0.9924 -1.2972  1.0683
    5MOL   H514 4282   1.956   6.666   6.354  1.0966 -0.4323 -2.6408
    5MOL   H515 4283   2.108   6.318   6.717  1.1952  0.1637  0.2288
    5MOL   H516 4284   2.314   6.170   6.770  1.9801 -1.2843 -1.5349
    5MOL   H517 4285   2.383   6.129   6.353  0.4709 -2.1735 -0.6682
    5MOL   H518 4286   2.195   6.281   6.297 -2.9480 -1.3157  1.5142
    5MOL   O519 4287   2.589   5.855   6.517  0.5827  0.4000  0.1179
    5MOL   C520 4288   2.544   5.745   6.446 -0.0026 -0.3326  0.1093
    5MOL   C521 4289   2.409   5.683   6.488  0.4840 -0.2365  0.3562
    5MOL   C522 4290   2.406   5.637   6.633  0.2078  0.1394 -0.4578
    5MOL   C523 4291   2.282   5.569   6.677  0.0653  0.1790 -0.5402
    5MOL   C524 4292   2.258   5.432   6.606 -0.2168  0.1047 -0.8693
    5MOL   C525 4293   2.316   5.311   6.682 -0.0879  0.3584 -0.7032
    5MOL   C526 4294   2.263   5.182   6.610  0.5352 -0.1370  0.1755
    5MOL   C527 4295   2.297   5.058   6.692  0.7192  0.5800 -0.3888
    5MOL   C528 4296   2.213   5.040   6.816  0.5361  0.5593 -0.2227
    5MOL   C529 4297   2.244   4.899   6.878  0.0299 -0.1984 -0.7327
    5MOL   O530 4298   2.382   4.890   6.897  0.3030 -0.1246  0.0576
    5MOL   C531 4299   2.439   4.761   6.896 -0.3265  0.0173  1.0403
    5MOL   O532 4300   2.371   4.662   6.924  0.1675 -0.0257  0.2012
    5MOL   C533 4301   2.588   4.756   6.875  0.0312  0.2165 -0.5937
    5MOL   C534 4302   2.643   4.637   6.924 -0.1865 -0.3327 -0.0971
    5MOL   C535 4303   2.783   4.616   6.906  0.6639  0.2376  0.9969
    5MOL   C536 4304   2.861   4.713   6.842  0.5244  0.0111 -0.4088
    5MOL   C537 4305   3.010   4.677   6.819  0.0398  0.3837  0.4757
    5MOL   O538 4306   3.094   4.758   6.788 -0.6824 -0.8542 -0.0922
    5MOL   O539 4307   3.025   4.542   6.821 -0.2385 -0.8541  0.1135
    5MOL   C540 4308   2.802   4.829   6.794 -0.1404  0.2389  0.6618
    5MOL   C541 4309   2.668   4.854   6.813  0.3811  0.3452 -0.0950
    5MOL   H542 4310   2.547   5.769   6.340  1.4836  1.3731  0.5151
    5MOL   H543 4311   2.619   5.669   6.468  1.5251  1.4495  1.0926
    5MOL   H544 4312   2.394   5.603   6.415 -0.7658 -1.0085  1.4402
    5MOL   H545 4313   2.327   5.754   6.479 -0.5873 -1.5686 -0.5656
    5MOL   H546 4314   2.486   5.568   6.662 -1.6520 -0.8779  2.4169
    5MOL   H547 4315   2.433   5.720   6.698  0.7299  1.1801 -1.9597
    5MOL   H548 4316   2.200   5.640   6.663 -1.0580 -1.1336 -0.7982
    5MOL   H549 4317   2.285   5.547   6.784 -3.5697 -1.1180 -0.6325
    5MOL   H550 4318   2.150   5.423   6.600 -0.2324  0.2883 -0.8867
    5MOL   H551 4319   2.284   5.433   6.501  1.0990  3.2302 -0.5786
    5MOL   H552 4320   2.424   5.321   6.671  0.0644 -1.2798 -0.8079
    5MOL   H553 4321   2.282   5.309   6.785 -1.7790 -1.1513 -1.2407
    5MOL   H554 4322   2.155   5.177   6.597  0.6195  1.9803 -1.8559
    5MOL   H555 4323   2.313   5.178   6.513  1.2426 -0.3964  0.5557
    5MOL   H556 4324   2.295   4.974   6.622  1.5471  0.2990 -0.0876
    5MOL   H557 4325   2.405   5.069   6.706  0.7317 -0.6206  0.5183
    5MOL   H558 4326   2.105   5.042   6.799  0.5752 -1.3643 -0.7471
    5MOL   H559 4327   2.218   5.115   6.896 -1.5270  1.5766 -1.0076
    5MOL   H560 4328   2.214   4.828   6.801 -2.2067  2.1729 -2.1322
    5MOL   H561 4329   2.182   4.877   6.966  0.0933 -0.9919 -0.8830
    5MOL   H562 4330   2.585   4.566   6.981  0.6465 -1.3724 -0.5164
    5MOL   H563 4331   2.823   4.530   6.959 -0.2334 -0.6301  0.3019
    5MOL   H564 4332   2.873   4.902   6.757 -1.3331  1.1140  0.0347
    5MOL   H565 4333   2.629   4.955   6.803 -0.9794 -0.2746 -1.1257
    5MOL   O566 4334   3.165   4.496   6.826 -0.1716 -0.4929  0.8062
    5MOL   C567 4335   3.218   4.501   6.963 -0.0492 -0.0190 -0.1151
    5MOL   C568 4336   3.126   4.433   7.070  0.3215  0.0109  0.1009
    5MOL   C569 4337   3.109   4.282   7.049  0.1194 -0.8572 -0.3733
    5MOL   C570 4338   3.046   4.193   7.165  0.5966  0.1399 -0.0797
    5MOL   C571 4339   3.025   4.044   7.126 -0.0518 -0.0831 -0.2932
    5MOL   C572 4340   3.002   3.953   7.242 -0.0775  0.0226 -0.9042
    5MOL   C573 4341   2.852   3.950   7.289 -0.4207  0.3641 -0.2485
    5MOL   C574 4342   2.826   3.841   7.395 -0.8326 -0.8468 -0.1164
    5MOL   C575 4343   2.805   3.704   7.337  0.0098 -0.3685  0.7930
    5MOL   C576 4344   2.743   3.616   7.442  0.3870  1.0907 -0.2249
    5MOL   O577 4345   2.735   3.490   7.385  0.0713 -0.0566 -0.0872
    5MOL   C578 4346   2.644   3.403   7.435  0.6852  0.4856  0.5283
    5MOL   O579 4347   2.565   3.429   7.523  0.6697  0.5906 -0.1964
    5MOL   C580 4348   2.648   3.267   7.372 -0.2314  0.4379  0.9050
    5MOL   C581 4349   2.560   3.168   7.409 -0.0585  0.3160  0.1981
    5MOL   C582 4350   2.557   3.041   7.346 -0.1761  0.9106 -0.1831
    5MOL   C583 4351   2.660   3.012   7.253  0.1407 -0.7732 -0.3284
    5MOL   C584 4352   2.680   2.873   7.190 -0.2311 -0.4186 -1.3153
    5MOL   O585 4353   2.784   2.843   7.137 -0.1289 -0.5261  0.3932
    5MOL   O586 4354   2.580   2.783   7.202 -0.5559  0.8473 -0.4801
    5MOL   C587 4355   2.752   3.113   7.217  0.1737  0.1700 -0.4802
    5MOL   C588 4356   2.752   3.241   7.278  0.4642 -0.3059 -0.1540
    5MOL   H589 4357   3.317   4.455   6.967  0.8512  1.9098  0.4632
    5MOL   H590 4358   3.221   4.608   6.981  1.1544  0.3525 -2.3103
    5MOL   H591 4359   3.027   4.478   7.068  0.0980 -0.4055  1.5885
    5MOL   H592 4360   3.165   4.451   7.170 -2.1543 -2.1077  1.5046
    5MOL   H593 4361   3.046   4.279   6.961 -0.5857  0.1330  0.0762
    5MOL   H594 4362   3.207   4.247   7.016  0.9766  1.7808 -0.7970
    5MOL   H595 4363   2.953   4.236   7.202 -0.8746 -1.8769 -1.3322
    5MOL   H596 4364   3.112   4.203   7.251 -0.1552  1.9337  0.3133
    5MOL   H597 4365   2.952   4.024   7.048  0.0232  0.6932 -0.5618
    5MOL   H598 4366   3.117   4.002   7.084 -0.3435 -1.5686  0.5026
    5MOL   H599 4367   3.023   3.854   7.204 -3.8836 -0.5863 -1.6379
    5MOL   H600 4368   3.072   3.983   7.321  0.1969 -1.2784 -0.6520
    5MOL   H601 4369   2.828   4.047   7.332  0.7126  0.5399 -0.0115
    5MOL   H602 4370   2.789   3.927   7.203  1.3387 -1.5445 -1.0763
    5MOL   H603 4371   2.915   3.829   7.457 -1.2924  1.7482  1.1158
    5MOL   H604 4372   2.746   3.879   7.459 -0.7195  1.2255 -1.1801
    5MOL   H605 4373   2.909   3.676   7.317 -0.2985  0.2975 -1.9500
    5MOL   H606 4374   2.736   3.708   7.253  1.0310  2.8923  0.0365
    5MOL   H607 4375   2.642   3.652   7.462  0.3330  1.6745 -1.4962
    5MOL   H608 4376   2.800   3.621   7.535  0.3267  1.3466 -0.2010
    5MOL   H609 4377   2.487   3.195   7.484 -2.3982 -1.1011 -1.4916
    5MOL   H610 4378   2.483   2.973   7.386 -1.0383  1.4040 -0.9053
    5MOL   H611 4379   2.836   3.090   7.152  1.3442  3.4359 -0.1999
    5MOL   H612 4380   2.822   3.320   7.254  0.9867 -1.1493 -1.4933
    5MOL   O613 4381   2.616   2.639   7.171 -0.4115 -0.3218 -0.2547
    5MOL   C614 4382   2.593   2.614   7.033  0.3450  0.0026 -0.0035
    5MOL   C615 4383   2.647   2.478   6.993 -0.2937  0.5471  0.4304
    5MOL   C616 4384   2.638   2.460   6.838  0.5294 -0.4208  0.7458
    5MOL   C617 4385   2.636   2.312   6.803 -0.3627 -0.1215  0.4599
    5MOL   C618 4386   2.765   2.239   6.832  0.8019 -0.4252 -0.0885
    5MOL   C619 4387   2.754   2.090   6.789  0.6120  0.4055  0.0979
    5MOL   C620 4388   2.873   2.005   6.821  0.1433  0.3713  1.0458
    5MOL   C621 4389   2.996   2.033   6.731 -0.0690 -0.1110 -0.3606
    5MOL   C622 4390   3.133   1.978   6.770 -0.5066  0.5234  0.0614
    5MOL   C623 4391   3.240   2.005   6.662 -0.0119  0.0042  0.4516
    5MOL   O624 4392   3.239   2.140   6.641 -0.0463  0.0370 -0.0560
    5MOL   C625 4393   3.278   2.189   6.520 -0.0205 -0.5491 -0.3843
    5MOL   O626 4394   3.308   2.120   6.421 -0.5607 -0.1664  0.0161
    5MOL   C627 4395   3.282   2.335   6.515 -0.3368  0.1694 -0.1959
    5MOL   C628 4396   3.364   2.397   6.420 -0.6755 -0.5024 -0.3857
    5MOL   C629 4397   3.363   2.539   6.406 -0.0235 -0.0633 -1.0191
    5MOL   C630 4398   3.283   2.619   6.500  0.2923 -0.5429  0.3813
    5MOL   C631 4399   3.277   2.765   6.482  0.9347  0.4329  0.1559
    5MOL   O632 4400   3.331   2.830   6.393 -0.2048 -0.2516 -0.4340
    5MOL   O633 4401   3.197   2.822   6.574 -0.8806  0.1013 -0.0911
    5MOL   C634 4402   3.208   2.554   6.601  0.1756 -0.1378  0.4064
    5MOL   C635 4403   3.208   2.412   6.608 -0.3366 -0.0972 -0.1914
    5MOL   H636 4404   2.485   2.624   7.021  0.5037  0.6317 -1.0339
    5MOL   H637 4405   2.646   2.691   6.976 -1.4262  1.3460  0.1244
    5MOL   H638 4406   2.583   2.408   7.046  1.8213  0.6219  3.1504
    5MOL   H639 4407   2.749   2.468   7.030  0.0005 -1.6058 -0.8701
    5MOL   H640 4408   2.549   2.510   6.799 -0.7826 -1.3452  2.4958
    5MOL   H641 4409   2.725   2.497   6.784  0.9967 -0.9893  1.1069
    5MOL   H642 4410   2.611   2.305   6.697  2.3400 -0.0596 -0.1972
    5MOL   H643 4411   2.553   2.276   6.865  1.0988 -0.2370  2.3846
    5MOL   H644 4412   2.836   2.285   6.763  0.8982 -0.7346 -0.1948
    5MOL   H645 4413   2.787   2.249   6.938  0.1248  0.6598 -0.0327
    5MOL   H646 4414   2.667   2.044   6.836  0.9038 -0.8619 -0.5663
    5MOL   H647 4415   2.733   2.085   6.682 -2.3682  0.7656  0.6386
    5MOL   H648 4416   2.883   2.009   6.929  3.0572 -1.3253  0.8793
    5MOL   H649 4417   2.842   1.901   6.809  2.1684 -0.2550  1.0865
    5MOL   H650 4418   2.971   2.027   6.625 -1.4532  1.7897 -0.1601
    5MOL   H651 4419   3.003   2.141   6.733 -1.3533 -0.0418  0.8819
    5MOL   H652 4420   3.129   1.869   6.770  3.2991  0.2957  1.5193
    5MOL   H653 4421   3.159   2.038   6.857 -1.1152  0.8184  0.0418
    5MOL   H654 4422   3.212   1.953   6.571 -0.3822 -0.4264  0.8107
    5MOL   H655 4423   3.337   1.975   6.702 -0.2407 -0.6174  0.5432
    5MOL   H656 4424   3.411   2.333   6.347 -0.2556 -0.4389 -0.1725
    5MOL   H657 4425   3.408   2.584   6.319  2.8869 -1.3994 -0.2773
    5MOL   H658 4426   3.149   2.612   6.671  0.2637  0.6667 -0.1710
    5MOL   H659 4427   3.130   2.367   6.667  0.6933 -0.9168  0.5628
    5MOL   O660 4428   3.195   2.970   6.583  0.0732  0.4416  0.5012
    5MOL   C661 4429   3.065   3.013   6.543  0.9265 -0.0992  0.7232
    5MOL   C662 4430   2.952   2.985   6.639  0.5563  0.1227 -0.8537
    5MOL   C663 4431   2.806   3.025   6.594  0.3790  0.1932 -0.0075
    5MOL   C664 4432   2.693   2.988   6.690  0.4008  0.6478  0.3676
    5MOL   C665 4433   2.694   3.059   6.823 -0.1903  0.1498 -0.2145
    5MOL   C666 4434   2.685   3.210   6.800  0.0412  0.2605 -0.5433
    5MOL   C667 4435   2.683   3.293   6.929  0.1528 -0.5088  0.2940
    5MOL   C668 4436   2.678   3.444   6.888  0.2688  0.4800  0.1740
    5MOL   C669 4437   2.624   3.542   7.002  0.7689  0.8737  0.1133
    5MOL   C670 4438   2.674   3.682   6.975 -0.2144 -0.0727  0.0798
    5MOL   O671 4439   2.613   3.739   6.866  0.1374 -0.0331 -0.5045
    5MOL   C672 4440   2.646   3.867   6.839  0.8243 -0.1907 -0.0561
    5MOL   O673 4441   2.728   3.935   6.897 -0.5048 -0.7917  0.4843
    5MOL   C674 4442   2.575   3.912   6.709  0.9490 -0.7314  0.2671
    5MOL   C675 4443   2.490   3.828   6.640  0.3619 -0.1422  0.2987
    5MOL   C676 4444   2.425   3.860   6.523 -0.5057 -0.5424  0.2291
    5MOL   C677 4445   2.437   3.988   6.461  0.4334 -0.6864 -0.2396
    5MOL   C678 4446   2.351   4.024   6.340 -0.5775  0.0598 -0.3845
    5MOL   O679 4447   2.282   3.940   6.287 -0.3479 -0.3958 -0.4108
    5MOL   O680 4448   2.361   4.147   6.289 -0.7182 -0.0551  0.0329
    5MOL   C681 4449   2.526   4.080   6.530 -0.7302 -0.3963 -0.2563
    5MOL   C682 4450   2.593   4.038   6.647  0.4277 -0.3171  0.2584
    5MOL   H683 4451   3.079   3.120   6.526  2.9849 -0.7775 -2.1143
    5MOL   H684 4452   3.037   2.977   6.444 -2.1774  0.5296  1.3241
    5MOL   H685 4453   2.977   3.028   6.736 -1.7651  0.0840 -0.2042
    5MOL   H686 4454   2.943   2.878   6.653 -0.4688  0.5179  1.7434
    5MOL   H687 4455   2.800   3.133   6.579  0.1004  0.3816  1.3785
    5MOL   H688 4456   2.788   2.973   6.500  3.2066 -1.5723  0.3744
    5MOL   H689 4457   2.692   2.879   6.686  0.2027  0.6168  1.1927
    5MOL   H690 4458   2.594   3.023   6.660 -0.7677 -1.3936  1.7665
    5MOL   H691 4459   2.605   3.029   6.880  0.2214  0.3896  0.5691
    5MOL   H692 4460   2.784   3.029   6.876  0.1361 -2.7529 -2.2599
    5MOL   H693 4461   2.772   3.242   6.742  0.9016 -1.5465 -0.2878
    5MOL   H694 4462   2.609   3.232   6.724  1.9588  2.5453 -1.8598
    5MOL   H695 4463   2.589   3.267   6.978  0.4949 -0.8664  0.7728
    5MOL   H696 4464   2.763   3.272   7.001  0.3071  0.4884  0.4251
    5MOL   H697 4465   2.781   3.470   6.863  0.1471 -0.1709 -1.0455
    5MOL   H698 4466   2.619   3.468   6.800  1.3804 -1.6122 -1.1819
    5MOL   H699 4467   2.651   3.502   7.100 -0.0535 -0.3268 -0.1379
    5MOL   H700 4468   2.515   3.547   7.006  0.7190 -1.0663  3.4312
    5MOL   H701 4469   2.781   3.678   6.956 -0.4079 -2.8280 -0.6148
    5MOL   H702 4470   2.656   3.737   7.068  0.3457 -0.7839  0.6144
    5MOL   H703 4471   2.477   3.727   6.677 -0.5145 -0.9302 -2.0861
    5MOL   H704 4472   2.366   3.784   6.473  0.0422  0.9633 -2.7908
    5MOL   H705 4473   2.533   4.184   6.505  0.7345 -0.7849 -1.5434
    5MOL   H706 4474   2.649   4.121   6.688 -0.2892  0.1449  0.3115
    5MOL   O707 4475   2.256   4.173   6.184 -0.1419 -0.1926 -0.0875
    5MOL   C708 4476   2.316   4.165   6.055 -0.4265  0.4212  0.3018
    5MOL   C709 4477   2.219   4.189   5.947  0.1514  0.0415 -0.4553
    5MOL   C710 4478   2.275   4.180   5.809 -0.0975 -0.2211 -0.7727
    5MOL   C711 4479   2.166   4.154   5.710  0.3532  0.6391  0.7825
    5MOL   C712 4480   2.215   4.130   5.569  0.2149 -0.1853 -0.1670
    5MOL   C713 4481   2.100   4.120   5.461 -0.2936  0.4351 -0.3070
    5MOL   C714 4482   2.142   4.110   5.314  0.3728 -0.7887  0.2073
    5MOL   C715 4483   2.182   3.972   5.266 -0.2469  0.1862  0.2992
    5MOL   C716 4484   2.226   3.974   5.120 -0.3218  0.2140  0.1091
    5MOL   C717 4485   2.256   3.839   5.067  0.6473 -0.0096  0.7734
    5MOL   O718 4486   2.370   3.771   5.107 -0.3475  1.1192 -0.8851
    5MOL   C719 4487   2.368   3.679   5.209  0.1940 -0.0897  0.2910
    5MOL   O720 4488   2.279   3.664   5.294  0.0566  0.0633 -0.1369
    5MOL   C721 4489   2.494   3.600   5.205 -0.0321 -0.1528 -0.0194
    5MOL   C722 4490   2.522   3.503   5.302  0.2110 -0.0856 -0.5666
    5MOL   C723 4491   2.640   3.436   5.305 -0.2055 -0.5897  0.3804
    5MOL   C724 4492   2.736   3.453   5.207  0.3826 -0.7476 -0.1475
    5MOL   C725 4493   2.867   3.376   5.210 -0.4691  0.0433 -0.1733
    5MOL   O726 4494   2.944   3.371   5.114  0.0512  0.2939  0.0426
    5MOL   O727 4495   2.895   3.306   5.321 -0.0681  0.0356 -0.2912
    5MOL   C728 4496   2.714   3.547   5.103 -0.0651 -0.1547  0.1619
    5MOL   C729 4497   2.590   3.618   5.102 -0.4054  1.2397 -0.4841
    5MOL   H730 4498   2.385   4.248   6.042 -0.2800 -0.1879 -3.6498
    5MOL   H731 4499   2.362   4.066   6.046 -1.6679 -0.4181  2.7772
    5MOL   H732 4500   2.182   4.291   5.955  4.2677  1.6475 -0.6458
    5MOL   H733 4501   2.143   4.113   5.968  0.2856  0.2715  0.8974
    5MOL   H734 4502   2.341   4.262   5.780  1.5881 -1.2703 -0.0208
    5MOL   H735 4503   2.343   4.094   5.806 -0.6681 -0.7494  1.2832
    5MOL   H736 4504   2.083   4.224   5.724 -1.9032 -2.0610  1.2630
    5MOL   H737 4505   2.106   4.070   5.743 -2.8975  2.8722  0.8241
    5MOL   H738 4506   2.271   4.214   5.528  2.0923 -1.1794  0.3189
    5MOL   H739 4507   2.291   4.052   5.569 -0.4276 -0.8319 -1.3001
    5MOL   H740 4508   2.031   4.039   5.484 -1.3779  1.4229 -0.0380
    5MOL   H741 4509   2.050   4.216   5.473 -0.6029  0.0873  1.2687
    5MOL   H742 4510   2.069   4.158   5.250  1.5881 -1.2947 -1.5857
    5MOL   H743 4511   2.235   4.166   5.302  0.0694 -0.7225 -2.0745
    5MOL   H744 4512   2.272   3.938   5.317 -0.5881 -0.9245  0.1668
    5MOL   H745 4513   2.102   3.901   5.285  1.2742 -1.3118  1.2734
    5MOL   H746 4514   2.317   4.034   5.107 -1.0239  0.9353 -1.5699
    5MOL   H747 4515   2.147   4.022   5.063  0.2960  1.4160  0.2405
    5MOL   H748 4516   2.269   3.857   4.960  1.2848  1.3556  1.0742
    5MOL   H749 4517   2.169   3.774   5.066  0.4420  0.2752 -1.1212
    5MOL   H750 4518   2.449   3.475   5.377  1.1062 -1.0129 -0.0201
    5MOL   H751 4519   2.669   3.369   5.384 -1.3277 -0.8317  0.5966
    5MOL   H752 4520   2.796   3.561   5.035  0.4023 -1.2288  0.4916
    5MOL   H753 4521   2.570   3.689   5.024 -1.1775  1.5176 -0.0395
    5MOL   O754 4522   3.035   3.242   5.326 -0.6313  0.1457  0.2855
    5MOL   C755 4523   3.020   3.102   5.309  0.8253  0.5588 -0.1033
    5MOL   C756 4524   3.142   3.010   5.312 -0.4268 -0.2259  0.0694
    5MOL   C757 4525   3.120   2.863   5.338  0.0922  0.7781 -0.4155
    5MOL   C758 4526   3.247   2.782   5.313 -0.1434 -0.0560 -0.1269
    5MOL   C759 4527   3.227   2.625   5.328 -0.2306 -0.6594 -0.3334
    5MOL   C760 4528   3.356   2.559   5.282 -0.4945 -0.1845 -0.3639
    5MOL   C761 4529   3.479   2.573   5.383 -0.3007  0.3677  0.2301
    5MOL   C762 4530   3.607   2.518   5.325 -0.0714  0.2478 -0.1012
    5MOL   C763 4531   3.720   2.531   5.424 -0.2148 -0.1740  0.2629
    5MOL   C764 4532   3.846   2.470   5.377 -0.0365  0.2320  0.0755
    5MOL   O765 4533   3.897   2.509   5.254  0.6909  0.0282  0.2822
    5MOL   C766 4534   3.977   2.623   5.253  0.4026  0.2985 -0.1926
    5MOL   O767 4535   4.015   2.688   5.354 -1.0463  0.3255 -0.2025
    5MOL   C768 4536   4.008   2.662   5.110 -0.0770 -0.8174  0.5415
    5MOL   C769 4537   4.128   2.728   5.083  0.2645 -0.2723 -0.1930
    5MOL   C770 4538   4.169   2.750   4.953  0.2445  0.5357  0.3105
    5MOL   C771 4539   4.088   2.702   4.846 -0.2637  0.4221 -0.1194
    5MOL   C772 4540   4.125   2.721   4.701  0.2634  0.1753 -0.6634
    5MOL   O773 4541   4.064   2.674   4.606  0.3330 -0.4516 -0.2404
    5MOL   O774 4542   4.227   2.804   4.684  0.1918  0.1264  0.2448
    5MOL   C775 4543   3.972   2.631   4.875 -0.5571 -0.4135 -0.9984
    5MOL   C776 4544   3.927   2.612   5.006 -0.0225 -0.7315 -0.0621
    5MOL   H777 4545   2.956   3.069   5.392  0.6267  2.7790  0.6599
    5MOL   H778 4546   2.959   3.073   5.223  0.9963  1.0254 -0.3816
    5MOL   H779 4547   3.216   3.052   5.380  0.7907 -0.2101 -1.2410
    5MOL   H780 4548   3.193   3.023   5.217 -1.0098 -1.7757 -0.4687
    5MOL   H781 4549   3.090   2.844   5.441 -2.5371 -1.1458 -1.4740
    5MOL   H782 4550   3.040   2.820   5.278 -1.3248 -0.7468  2.4895
    5MOL   H783 4551   3.332   2.811   5.374 -0.8452 -0.1488  0.9057
    5MOL   H784 4552   3.280   2.803   5.211  1.3771  2.4220  0.8253
    5MOL   H785 4553   3.205   2.602   5.432 -0.9506 -0.6095 -0.4723
    5MOL   H786 4554   3.150   2.590   5.260  0.0490 -1.3801 -0.2766
    5MOL   H787 4555   3.344   2.452   5.274  1.8246 -0.7338  2.4002
    5MOL   H788 4556   3.373   2.594   5.180 -1.0280  1.6533  0.1579
    5MOL   H789 4557   3.480   2.678   5.411 -2.4482  0.3180  0.5773
    5MOL   H790 4558   3.456   2.516   5.474  0.2991  2.5593  1.7873
    5MOL   H791 4559   3.589   2.413   5.298 -0.0809 -0.1019  1.2204
    5MOL   H792 4560   3.628   2.565   5.229  1.9398  1.0640  0.7171
    5MOL   H793 4561   3.696   2.475   5.515  2.7777 -1.4609  0.3067
    5MOL   H794 4562   3.738   2.634   5.454 -1.3080  0.4017 -1.0085
    5MOL   H795 4563   3.828   2.364   5.360  1.0609  0.0675 -0.0905
    5MOL   H796 4564   3.923   2.482   5.453 -1.1245  1.5280  0.9943
    5MOL   H797 4565   4.180   2.758   5.173  0.0791 -1.7915  0.4528
    5MOL   H798 4566   4.261   2.802   4.935  1.5772 -0.7352  3.1216
    5MOL   H799 4567   3.911   2.587   4.798 -2.9324  2.0000 -0.5433
    5MOL   H800 4568   3.837   2.556   5.025 -0.0580 -0.6228  0.0847
    5MOL   O801 4569   4.262   2.825   4.534  0.0165  0.0430  0.2872
    5MOL   C802 4570   4.205   2.943   4.489 -0.5812  0.1256 -0.9017
    5MOL   C803 4571   4.253   3.061   4.567  0.1517  1.0371 -0.1589
    5MOL   C804 4572   4.154   3.177   4.553  0.2056  0.4920  0.2210
    5MOL   C805 4573   4.170   3.278   4.669  1.0031 -1.2433 -0.6123
    5MOL   C806 4574   4.077   3.405   4.661 -0.5316 -0.1791  0.0789
    5MOL   C807 4575   4.100   3.503   4.780  0.2531  0.4036 -0.5558
    5MOL   C808 4576   4.060   3.445   4.914  0.6175  0.1895 -0.3233
    5MOL   C809 4577   4.082   3.543   5.033  0.6567 -0.4292 -0.2279
    5MOL   C810 4578   4.224   3.596   5.047  0.3587  0.3206 -0.0578
    5MOL   C811 4579   4.227   3.691   5.165 -0.0284 -0.5734  0.2433
    5MOL   O812 4580   4.227   3.611   5.284  0.0696  0.2119 -0.6266
    5MOL   C813 4581   4.234   3.664   5.404  0.2947  0.9602  0.9145
    5MOL   O814 4582   4.245   3.783   5.421  0.8318  0.4995 -0.4480
    5MOL   C815 4583   4.223   3.563   5.515  0.8689 -0.0921  0.3674
    5MOL   C816 4584   4.230   3.418   5.489 -1.1814  0.6669  0.3780
    5MOL   C817 4585   4.203   3.328   5.594  0.6693 -0.7214 -0.7180
    5MOL   C818 4586   4.168   3.380   5.729  0.6925 -0.0780  0.2171
    5MOL   C819 4587   4.127   3.282   5.830 -0.0076 -0.3689  0.0712
    5MOL   O820 4588   4.061   3.320   5.926  0.4796 -0.2497  0.0698
    5MOL   O821 4589   4.155   3.154   5.795 -0.8596  0.0831 -0.0660
    5MOL   C822 4590   4.161   3.516   5.748 -0.9572  0.0838  0.1374
    5MOL   C823 4591   4.184   3.608   5.639  0.3859  0.2628 -0.2586
    5MOL   H824 4592   4.219   2.953   4.382 -2.0352  1.1169 -1.0079
    5MOL   H825 4593   4.101   2.925   4.517 -0.3647 -0.5191 -0.5143
    5MOL   H826 4594   4.349   3.093   4.528  0.9144  0.6469  1.3714
    5MOL   H827 4595   4.269   3.031   4.671  2.3751  1.8249 -0.2464
    5MOL   H828 4596   4.177   3.224   4.457 -1.3854 -1.2373 -1.0328
    5MOL   H829 4597   4.049   3.148   4.555 -0.0053  1.2948  1.6360
    5MOL   H830 4598   4.270   3.320   4.674  0.5774 -0.2932  0.1662
    5MOL   H831 4599   4.150   3.231   4.766 -2.1570  1.5932  0.2064
    5MOL   H832 4600   4.095   3.461   4.569 -0.3163 -0.0620  0.1887
    5MOL   H833 4601   3.972   3.378   4.662 -0.5593 -0.0555  0.5500
    5MOL   H834 4602   4.208   3.517   4.779  0.1401  1.2447 -1.0257
    5MOL   H835 4603   4.049   3.598   4.765  1.2621  1.3764  1.7940
    5MOL   H836 4604   3.953   3.433   4.898  0.8277 -0.6788 -1.1460
    5MOL   H837 4605   4.112   3.354   4.941 -0.9691 -0.2425  1.3372
    5MOL   H838 4606   4.009   3.623   5.019  1.2566  0.5840  2.1606
    5MOL   H839 4607   4.044   3.490   5.120  1.6967  0.3107  0.6799
    5MOL   H840 4608   4.256   3.664   4.968  0.2571  0.9596  0.4490
    5MOL   H841 4609   4.301   3.519   5.043 -0.5893 -0.7085  1.4337
    5MOL   H842 4610   4.134   3.748   5.161 -0.3428 -0.8571  2.4655
    5MOL   H843 4611   4.309   3.762   5.168 -0.0546 -0.3429 -3.2276
    5MOL   H844 4612   4.273   3.379   5.398 -0.5499  1.0908  0.4878
    5MOL   H845 4613   4.205   3.223   5.571 -0.6642 -1.2271  1.3662
    5MOL   H846 4614   4.131   3.551   5.846 -0.4168 -2.4746  1.2511
    5MOL   H847 4615   4.177   3.715   5.654  0.6333  0.2329  0.0636
    5MOL   O848 4616   4.097   3.048   5.889  0.0920 -0.1134 -0.9492
    5MOL   C849 4617   3.963   3.024   5.836 -0.0179  0.1350  0.7350
    5MOL   C850 4618   3.952   3.002   5.683 -0.4393 -0.4051  0.0570
    5MOL   C851 4619   3.807   2.985   5.627  0.1684 -0.3506 -0.5857
    5MOL   C852 4620   3.820   2.940   5.483 -0.0825 -0.0974  0.2784
    5MOL   C853 4621   3.686   2.965   5.405 -0.6547  0.2585  0.1848
    5MOL   C854 4622   3.705   2.940   5.253  0.0615  0.8859  0.4234
    5MOL   C855 4623   3.571   2.961   5.178 -0.5699 -0.6399  0.1685
    5MOL   C856 4624   3.572   2.949   5.031 -0.5259 -0.6452 -0.5219
    5MOL   C857 4625   3.582   2.808   4.973  0.6813 -0.0804 -0.0396
    5MOL   C858 4626   3.447   2.737   4.933 -0.5538 -0.4764  0.8060
    5MOL   O859 4627   3.485   2.611   4.894 -0.4862 -0.6646 -0.4069
    5MOL   C860 4628   3.408   2.505   4.908  0.1296  0.6162 -0.3284
    5MOL   O861 4629   3.291   2.506   4.938 -0.2401  0.1071 -0.0008
    5MOL   C862 4630   3.477   2.372   4.881 -0.1010  0.0002 -0.0461
    5MOL   C863 4631   3.404   2.261   4.841 -0.6400  0.1808 -0.3733
    5MOL   C864 4632   3.471   2.138   4.817  0.1867 -0.6717 -0.0790
    5MOL   C865 4633   3.612   2.128   4.826  0.0279 -0.2716 -0.4105
    5MOL   C866 4634   3.682   1.996   4.814 -0.5533  0.2081 -0.1078
    5MOL   O867 4635   3.626   1.886   4.792  0.2791  0.0857  0.3650
    5MOL   O868 4636   3.820   2.009   4.827 -0.7614 -0.4613 -0.3486
    5MOL   C869 4637   3.683   2.247   4.856  0.5879  0.2616  0.0160
    5MOL   C870 4638   3.615   2.363   4.889 -0.9234  0.3503 -0.1266
    5MOL   H871 4639   3.937   2.930   5.884  2.8935  0.3974  2.9762
    5MOL   H872 4640   3.897   3.105   5.869 -0.4412  0.3847 -0.6789
    5MOL   H873 4641   4.014   2.917   5.656  1.3970  0.5287  1.2534
    5MOL   H874 4642   3.993   3.083   5.622 -0.0472 -0.7881 -0.1863
    5MOL   H875 4643   3.752   2.907   5.680 -0.9527 -0.7405 -2.3043
    5MOL   H876 4644   3.754   3.081   5.628 -0.5001 -0.6972  1.6787
    5MOL   H877 4645   3.865   2.841   5.475 -0.1780 -0.4325  3.3038
    5MOL   H878 4646   3.885   3.009   5.429  1.9659 -0.1576  2.5779
    5MOL   H879 4647   3.612   2.897   5.449 -2.1353  2.0268  0.4644
    5MOL   H880 4648   3.645   3.064   5.423 -0.0493  0.3368  1.1393
    5MOL   H881 4649   3.786   2.997   5.208  0.8085  1.2095  2.1737
    5MOL   H882 4650   3.743   2.840   5.231 -3.1762 -0.2967 -0.1883
    5MOL   H883 4651   3.499   2.888   5.215 -0.9053  0.4199  1.6486
    5MOL   H884 4652   3.539   3.061   5.208  1.8079 -0.3088  1.6722
    5MOL   H885 4653   3.486   2.993   4.979  1.4455  1.4572 -2.1068
    5MOL   H886 4654   3.653   3.005   4.984 -0.3514  0.4591  1.0550
    5MOL   H887 4655   3.628   2.736   5.041  1.9712  1.3718  0.6538
    5MOL   H888 4656   3.644   2.821   4.885  0.7882  2.6989  0.4113
    5MOL   H889 4657   3.394   2.790   4.853  0.2425  1.5171  1.5859
    5MOL   H890 4658   3.375   2.728   5.014  0.9319 -2.9934  1.8886
    5MOL   H891 4659   3.299   2.269   4.817 -0.3942 -0.7417 -1.8076
    5MOL   H892 4660   3.418   2.051   4.783 -2.2412  1.0337 -0.7796
    5MOL   H893 4661   3.790   2.250   4.877  0.4867  0.9224  0.4491
    5MOL   H894 4662   3.671   2.448   4.924  0.8171 -0.0249 -1.9259
    5MOL   O895 4663   3.892   1.877   4.815 -0.3425  0.1301 -0.3758
    5MOL   C896 4664   3.953   1.870   4.688 -0.4678  0.3464 -0.3468
    5MOL   C897 4665   4.023   1.731   4.677  0.0612  0.0129  0.0533
    5MOL   C898 4666   4.075   1.716   4.531 -0.7876  0.1310 -0.3451
    5MOL   C899 4667   4.164   1.596   4.494 -0.5825  0.0206  0.1903
    5MOL   C900 4668   4.188   1.578   4.338  0.5955 -0.5489  0.3821
    5MOL   C901 4669   4.273   1.463   4.291  0.7680 -0.2176  0.5739
    5MOL   C902 4670   4.366   1.501   4.180 -0.3893 -0.7602  0.1582
    5MOL   C903 4671   4.484   1.400   4.149  0.0398 -0.4506 -0.8296
    5MOL   C904 4672   4.456   1.252   4.114 -0.2280  0.1813 -0.0766
    5MOL   C905 4673   4.406   1.232   3.971  0.3239  0.7450 -0.1986
    5MOL   O906 4674   4.265   1.266   3.961  0.0221  0.5036 -0.7417
    5MOL   C907 4675   4.186   1.210   3.873 -0.0834  0.1285 -0.7292
    5MOL   O908 4676   4.228   1.138   3.780  0.0889  0.1887  0.0526
    5MOL   C909 4677   4.049   1.255   3.886 -0.4002 -0.0277 -0.2800
    5MOL   C910 4678   3.964   1.236   3.778 -0.4429 -0.2370 -0.1549
    5MOL   C911 4679   3.828   1.270   3.792  0.3506 -0.3685  0.1833
    5MOL   C912 4680   3.775   1.322   3.917  0.2496 -0.0450  1.1009
    5MOL   C913 4681   3.627   1.341   3.928 -0.2225 -1.0894  0.8592
    5MOL   O914 4682   3.551   1.337   3.828 -0.2294  0.7822 -0.4077
    5MOL   O915 4683   3.587   1.379   4.052 -0.8736 -0.4621 -0.6631
    5MOL   C916 4684   3.866   1.333   4.025  0.0991  0.5840 -0.1498
    5MOL   C917 4685   4.001   1.308   4.007  0.3038  0.1091  0.3830
    5MOL   H918 4686   3.872   1.872   4.614  1.0588  0.1861 -2.0504
    5MOL   H919 4687   4.022   1.951   4.667  0.2546 -0.5432 -1.4176
    5MOL   H920 4688   3.953   1.649   4.694  0.7627 -0.4917  0.5226
    5MOL   H921 4689   4.093   1.726   4.760  0.6439 -0.0081 -0.4356
    5MOL   H922 4690   3.993   1.739   4.463  0.2585  1.2335 -1.2397
    5MOL   H923 4691   4.138   1.803   4.516  0.1625 -0.3419  0.8171
    5MOL   H924 4692   4.107   1.507   4.521  0.5364 -1.2934 -1.6797
    5MOL   H925 4693   4.251   1.593   4.559 -0.9472  1.2510  0.7457
    5MOL   H926 4694   4.090   1.578   4.291 -0.2391  3.0596  1.9331
    5MOL   H927 4695   4.241   1.670   4.314 -0.2208  0.1225  1.1425
    5MOL   H928 4696   4.327   1.421   4.376 -0.0382  0.7566  1.5819
    5MOL   H929 4697   4.202   1.382   4.272 -1.2579  1.8333 -0.7675
    5MOL   H930 4698   4.304   1.521   4.093  0.9511 -1.2919 -0.9436
    5MOL   H931 4699   4.415   1.594   4.209 -0.9187  0.3625 -2.4063
    5MOL   H932 4700   4.540   1.460   4.078 -0.1865  2.0471  1.0239
    5MOL   H933 4701   4.527   1.412   4.249 -1.1710 -4.1387  0.2564
    5MOL   H934 4702   4.383   1.210   4.184  0.0731 -0.4520 -0.1453
    5MOL   H935 4703   4.547   1.192   4.115  1.6136  2.8930 -1.5182
    5MOL   H936 4704   4.426   1.129   3.942  0.4756  0.0657  2.1676
    5MOL   H937 4705   4.455   1.291   3.894  0.1305 -0.5978 -1.3700
    5MOL   H938 4706   4.004   1.188   3.690  2.4399 -0.1336  1.0553
    5MOL   H939 4707   3.754   1.251   3.715  2.5374 -1.2519 -1.7310
    5MOL   H940 4708   3.837   1.361   4.125 -0.8265  0.7294 -0.4553
    5MOL   H941 4709   4.067   1.316   4.092 -1.8417 -1.2993  2.2486
    5MOL   H942 4710   3.494   1.391   4.056 -0.6433  2.5375 -2.8589
    6MOL     O1 4711   5.580   5.855   5.231  0.0368  0.8041  0.0045
    6MOL     C2 4712   5.525   5.850   5.363 -0.0716 -0.0727 -0.2027
    6MOL     C3 4713   5.371   5.864   5.363 -0.5138  0.7167  0.2524
    6MOL     C4 4714   5.327   5.999   5.304  0.0544 -0.1528 -0.4486
    6MOL     C5 4715   5.188   5.977   5.259 -0.1932 -0.0876  0.5511
    6MOL     C6 4716   5.134   6.100   5.185  0.7493 -0.0240 -0.7332
    6MOL     C7 4717   5.193   6.131   5.044 -0.1450  0.1827 -0.1451
    6MOL     C8 4718   5.125   6.225   4.945 -0.3407 -0.2687  0.4157
    6MOL     C9 4719   4.980   6.182   4.916 -0.8599 -0.8311 -0.3806
    6MOL    C10 4720   4.951   6.033   4.888  0.2069  0.5181  0.0626
    6MOL    C11 4721   4.808   6.009   4.841 -0.2204  0.0206 -0.2952
    6MOL    O12 4722   4.790   5.874   4.817  0.0771  0.1086 -0.0737
    6MOL    C13 4723   4.699   5.834   4.726  0.3998  0.1754  0.0665
    6MOL    O14 4724   4.625   5.917   4.671  0.3244 -0.0128  0.1021
    6MOL    C15 4725   4.714   5.690   4.694  0.2406  0.8607 -0.0532
    6MOL    C16 4726   4.653   5.636   4.578  0.1458  0.4268  0.0370
    6MOL    C17 4727   4.669   5.501   4.536 -0.4882 -0.4806 -0.4470
    6MOL    C18 4728   4.737   5.413   4.626 -0.0458  0.1276  0.0100
    6MOL    C19 4729   4.745   5.269   4.589  0.7925  0.3844  0.3291
    6MOL    O20 4730   4.684   5.222   4.493 -0.2081 -0.7738  0.5696
    6MOL    O21 4731   4.837   5.207   4.663  0.4667 -0.0996 -0.2720
    6MOL    C22 4732   4.799   5.462   4.745  0.2093  0.8436 -0.3569
    6MOL    C23 4733   4.785   5.595   4.773 -0.7296 -0.2799 -0.2860
    6MOL    H24 4734   5.540   5.750   5.403 -1.3524 -0.5527 -0.8905
    6MOL    H25 4735   5.578   5.930   5.414 -0.6689  0.8551 -1.0058
    6MOL    H26 4736   5.334   5.853   5.465 -0.9899  5.1824  0.6572
    6MOL    H27 4737   5.338   5.783   5.297  0.2581 -0.4930  1.3311
    6MOL    H28 4738   5.332   6.078   5.378  0.5806  0.3144 -0.9756
    6MOL    H29 4739   5.382   6.032   5.216 -0.2493  0.1611 -0.5191
    6MOL    H30 4740   5.130   5.953   5.348 -2.5023  2.7936 -0.1017
    6MOL    H31 4741   5.202   5.901   5.182 -0.9598  0.4309 -0.1086
    6MOL    H32 4742   5.026   6.085   5.181  0.9527 -1.8717  0.3603
    6MOL    H33 4743   5.145   6.191   5.244 -1.9372  0.4661 -0.9086
    6MOL    H34 4744   5.294   6.165   5.069 -0.2240  1.2968 -1.2689
    6MOL    H35 4745   5.199   6.030   5.005 -2.3966 -0.4893  1.1726
    6MOL    H36 4746   5.132   6.328   4.981 -3.5134  0.3214 -0.4593
    6MOL    H37 4747   5.186   6.229   4.855  0.1544  0.7362  0.7820
    6MOL    H38 4748   4.906   6.206   4.992  0.0112  0.5385  0.0303
    6MOL    H39 4749   4.943   6.234   4.827  1.3740 -1.5344 -1.7585
    6MOL    H40 4750   4.956   5.960   4.969  0.4613  0.6752  0.1859
    6MOL    H41 4751   5.026   5.989   4.822 -1.3601  0.7064 -1.9152
    6MOL    H42 4752   4.794   6.073   4.754 -1.8838  3.8437  2.6412
    6MOL    H43 4753   4.730   6.040   4.911 -1.0149 -4.0050  0.7634
    6MOL    H44 4754   4.584   5.702   4.528 -0.0331 -0.8433 -1.4395
    6MOL    H45 4755   4.626   5.462   4.445 -0.6133 -0.7267 -0.2811
    6MOL    H46 4756   4.856   5.399   4.812  0.6660  1.4027 -0.2189
    6MOL    H47 4757   4.849   5.629   4.853  1.0488 -0.6118 -1.5225
    6MOL    H48 4758   5.605   5.944   5.211 -2.1727  1.1055 -1.5929
    6MOL    O49 4759   4.812   5.062   4.677  0.2133  0.0480  0.7641
    6MOL    C50 4760   4.776   5.035   4.811  0.4186  0.1758  0.4390
    6MOL    C51 4761   4.881   5.071   4.921 -0.5514  0.3506  0.1109
    6MOL    C52 4762   4.999   4.967   4.926  0.0991  0.6879 -0.2031
    6MOL    C53 4763   5.138   5.032   4.971 -0.2061  0.6702  0.3250
    6MOL    C54 4764   5.246   4.923   4.958  0.1265 -0.6089 -0.4392
    6MOL    C55 4765   5.391   4.972   4.960  0.5782 -0.6357 -0.0142
    6MOL    C56 4766   5.424   5.038   4.829  0.0565  0.3096 -0.0339
    6MOL    C57 4767   5.556   5.106   4.836 -0.2264  0.0023  0.1804
    6MOL    C58 4768   5.576   5.211   4.724 -0.0501  0.0615 -0.2994
    6MOL    C59 4769   5.534   5.356   4.764  0.2372  0.7665 -0.3560
    6MOL    O60 4770   5.614   5.411   4.865 -0.8235  0.2208  0.5547
    6MOL    C61 4771   5.743   5.435   4.852  0.5788 -0.1894  0.8061
    6MOL    O62 4772   5.814   5.400   4.754  0.3661 -0.0422 -0.4067
    6MOL    C63 4773   5.795   5.499   4.976  0.2491  0.3501 -0.0480
    6MOL    C64 4774   5.721   5.534   5.090 -0.3443 -0.0266  0.7906
    6MOL    C65 4775   5.781   5.600   5.199  0.4189  0.7805  0.9803
    6MOL    C66 4776   5.915   5.628   5.198  0.0741 -0.2303 -0.2679
    6MOL    C67 4777   5.979   5.703   5.319  0.3089 -0.2115  0.0736
    6MOL    O68 4778   5.917   5.745   5.409  0.4199  0.7233  0.2093
    6MOL    O69 4779   6.116   5.702   5.318  0.4416  0.5084 -0.2999
    6MOL    C70 4780   5.991   5.602   5.080 -0.1149  0.3271 -0.1101
    6MOL    C71 4781   5.928   5.534   4.975 -0.3274 -0.4214  0.0560
    6MOL    H72 4782   4.690   5.095   4.841  0.1271 -0.0851  0.1302
    6MOL    H73 4783   4.746   4.930   4.812  5.6799 -1.5271 -1.9597
    6MOL    H74 4784   4.830   5.055   5.016 -0.0200  0.4420  0.4124
    6MOL    H75 4785   4.908   5.176   4.919 -2.2196  0.7787 -2.3666
    6MOL    H76 4786   4.982   4.873   4.978 -0.3381  0.6534 -0.4032
    6MOL    H77 4787   5.010   4.939   4.821 -1.3318  0.3173 -0.2625
    6MOL    H78 4788   5.134   5.066   5.074 -0.1695 -2.3176  1.3571
    6MOL    H79 4789   5.165   5.127   4.924  0.1469  0.6571  0.5039
    6MOL    H80 4790   5.232   4.834   5.020  2.8030 -1.5665 -1.1238
    6MOL    H81 4791   5.234   4.885   4.857 -1.8995  1.2399 -0.9354
    6MOL    H82 4792   5.418   5.029   5.050 -1.6663 -3.4406  2.5649
    6MOL    H83 4793   5.450   4.882   4.978 -0.1127 -1.2348 -0.6889
    6MOL    H84 4794   5.441   4.962   4.753  0.2370 -0.1032  0.4170
    6MOL    H85 4795   5.341   5.103   4.801  0.6249  0.4299 -1.4832
    6MOL    H86 4796   5.587   5.152   4.930 -0.6036  1.6149 -0.4522
    6MOL    H87 4797   5.621   5.019   4.829 -0.8152 -0.3782 -0.6227
    6MOL    H88 4798   5.533   5.189   4.626 -1.1605  0.7801  0.0136
    6MOL    H89 4799   5.684   5.210   4.707  0.4615  1.3571  2.6019
    6MOL    H90 4800   5.427   5.348   4.785  0.3761 -0.2703 -0.0357
    6MOL    H91 4801   5.547   5.423   4.679 -0.3582  1.8872  0.4272
    6MOL    H92 4802   5.617   5.505   5.088 -1.2326  2.5805  4.5486
    6MOL    H93 4803   5.732   5.625   5.292 -1.1102  0.0934  0.3747
    6MOL    H94 4804   6.095   5.631   5.072  0.4962 -1.4283  1.1069
    6MOL    H95 4805   5.988   5.526   4.886 -2.7915  1.6227 -1.8783
    6MOL    O96 4806   6.183   5.766   5.439 -0.3413 -0.1308 -0.3316
    6MOL    C97 4807   6.222   5.664   5.528  0.4657 -0.1414 -0.0117
    6MOL    C98 4808   6.270   5.708   5.665 -0.4581  0.3818  0.4168
    6MOL    C99 4809   6.165   5.792   5.743  0.5452 -0.0731  0.4469
    6MOL   C100 4810   6.187   5.826   5.888  0.4463 -0.7840  0.0475
    6MOL   C101 4811   6.201   5.697   5.973 -0.4435 -0.0062 -0.2190
    6MOL   C102 4812   6.219   5.745   6.117  0.1523 -0.0043 -0.2415
    6MOL   C103 4813   6.259   5.638   6.214 -0.4671  0.7044  0.0276
    6MOL   C104 4814   6.147   5.536   6.241 -0.0507  0.2927  0.2774
    6MOL   C105 4815   6.163   5.397   6.183  1.1523 -0.0833  0.1539
    6MOL   C106 4816   6.034   5.304   6.200 -0.0328 -0.4047  0.1168
    6MOL   O107 4817   6.057   5.176   6.154 -0.1033 -0.3597  0.5766
    6MOL   C108 4818   5.941   5.107   6.135  0.0665  1.1173 -0.3177
    6MOL   O109 4819   5.826   5.150   6.151  0.6082  0.5445  0.9010
    6MOL   C110 4820   5.972   4.959   6.104  0.2800 -0.1693 -0.2268
    6MOL   C111 4821   5.869   4.858   6.108  0.0717 -0.1341  0.6680
    6MOL   C112 4822   5.904   4.726   6.070 -0.3130  0.0004  0.4265
    6MOL   C113 4823   6.034   4.686   6.037  0.4846  0.1322 -0.2476
    6MOL   C114 4824   6.079   4.552   6.006 -0.7367 -0.0299 -0.3321
    6MOL   O115 4825   6.191   4.520   5.964 -0.5596 -0.2246 -0.5261
    6MOL   O116 4826   5.984   4.462   6.029  0.0526 -0.1149 -1.1913
    6MOL   C117 4827   6.131   4.791   6.023 -0.3923  0.0999  0.4836
    6MOL   C118 4828   6.097   4.922   6.053  0.2249 -0.1322  0.3186
    6MOL   H119 4829   6.130   5.612   5.552  0.2650  0.8161  1.3446
    6MOL   H120 4830   6.300   5.603   5.482  1.4925  1.7952 -0.9248
    6MOL   H121 4831   6.361   5.767   5.665 -0.3383  0.1955  0.1926
    6MOL   H122 4832   6.295   5.611   5.710 -0.6683  0.6826  1.1961
    6MOL   H123 4833   6.144   5.879   5.680 -1.4605 -0.7343  0.1720
    6MOL   H124 4834   6.076   5.730   5.755  2.2537 -3.1977 -2.0918
    6MOL   H125 4835   6.104   5.882   5.929 -0.0288 -1.7997  0.4996
    6MOL   H126 4836   6.275   5.889   5.902 -0.4165  0.2545  0.8968
    6MOL   H127 4837   6.108   5.640   5.970  0.8225 -2.0876 -0.8825
    6MOL   H128 4838   6.282   5.631   5.944 -1.4027 -1.3240  0.0562
    6MOL   H129 4839   6.287   5.831   6.117 -0.8834  0.8202 -1.2108
    6MOL   H130 4840   6.129   5.795   6.153 -1.2254 -2.2329 -0.5038
    6MOL   H131 4841   6.350   5.587   6.182 -1.2352  0.3154 -1.6155
    6MOL   H132 4842   6.280   5.684   6.310 -0.6755 -2.0911  1.4683
    6MOL   H133 4843   6.139   5.527   6.350 -0.0379 -1.7484  0.1413
    6MOL   H134 4844   6.054   5.581   6.206 -1.5594 -2.3296  0.7718
    6MOL   H135 4845   6.251   5.351   6.229  0.5391  0.0559  1.4985
    6MOL   H136 4846   6.186   5.408   6.077  0.1323 -0.5101 -0.1196
    6MOL   H137 4847   5.960   5.362   6.145 -0.0956 -2.2428 -1.8046
    6MOL   H138 4848   5.988   5.301   6.299  0.0514 -0.8188  0.1429
    6MOL   H139 4849   5.768   4.873   6.142 -0.1256  0.4338 -0.1595
    6MOL   H140 4850   5.823   4.655   6.074 -0.2223 -0.0382  1.7184
    6MOL   H141 4851   6.227   4.780   5.976 -1.6066 -1.2268 -1.8031
    6MOL   H142 4852   6.176   4.992   6.034  0.2009 -0.8860 -2.8267
    6MOL   O143 4853   6.022   4.321   6.002 -0.4197  0.2942 -0.3119
    6MOL   C144 4854   5.963   4.287   5.879 -0.8331  0.4299  0.0713
    6MOL   C145 4855   6.003   4.153   5.834  0.1623 -0.5794 -0.0041
    6MOL   C146 4856   5.963   4.138   5.685 -0.5659  0.5960 -0.3352
    6MOL   C147 4857   5.950   3.997   5.641  0.3658  0.1865 -0.5344
    6MOL   C148 4858   5.936   3.975   5.490  0.3798 -0.0949 -0.2690
    6MOL   C149 4859   5.820   4.047   5.424 -0.1073  0.5087  0.3887
    6MOL   C150 4860   5.843   4.188   5.367 -0.2439 -0.2545  0.3725
    6MOL   C151 4861   5.716   4.256   5.321  0.0049 -0.4427 -0.5908
    6MOL   C152 4862   5.749   4.402   5.271 -0.7371 -0.5500  0.1519
    6MOL   C153 4863   5.635   4.470   5.192 -0.3798 -0.2367  0.0143
    6MOL   O154 4864   5.530   4.486   5.283  0.0807  0.0512  0.2424
    6MOL   C155 4865   5.451   4.594   5.256 -0.2989 -0.3033  0.6534
    6MOL   O156 4866   5.447   4.642   5.145 -0.1729  0.1054  0.1301
    6MOL   C157 4867   5.359   4.635   5.359 -0.3261 -0.3743 -0.6615
    6MOL   C158 4868   5.383   4.591   5.490  0.1142  1.0876  0.3407
    6MOL   C159 4869   5.311   4.645   5.594 -0.4332 -0.6160 -0.0756
    6MOL   C160 4870   5.210   4.743   5.574 -0.3530 -0.3339  0.1566
    6MOL   C161 4871   5.146   4.812   5.688  0.0368  0.4641  0.7860
    6MOL   O162 4872   5.079   4.917   5.665  0.3460 -0.6755 -0.0441
    6MOL   O163 4873   5.169   4.756   5.807  0.2997 -0.0091 -0.2860
    6MOL   C164 4874   5.176   4.780   5.444 -0.4630  0.2924  0.9367
    6MOL   C165 4875   5.253   4.723   5.339  0.0981 -0.0460  0.4964
    6MOL   H166 4876   5.854   4.277   5.880 -0.8558  0.1453 -1.9112
    6MOL   H167 4877   5.970   4.368   5.806  0.9633  0.8412  0.6671
    6MOL   H168 4878   5.954   4.080   5.899  1.0985 -2.4285 -1.3055
    6MOL   H169 4879   6.109   4.129   5.846  0.6303  1.6939  0.6681
    6MOL   H170 4880   5.872   4.190   5.655 -0.6367 -0.1294 -1.3706
    6MOL   H171 4881   6.046   4.180   5.630 -0.3572 -2.2638 -2.2713
    6MOL   H172 4882   5.876   3.946   5.703  1.2932  0.4008  0.7579
    6MOL   H173 4883   6.042   3.944   5.666 -1.6190 -2.4076  1.5245
    6MOL   H174 4884   6.028   4.010   5.443 -0.0506  0.6963 -0.5349
    6MOL   H175 4885   5.930   3.867   5.476  0.6242 -0.3476  1.4464
    6MOL   H176 4886   5.770   3.985   5.351  2.4787 -0.6819 -0.4059
    6MOL   H177 4887   5.736   4.062   5.492  0.6277 -0.0616  1.4504
    6MOL   H178 4888   5.877   4.258   5.443  1.5883 -1.5062  0.7378
    6MOL   H179 4889   5.923   4.196   5.294  1.0213  1.8628  1.9549
    6MOL   H180 4890   5.682   4.184   5.246  0.6738 -1.5141  0.1186
    6MOL   H181 4891   5.637   4.259   5.395 -0.5543  2.6430 -1.2374
    6MOL   H182 4892   5.836   4.393   5.206 -0.4982 -0.8993  0.5189
    6MOL   H183 4893   5.780   4.463   5.356  0.4954  1.1062 -1.4623
    6MOL   H184 4894   5.619   4.400   5.110  0.8808 -1.8121  1.0794
    6MOL   H185 4895   5.676   4.566   5.159 -2.4116  1.2976  1.7712
    6MOL   H186 4896   5.460   4.525   5.524 -1.8754 -0.5580  1.7900
    6MOL   H187 4897   5.337   4.623   5.696 -2.2751 -0.1109  0.5193
    6MOL   H188 4898   5.104   4.857   5.421 -0.1349 -0.5505 -3.2570
    6MOL   H189 4899   5.241   4.746   5.234 -0.0412  1.4504  0.8359
    6MOL   O190 4900   5.101   4.825   5.921  0.3575 -0.1138 -0.0580
    6MOL   C191 4901   5.197   4.901   5.991  0.1236 -0.3472  0.5570
    6MOL   C192 4902   5.246   4.824   6.113  0.1832  0.1017 -0.1138
    6MOL   C193 4903   5.337   4.705   6.076 -0.2611  0.8051  0.1967
    6MOL   C194 4904   5.358   4.609   6.197  0.0519 -0.1477 -0.4380
    6MOL   C195 4905   5.506   4.562   6.191 -0.2066  0.5948 -0.1315
    6MOL   C196 4906   5.529   4.475   6.318 -0.0041 -0.4852 -0.1449
    6MOL   C197 4907   5.671   4.417   6.317  0.0579 -0.1130 -0.0784
    6MOL   C198 4908   5.717   4.323   6.203  0.6073  0.0676  0.2185
    6MOL   C199 4909   5.667   4.179   6.186 -0.5682  0.4149  0.0439
    6MOL   C200 4910   5.516   4.159   6.158 -0.1039  0.4674  0.5186
    6MOL   O201 4911   5.493   4.211   6.023  0.0919 -0.0653  0.2163
    6MOL   C202 4912   5.377   4.266   5.978  0.2451  0.0641 -0.3679
    6MOL   O203 4913   5.288   4.306   6.055 -0.0086  0.5680 -0.4106
    6MOL   C204 4914   5.365   4.262   5.837 -0.5615 -0.5883  0.1187
    6MOL   C205 4915   5.238   4.285   5.784 -0.0144 -0.0392 -0.1978
    6MOL   C206 4916   5.201   4.273   5.645 -0.5535  0.0177  0.1960
    6MOL   C207 4917   5.308   4.236   5.552  0.4567 -0.2265  0.5459
    6MOL   C208 4918   5.284   4.236   5.404  0.2956  0.8734 -0.4687
    6MOL   O209 4919   5.373   4.204   5.324 -0.1113  0.1175 -0.7666
    6MOL   O210 4920   5.156   4.278   5.369  0.0777  0.3186 -0.4397
    6MOL   C211 4921   5.435   4.205   5.606 -1.1801  0.9794  0.1798
    6MOL   C212 4922   5.462   4.220   5.746  0.0964 -0.0981  0.5746
    6MOL   H213 4923   5.285   4.931   5.934 -0.9118  1.4861 -0.0961
    6MOL   H214 4924   5.155   4.992   6.032  1.1146  1.1702 -1.7476
    6MOL   H215 4925   5.172   4.790   6.187  1.3070  1.7645  1.8047
    6MOL   H216 4926   5.306   4.894   6.171 -1.2857  0.8308  0.5600
    6MOL   H217 4927   5.309   4.653   5.983  2.2769 -2.5920  1.2220
    6MOL   H218 4928   5.435   4.748   6.059  0.2722  1.0888  3.7302
    6MOL   H219 4929   5.282   4.531   6.198  1.1472 -1.2379  2.1187
    6MOL   H220 4930   5.333   4.654   6.293 -0.3123  0.1207 -0.6556
    6MOL   H221 4931   5.528   4.498   6.106  1.3511  0.2476  0.5105
    6MOL   H222 4932   5.576   4.646   6.192  0.5737 -0.0276  2.5842
    6MOL   H223 4933   5.507   4.534   6.407  0.0714  1.1791 -1.2097
    6MOL   H224 4934   5.465   4.388   6.326 -2.8292  1.2732 -2.6902
    6MOL   H225 4935   5.741   4.499   6.333  0.4298 -0.0146 -1.9755
    6MOL   H226 4936   5.683   4.360   6.409 -3.3780 -0.7520  0.0542
    6MOL   H227 4937   5.721   4.379   6.110 -1.5885  1.7447  1.1080
    6MOL   H228 4938   5.824   4.313   6.222 -0.2357 -1.6119  4.9839
    6MOL   H229 4939   5.700   4.127   6.277 -0.3438 -1.2456 -0.9622
    6MOL   H230 4940   5.728   4.135   6.107  0.1770  0.2327  0.7118
    6MOL   H231 4941   5.475   4.222   6.237  0.7835  0.3887  1.0450
    6MOL   H232 4942   5.468   4.061   6.163  1.4261 -0.1961  3.2021
    6MOL   H233 4943   5.153   4.319   5.841 -0.6922  0.3586 -1.4134
    6MOL   H234 4944   5.107   4.312   5.608  0.1264  2.0794  0.5556
    6MOL   H235 4945   5.513   4.171   5.540 -1.9496 -0.9861  0.2580
    6MOL   H236 4946   5.562   4.195   5.778  0.1039  0.7522  1.2427
    6MOL   O237 4947   5.128   4.279   5.224 -0.6267  0.4214 -0.2506
    6MOL   C238 4948   5.172   4.398   5.178 -0.1507  0.1722 -0.0559
    6MOL   C239 4949   5.113   4.418   5.043  0.8313  0.5502 -0.8380
    6MOL   C240 4950   5.149   4.555   4.980 -0.7304 -0.2431  0.3831
    6MOL   C241 4951   5.071   4.585   4.854  0.3589 -0.4919 -0.2137
    6MOL   C242 4952   5.089   4.491   4.740 -0.1746  0.0007 -0.4144
    6MOL   C243 4953   5.003   4.544   4.622  0.2507 -0.0924 -0.2627
    6MOL   C244 4954   4.854   4.587   4.650 -0.7010  0.8260 -0.3486
    6MOL   C245 4955   4.761   4.495   4.729 -0.0745  0.2711 -0.0575
    6MOL   C246 4956   4.609   4.527   4.726 -0.4613 -1.1056  0.0581
    6MOL   C247 4957   4.529   4.423   4.802 -0.3935 -0.5327 -1.4158
    6MOL   O248 4958   4.394   4.456   4.782 -0.3807  0.5399 -0.1414
    6MOL   C249 4959   4.311   4.407   4.875 -0.2965 -0.4029  0.4363
    6MOL   O250 4960   4.335   4.307   4.935 -0.5218  0.3243 -0.1360
    6MOL   C251 4961   4.179   4.484   4.891 -0.6379 -0.0168 -0.1442
    6MOL   C252 4962   4.075   4.437   4.976  0.0975 -0.0637  0.1371
    6MOL   C253 4963   3.960   4.507   4.993 -0.6329 -0.6584  1.1241
    6MOL   C254 4964   3.949   4.633   4.929  1.1499 -0.2999 -0.6245
    6MOL   C255 4965   3.827   4.720   4.946  0.2047 -0.1940  0.7696
    6MOL   O256 4966   3.720   4.685   4.997 -0.0183 -0.1997 -0.6557
    6MOL   O257 4967   3.842   4.835   4.884 -0.2998 -0.0921 -0.6658
    6MOL   C258 4968   4.051   4.677   4.842  0.3642  0.3124 -0.2954
    6MOL   C259 4969   4.168   4.611   4.830 -0.0890  0.2527 -0.0166
    6MOL   H260 4970   5.121   4.470   5.242  0.0189 -1.9739  2.5602
    6MOL   H261 4971   5.278   4.426   5.179 -0.7820  2.6775  0.0943
    6MOL   H262 4972   5.006   4.408   5.061  1.2536  0.1394  1.6900
    6MOL   H263 4973   5.120   4.336   4.971 -0.9949 -0.9903  0.6630
    6MOL   H264 4974   5.116   4.630   5.051 -1.1857 -2.7882  2.9636
    6MOL   H265 4975   5.257   4.565   4.966 -1.1386  1.1896 -1.8748
    6MOL   H266 4976   5.105   4.686   4.831  1.2334 -0.5438  0.8094
    6MOL   H267 4977   4.966   4.601   4.879  0.4903  0.3651 -0.1929
    6MOL   H268 4978   5.188   4.473   4.698 -0.4927 -0.2409 -1.0613
    6MOL   H269 4979   5.049   4.393   4.765  1.2371 -0.7241 -0.9436
    6MOL   H270 4980   5.059   4.630   4.585  0.4909  0.4798  1.3619
    6MOL   H271 4981   5.005   4.464   4.549  0.1250 -1.3644  1.1100
    6MOL   H272 4982   4.859   4.691   4.683  0.4513  0.8957 -0.7172
    6MOL   H273 4983   4.800   4.600   4.556 -0.6151 -0.7547 -0.6237
    6MOL   H274 4984   4.765   4.395   4.686 -0.0866 -0.0508  0.6978
    6MOL   H275 4985   4.801   4.468   4.826 -1.2926  2.6642  1.1471
    6MOL   H276 4986   4.568   4.536   4.625  1.7866 -1.6168 -0.9442
    6MOL   H277 4987   4.582   4.621   4.772  3.2182 -0.1353  0.4030
    6MOL   H278 4988   4.558   4.426   4.907 -4.1012  0.7298 -0.3351
    6MOL   H279 4989   4.541   4.326   4.753  1.8359 -0.6575 -0.6674
    6MOL   H280 4990   4.082   4.343   5.030  0.4091 -0.4226 -0.5229
    6MOL   H281 4991   3.885   4.475   5.064 -1.2767  0.1089  0.8042
    6MOL   H282 4992   4.044   4.768   4.784  1.5649  0.6432  0.0484
    6MOL   H283 4993   4.245   4.663   4.776 -1.0707  1.7869  0.0217
    6MOL   O284 4994   3.721   4.919   4.871  0.2936 -0.3519 -0.1304
    6MOL   C285 4995   3.671   4.893   4.742 -0.0631 -0.6454  0.0501
    6MOL   C286 4996   3.563   4.987   4.697 -0.0038  0.2362  0.5148
    6MOL   C287 4997   3.603   5.127   4.662 -0.3030 -0.4136 -0.0156
    6MOL   C288 4998   3.702   5.135   4.549 -0.2842  0.6609  0.1492
    6MOL   C289 4999   3.800   5.259   4.540  0.6142 -0.9220 -0.2516
    6MOL   C290 5000   3.743   5.378   4.459 -0.0150 -0.2774 -0.3043
    6MOL   C291 5001   3.626   5.455   4.522 -0.1926  0.2760  1.2234
    6MOL   C292 5002   3.599   5.590   4.461 -0.0902  0.0864  0.0490
    6MOL   C293 5003   3.492   5.671   4.538 -0.5484 -0.8867 -0.3750
    6MOL   C294 5004   3.468   5.803   4.472 -0.1127  0.3806  0.2589
    6MOL   O295 5005   3.387   5.894   4.550  0.3786  0.1740  0.1873
    6MOL   C296 5006   3.256   5.864   4.589 -0.4107 -0.4168 -0.2719
    6MOL   O297 5007   3.190   5.761   4.556  0.1850  0.2632 -0.6384
    6MOL   C298 5008   3.204   5.975   4.681 -0.5123 -0.7499  0.3623
    6MOL   C299 5009   3.065   5.979   4.723 -0.2265  0.9125  0.1120
    6MOL   C300 5010   3.021   6.094   4.788  0.0170 -0.7432  0.0563
    6MOL   C301 5011   3.109   6.204   4.814  0.1376 -0.0855  0.8541
    6MOL   C302 5012   3.059   6.322   4.887  0.7255  0.6838  0.2926
    6MOL   O303 5013   2.943   6.330   4.934 -0.0322  0.6315  0.6751
    6MOL   O304 5014   3.157   6.418   4.916 -0.5208 -0.2556 -0.2724
    6MOL   C305 5015   3.243   6.192   4.785 -0.2058  0.1985  0.4422
    6MOL   C306 5016   3.284   6.079   4.710  0.0188 -0.3895  0.8162
    6MOL   H307 5017   3.755   4.876   4.674  0.7556  2.0116  0.3371
    6MOL   H308 5018   3.622   4.796   4.741  0.4140 -0.8803 -1.2666
    6MOL   H309 5019   3.481   4.992   4.769 -0.1758 -0.7712  0.3889
    6MOL   H310 5020   3.513   4.939   4.613  0.0242  0.2511  0.4907
    6MOL   H311 5021   3.515   5.184   4.633  0.6170  0.5805 -0.8453
    6MOL   H312 5022   3.645   5.166   4.755  0.1796 -0.2407 -0.3086
    6MOL   H313 5023   3.645   5.122   4.457  1.4547  3.3259 -1.3512
    6MOL   H314 5024   3.770   5.049   4.550  0.9159  1.5567 -2.2620
    6MOL   H315 5025   3.839   5.290   4.637 -1.7271 -0.5282  0.5873
    6MOL   H316 5026   3.883   5.234   4.475  1.1229  1.2837 -0.4831
    6MOL   H317 5027   3.817   5.455   4.436 -1.7395  1.4823 -0.0670
    6MOL   H318 5028   3.706   5.340   4.364  0.1094 -1.6270  0.1784
    6MOL   H319 5029   3.539   5.390   4.510 -0.1360  0.7560 -2.0057
    6MOL   H320 5030   3.611   5.461   4.630  0.9314 -0.9357  1.4576
    6MOL   H321 5031   3.691   5.647   4.467 -1.1102  2.3436 -3.6877
    6MOL   H322 5032   3.556   5.574   4.362  0.3768 -1.0592  0.0302
    6MOL   H323 5033   3.524   5.680   4.642  0.6906 -1.3965 -0.6939
    6MOL   H324 5034   3.401   5.614   4.520 -1.1747 -0.2416  0.6871
    6MOL   H325 5035   3.417   5.785   4.378 -0.3046  0.8663  0.2710
    6MOL   H326 5036   3.565   5.853   4.469  1.0814 -1.8601  0.2710
    6MOL   H327 5037   2.996   5.898   4.705  1.5260 -0.4140 -0.8681
    6MOL   H328 5038   2.919   6.093   4.823 -0.5296  1.5177 -1.3114
    6MOL   H329 5039   3.310   6.275   4.801 -1.6183  1.4269  0.0792
    6MOL   H330 5040   3.388   6.089   4.681 -0.7422  0.6714 -1.7197
    6MOL   O331 5041   3.098   6.546   4.958  0.0140 -0.2625 -0.3273
    6MOL   C332 5042   3.074   6.550   5.099  0.0157  0.1154 -0.1164
    6MOL   C333 5043   2.992   6.674   5.136 -0.7182  0.8163  0.4910
    6MOL   C334 5044   3.084   6.805   5.138 -0.3603  0.3669  0.2101
    6MOL   C335 5045   3.022   6.928   5.208  0.2231  0.0181 -0.3879
    6MOL   C336 5046   3.129   7.042   5.212  0.5011  0.1549  0.5560
    6MOL   C337 5047   3.092   7.165   5.286  0.0660 -0.2756  0.0735
    6MOL   C338 5048   3.214   7.249   5.330  0.7870 -0.1476  0.2593
    6MOL   C339 5049   3.295   7.196   5.447 -0.4788 -0.2475 -0.3386
    6MOL   C340 5050   3.432   7.264   5.457  0.5819  0.1348 -0.0164
    6MOL   C341 5051   3.525   7.206   5.559  0.3569  0.1187  0.0604
    6MOL   O342 5052   3.633   7.293   5.571 -0.2217 -0.0478  0.1259
    6MOL   C343 5053   3.736   7.265   5.647 -0.4995 -0.0622 -0.4606
    6MOL   O344 5054   3.757   7.153   5.690  0.1390  0.6908 -0.5533
    6MOL   C345 5055   3.832   7.380   5.655 -0.3261 -0.0190  0.4323
    6MOL   C346 5056   3.790   7.515   5.633  0.0164  0.2202  0.8628
    6MOL   C347 5057   3.882   7.616   5.636  0.3799 -0.5889  0.0331
    6MOL   C348 5058   4.019   7.593   5.651 -0.1964 -0.1244 -0.3120
    6MOL   C349 5059   4.119   7.705   5.646  0.1233 -0.3522  0.2078
    6MOL   O350 5060   4.242   7.693   5.664  0.5107 -0.1438 -0.5453
    6MOL   O351 5061   4.055   7.818   5.623 -0.7089 -0.0493 -0.1900
    6MOL   C352 5062   4.056   7.465   5.683 -0.0442 -0.0191  0.1663
    6MOL   C353 5063   3.969   7.355   5.685  0.0837 -1.0206 -0.6567
    6MOL   H354 5064   3.030   6.456   5.134 -0.7330  1.0577  1.5335
    6MOL   H355 5065   3.169   6.542   5.151  0.9586  0.1376 -1.8025
    6MOL   H356 5066   2.945   6.661   5.234 -1.9477 -1.4806 -0.3461
    6MOL   H357 5067   2.908   6.694   5.069  0.4575 -0.2839 -1.3592
    6MOL   H358 5068   3.176   6.768   5.183 -2.2931 -1.3603  2.7983
    6MOL   H359 5069   3.113   6.826   5.034 -1.9091 -0.2890 -0.3607
    6MOL   H360 5070   3.003   6.895   5.310  2.0565  0.6615  0.1871
    6MOL   H361 5071   2.932   6.967   5.162  0.3027  0.5494 -0.0919
    6MOL   H362 5072   3.217   7.006   5.265 -0.9386 -2.2295  1.3959
    6MOL   H363 5073   3.174   7.075   5.118 -0.1330  1.0022  0.5405
    6MOL   H364 5074   3.032   7.226   5.220  0.5322  0.4604  0.3310
    6MOL   H365 5075   3.033   7.140   5.375  1.3450  1.0089  1.3105
    6MOL   H366 5076   3.275   7.280   5.246  0.7900 -1.7017 -0.3216
    6MOL   H367 5077   3.171   7.343   5.367 -0.4137 -0.3873 -0.5006
    6MOL   H368 5078   3.244   7.192   5.544 -2.1880  1.4110 -1.1368
    6MOL   H369 5079   3.307   7.090   5.421 -2.0739 -0.6349  0.4280
    6MOL   H370 5080   3.410   7.369   5.476 -3.2554 -0.2564 -1.6862
    6MOL   H371 5081   3.484   7.272   5.362 -0.5984  2.9487 -0.4669
    6MOL   H372 5082   3.567   7.117   5.513  1.5291  1.1727 -0.9344
    6MOL   H373 5083   3.465   7.188   5.648 -0.3912  0.3242 -0.3941
    6MOL   H374 5084   3.687   7.546   5.617 -0.6248 -1.6452  1.2565
    6MOL   H375 5085   3.854   7.720   5.621  0.6866 -0.2614  1.6130
    6MOL   H376 5086   4.159   7.441   5.705  1.1878  3.7929 -1.0595
    6MOL   H377 5087   3.994   7.252   5.705  2.4138 -0.7147 -1.8114
    6MOL   O378 5088   4.138   7.919   5.547 -0.3345 -0.0189 -0.1138
    6MOL   C379 5089   4.108   7.893   5.406  0.3410 -0.1480 -0.5504
    6MOL   C380 5090   4.225   7.913   5.312 -0.2240 -0.0967  0.5818
    6MOL   C381 5091   4.352   7.824   5.341 -0.2253 -0.0266  0.4852
    6MOL   C382 5092   4.325   7.673   5.314 -0.4796 -0.4594  0.4700
    6MOL   C383 5093   4.452   7.582   5.316 -0.3081  0.0649 -0.4368
    6MOL   C384 5094   4.432   7.466   5.222  0.1849 -0.6808  0.4867
    6MOL   C385 5095   4.537   7.361   5.231  0.3481 -0.6948  0.1864
    6MOL   C386 5096   4.529   7.274   5.102  0.2258 -0.6881 -0.3088
    6MOL   C387 5097   4.659   7.186   5.077 -0.2929  0.4274 -0.7774
    6MOL   C388 5098   4.676   7.151   4.930 -0.2717  0.6255 -0.0975
    6MOL   O389 5099   4.790   7.069   4.902  0.3456  0.2551 -0.2554
    6MOL   C390 5100   4.777   6.935   4.918 -0.0525  0.4579  0.6964
    6MOL   O391 5101   4.674   6.885   4.969 -0.3117 -0.0283  0.1893
    6MOL   C392 5102   4.887   6.850   4.860  0.6116  0.0615 -0.2008
    6MOL   C393 5103   4.874   6.705   4.856 -0.5768 -0.3294  0.2593
    6MOL   C394 5104   4.984   6.632   4.799  0.4681  0.1865 -0.0240
    6MOL   C395 5105   5.108   6.697   4.775 -0.1708  0.2174 -0.1316
    6MOL   C396 5106   5.234   6.621   4.723  0.5381 -0.5725 -0.0300
    6MOL   O397 5107   5.333   6.678   4.680  0.3055  0.1992 -0.2894
    6MOL   O398 5108   5.225   6.488   4.731  0.2198  0.0206 -0.2398
    6MOL   C399 5109   5.124   6.833   4.793 -0.2563 -0.1691  0.6206
    6MOL   C400 5110   5.014   6.911   4.827 -1.0667  0.1449 -0.7625
    6MOL   H401 5111   4.072   7.791   5.398  0.6106 -0.2866 -0.0385
    6MOL   H402 5112   4.033   7.960   5.364  3.7798  2.0896 -3.4732
    6MOL   H403 5113   4.260   0.034   5.338  2.2453 -0.5467 -0.8055
    6MOL   H404 5114   4.202   7.921   5.206 -0.5790 -2.1649  0.4851
    6MOL   H405 5115   4.435   7.861   5.281  0.7332  1.2756  2.5760
    6MOL   H406 5116   4.393   7.839   5.441  0.4013  1.8709 -0.0342
    6MOL   H407 5117   4.282   7.657   5.215 -1.5533  1.4132  0.6242
    6MOL   H408 5118   4.256   7.627   5.384 -2.0781 -0.6070 -1.1534
    6MOL   H409 5119   4.536   7.635   5.271 -1.3749  2.4371  0.3001
    6MOL   H410 5120   4.470   7.542   5.416  1.6424  0.7812 -0.4766
    6MOL   H411 5121   4.330   7.426   5.223  0.6001 -1.8518 -1.7380
    6MOL   H412 5122   4.442   7.514   5.124  1.9905  0.0962  1.0445
    6MOL   H413 5123   4.631   7.414   5.238 -0.4385  0.8441 -0.7220
    6MOL   H414 5124   4.523   7.300   5.320  1.1624  0.9853  1.4806
    6MOL   H415 5125   4.437   7.218   5.114 -0.0278  0.0310  1.1776
    6MOL   H416 5126   4.518   7.336   5.013  0.7154 -1.4114 -0.8832
    6MOL   H417 5127   4.655   7.110   5.155 -0.8175  1.5014  0.2611
    6MOL   H418 5128   4.740   7.253   5.108 -1.2254  0.8275  0.8924
    6MOL   H419 5129   4.687   7.239   4.866 -0.5372  0.7638  0.0437
    6MOL   H420 5130   4.585   7.104   4.893  0.8882 -0.3217 -1.7819
    6MOL   H421 5131   4.780   6.654   4.871 -0.6711 -0.9614 -2.2739
    6MOL   H422 5132   4.984   6.524   4.801 -1.1092  0.1952  1.8346
    6MOL   H423 5133   5.218   6.873   4.756 -1.0797  0.6061 -0.7022
    6MOL   H424 5134   5.018   7.018   4.837 -0.6752 -0.1136  2.7183
    6MOL   O425 5135   5.354   6.422   4.715  0.4976 -0.3128 -0.2656
    6MOL   C426 5136   5.369   6.363   4.584  0.6762  0.5727 -0.1929
    6MOL   C427 5137   5.281   6.234   4.566  0.0988  0.2519 -0.4073
    6MOL   C428 5138   5.129   6.270   4.549 -0.4016  0.0670  0.0625
    6MOL   C429 5139   5.052   6.156   4.493 -0.1758  0.0662  0.3146
    6MOL   C430 5140   4.904   6.198   4.491  0.9003 -0.5311 -0.4155
    6MOL   C431 5141   4.814   6.072   4.458  0.1973  0.6743 -0.2045
    6MOL   C432 5142   4.837   6.005   4.323  0.1144 -0.3178 -0.1405
    6MOL   C433 5143   4.760   5.874   4.308 -0.1148 -0.0966 -0.1837
    6MOL   C434 5144   4.773   5.805   4.176 -0.1067  0.1202  0.0656
    6MOL   C435 5145   4.680   5.679   4.146 -0.7742 -0.0842  0.0905
    6MOL   O436 5146   4.550   5.723   4.131  0.2066 -0.3484 -0.3479
    6MOL   C437 5147   4.447   5.650   4.168 -0.0314 -0.3065 -0.1605
    6MOL   O438 5148   4.456   5.544   4.225 -0.1684 -0.6581 -0.8387
    6MOL   C439 5149   4.317   5.698   4.115  0.0093  0.3375  0.2481
    6MOL   C440 5150   4.298   5.836   4.114 -0.7918  0.1756  0.0008
    6MOL   C441 5151   4.187   5.895   4.050 -0.0716 -0.2425  0.2069
    6MOL   C442 5152   4.081   5.813   4.001 -0.3140 -0.0081  0.3834
    6MOL   C443 5153   3.960   5.873   3.928 -0.9347  0.0095  0.0143
    6MOL   O444 5154   3.871   5.809   3.879 -0.4382  0.0138 -0.0651
    6MOL   O445 5155   3.964   6.002   3.918  0.4802  0.2933 -0.3905
    6MOL   C446 5156   4.089   5.675   4.018  0.1717 -0.4361 -0.1291
    6MOL   C447 5157   4.208   5.617   4.074 -0.5228  0.3656 -0.4007
    6MOL   H448 5158   5.350   6.427   4.498 -0.7442  0.8243  0.3046
    6MOL   H449 5159   5.475   6.338   4.581  0.9654  1.8861 -2.0763
    6MOL   H450 5160   5.298   6.159   4.644  1.9128 -0.0356 -1.0716
    6MOL   H451 5161   5.307   6.203   4.465  2.6274  0.8837  0.0151
    6MOL   H452 5162   5.078   6.302   4.640 -1.8720  0.4467 -0.8768
    6MOL   H453 5163   5.119   6.356   4.483 -0.4329  0.9629  1.2199
    6MOL   H454 5164   5.070   6.060   4.542  4.0011 -1.5431 -3.9709
    6MOL   H455 5165   5.090   6.133   4.394 -2.0576 -1.8537  0.0017
    6MOL   H456 5166   4.881   6.228   4.593  0.1116  1.0463 -1.0505
    6MOL   H457 5167   4.887   6.288   4.432  0.9877  0.0510  0.4419
    6MOL   H458 5168   4.833   5.995   4.533  0.4851  1.4057  0.4787
    6MOL   H459 5169   4.706   6.088   4.466 -0.1097 -0.4263 -1.8368
    6MOL   H460 5170   4.810   6.074   4.243 -0.2373  0.4661  0.6419
    6MOL   H461 5171   4.938   5.971   4.299 -0.0140 -0.9374  0.1873
    6MOL   H462 5172   4.791   5.800   4.381 -0.9683 -1.9025 -1.6130
    6MOL   H463 5173   4.654   5.892   4.328 -0.5451 -1.5174 -1.1564
    6MOL   H464 5174   4.876   5.774   4.156 -0.6828 -0.8027 -1.5671
    6MOL   H465 5175   4.767   5.882   4.099 -1.4540  3.0719  3.0176
    6MOL   H466 5176   4.694   5.609   4.228  2.5704 -1.2377 -1.3821
    6MOL   H467 5177   4.708   5.626   4.055  1.1763  1.2701 -0.1374
    6MOL   H468 5178   4.363   5.896   4.176 -0.2207 -1.9083  1.4730
    6MOL   H469 5179   4.183   6.000   4.028 -0.9187  0.1311  2.0665
    6MOL   H470 5180   4.018   5.603   3.981 -0.7531  1.2585 -1.6737
    6MOL   H471 5181   4.221   5.510   4.072 -0.1327  0.3626  1.3693
    6MOL   O472 5182   3.842   6.064   3.864  0.0895  0.4585 -0.0706
    6MOL   C473 5183   3.785   6.129   3.969  0.2261 -0.3740  0.1788
    6MOL   C474 5184   3.840   6.271   3.975 -0.1304 -0.6780 -0.3433
    6MOL   C475 5185   3.750   6.357   4.069 -0.2822 -0.4282 -0.7420
    6MOL   C476 5186   3.780   6.499   4.101 -0.3786 -0.1979  0.8818
    6MOL   C477 5187   3.695   6.568   4.205  0.3262  0.0699 -0.2745
    6MOL   C478 5188   3.775   6.669   4.284  0.0581 -0.3452 -0.4762
    6MOL   C479 5189   3.833   6.775   4.192 -0.3698 -0.3533 -0.2557
    6MOL   C480 5190   3.921   6.879   4.262  0.4535  0.4574 -0.0904
    6MOL   C481 5191   3.997   6.969   4.159 -0.4942  0.5401  0.3544
    6MOL   C482 5192   3.904   7.070   4.087 -0.5295  0.6892 -0.7819
    6MOL   O483 5193   3.983   7.154   4.003 -0.4491 -0.0288 -0.6755
    6MOL   C484 5194   3.987   7.144   3.868 -0.1016 -0.0280  0.4114
    6MOL   O485 5195   3.918   7.061   3.803  0.5003 -0.1744  0.1374
    6MOL   C486 5196   4.079   7.240   3.796 -0.2757 -0.0165  0.9685
    6MOL   C487 5197   4.089   7.233   3.652  0.4590 -0.3797 -0.1108
    6MOL   C488 5198   4.180   7.320   3.592  0.8227 -0.0411 -0.0699
    6MOL   C489 5199   4.266   7.413   3.671 -0.5868  0.1352  0.1221
    6MOL   C490 5200   4.388   7.479   3.602 -0.1420 -0.5788 -0.2078
    6MOL   O491 5201   4.480   7.536   3.665  0.1640  0.2379 -0.7339
    6MOL   O492 5202   4.379   7.473   3.469  0.6725 -0.1354  0.2379
    6MOL   C493 5203   4.257   7.412   3.810 -1.1887 -0.1807 -0.3546
    6MOL   C494 5204   4.157   7.332   3.869 -0.0329  0.7451 -0.5690
    6MOL   H495 5205   3.679   6.137   3.944  0.4328 -0.0925 -0.6163
    6MOL   H496 5206   3.784   6.082   4.068 -1.2385  0.1839  0.4562
    6MOL   H497 5207   3.841   6.308   3.873  0.1276 -0.6881 -0.3444
    6MOL   H498 5208   3.947   6.273   3.998 -0.0459  0.3109 -0.8052
    6MOL   H499 5209   3.652   6.359   4.021 -0.8589  0.1205  0.4184
    6MOL   H500 5210   3.739   6.302   4.163 -4.2684 -0.4137 -1.0862
    6MOL   H501 5211   3.793   6.554   4.008 -0.1769 -0.7032  0.6078
    6MOL   H502 5212   3.882   6.494   4.139  0.3165  0.6335 -0.8404
    6MOL   H503 5213   3.616   6.618   4.148  1.2977 -0.7725 -2.4307
    6MOL   H504 5214   3.660   6.498   4.281 -0.5813 -0.1596 -0.8896
    6MOL   H505 5215   3.716   6.712   4.365  3.0580  1.3183  0.9300
    6MOL   H506 5216   3.851   6.610   4.336  1.4465  0.1207 -1.9313
    6MOL   H507 5217   3.887   6.730   4.109 -1.2368  0.8161 -1.4813
    6MOL   H508 5218   3.754   6.832   4.143 -0.5278  0.6612  1.1423
    6MOL   H509 5219   3.866   6.940   4.334  0.0311  0.3814 -0.3489
    6MOL   H510 5220   3.995   6.835   4.328  2.0793  1.2387 -1.3630
    6MOL   H511 5221   4.034   6.904   4.079  1.1945 -0.8149  2.1575
    6MOL   H512 5222   4.086   7.017   4.200  1.0689  0.0325 -2.2875
    6MOL   H513 5223   3.849   7.134   4.156  1.5968  0.7747  0.8968
    6MOL   H514 5224   3.830   7.020   4.023 -0.6979 -0.8623  0.5693
    6MOL   H515 5225   4.047   7.159   3.586  0.2262  1.2866 -1.8552
    6MOL   H516 5226   4.191   7.310   3.485 -1.1175  0.2373 -0.3175
    6MOL   H517 5227   4.317   7.479   3.870 -1.0236  1.1995 -2.0292
    6MOL   H518 5228   4.143   7.340   3.976  0.7611 -1.6484 -0.2543
    6MOL   O519 5229   4.484   7.560   3.390  0.6848  0.1940  0.2106
    6MOL   C520 5230   4.605   7.493   3.371  1.0086 -0.1592  0.3791
    6MOL   C521 5231   4.701   7.576   3.279  0.4524  0.4451  0.1765
    6MOL   C522 5232   4.673   7.589   3.129  0.4298 -0.0982  0.0844
    6MOL   C523 5233   4.762   7.697   3.058 -0.0290 -0.0757 -0.1108
    6MOL   C524 5234   4.755   7.710   2.905  0.4382 -0.2575 -0.1295
    6MOL   C525 5235   4.867   7.795   2.851  0.1530  0.2026  0.2270
    6MOL   C526 5236   4.857   7.807   2.699  0.4267  0.1879  0.8108
    6MOL   C527 5237   4.901   7.687   2.611  0.0461 -0.7008 -0.0976
    6MOL   C528 5238   4.868   7.712   2.460  0.1225  0.7102  0.0367
    6MOL   C529 5239   4.880   7.587   2.375  0.3539 -0.0411 -0.2111
    6MOL   O530 5240   4.824   7.483   2.449 -0.8085 -0.6883 -0.3685
    6MOL   C531 5241   4.823   7.361   2.392 -0.1684 -0.4934  0.5132
    6MOL   O532 5242   4.876   7.333   2.286 -0.0183  0.2872 -0.0823
    6MOL   C533 5243   4.757   7.256   2.481 -0.2046  0.1382 -0.0235
    6MOL   C534 5244   4.772   7.118   2.455 -0.1708 -0.5138  0.1832
    6MOL   C535 5245   4.712   7.022   2.540  0.2853 -0.2206 -0.0534
    6MOL   C536 5246   4.630   7.061   2.646  0.0304 -1.2284 -0.5256
    6MOL   C537 5247   4.550   6.965   2.725 -0.5863 -0.0409 -0.4916
    6MOL   O538 5248   4.572   6.842   2.716  0.5510  0.6126  0.4757
    6MOL   O539 5249   4.459   7.015   2.801  0.3534  0.1230 -0.0895
    6MOL   C540 5250   4.614   7.200   2.670  0.0610 -0.3142 -0.1036
    6MOL   C541 5251   4.679   7.300   2.594 -0.4212  0.3354 -0.1745
    6MOL   H542 5252   4.640   7.465   3.471  0.1550 -1.2703  0.3842
    6MOL   H543 5253   4.576   7.397   3.329 -1.9978  0.0055  1.9178
    6MOL   H544 5254   4.801   7.534   3.288  0.2465 -0.2733 -0.8590
    6MOL   H545 5255   4.694   7.678   3.318  1.9490  0.8566 -0.6264
    6MOL   H546 5256   4.690   7.490   3.086  0.5193  0.0702 -0.2741
    6MOL   H547 5257   4.571   7.623   3.113  0.6083  0.2950 -0.2063
    6MOL   H548 5258   4.866   7.675   3.082 -0.1835  1.5347  2.2493
    6MOL   H549 5259   4.742   7.799   3.092 -1.8932 -0.3786 -0.2656
    6MOL   H550 5260   4.739   7.615   2.855  0.0563  1.6690 -3.9051
    6MOL   H551 5261   4.667   7.767   2.874 -1.2340 -2.8112 -0.2549
    6MOL   H552 5262   4.862   7.894   2.897 -0.7360  0.2984 -0.0863
    6MOL   H553 5263   4.959   7.753   2.892  0.2253  0.2231  0.0858
    6MOL   H554 5264   4.756   7.829   2.664  0.3111 -2.3862 -0.5843
    6MOL   H555 5265   4.910   7.895   2.665  0.4363 -0.2256 -0.2610
    6MOL   H556 5266   5.003   7.652   2.627  0.0039 -0.4191  0.8241
    6MOL   H557 5267   4.845   7.605   2.655 -2.2986  0.4331 -0.9032
    6MOL   H558 5268   4.941   7.784   2.423  0.2313  0.9544  0.7273
    6MOL   H559 5269   4.766   7.746   2.444 -0.7126 -1.2953  0.8577
    6MOL   H560 5270   4.987   7.570   2.366  0.6682 -0.5978  3.7020
    6MOL   H561 5271   4.828   7.605   2.281 -0.3848  0.1430  0.2234
    6MOL   H562 5272   4.812   7.084   2.361  1.5664 -1.4682  1.2533
    6MOL   H563 5273   4.704   6.920   2.504 -0.9585 -0.0368 -0.3070
    6MOL   H564 5274   4.558   7.233   2.756 -0.9547  1.6592 -1.4727
    6MOL   H565 5275   4.662   7.405   2.611 -1.1274  0.4133 -1.3531
    6MOL   O566 5276   4.381   6.905   2.874 -0.5032 -0.3476 -0.2350
    6MOL   C567 5277   4.255   6.914   2.821 -0.1700  0.0904  0.0142
    6MOL   C568 5278   4.182   6.779   2.831  0.7576  0.0411  0.2224
    6MOL   C569 5279   4.127   6.736   2.974  0.2948 -0.5607 -0.2572
    6MOL   C570 5280   4.087   6.579   2.976  0.5347 -0.0182 -0.2930
    6MOL   C571 5281   4.081   6.525   3.126 -0.8473 -1.1533  0.1785
    6MOL   C572 5282   4.048   6.380   3.124 -0.6619  0.0013 -0.2546
    6MOL   C573 5283   4.165   6.277   3.141 -0.0277 -0.4136 -0.2359
    6MOL   C574 5284   4.119   6.130   3.139  0.9040  0.9529  0.6037
    6MOL   C575 5285   4.232   6.028   3.131  0.0863 -0.1451  0.5657
    6MOL   C576 5286   4.189   5.894   3.067  0.6420 -0.9881 -0.1706
    6MOL   O577 5287   4.301   5.807   3.078 -0.1138 -0.0013  0.1541
    6MOL   C578 5288   4.355   5.746   2.975 -0.2963 -0.4733  0.5349
    6MOL   O579 5289   4.303   5.731   2.864  0.0972  0.7481  0.2070
    6MOL   C580 5290   4.485   5.681   3.007  0.2564 -0.0976 -0.1568
    6MOL   C581 5291   4.550   5.695   3.133 -0.0588  0.4694  0.5199
    6MOL   C582 5292   4.671   5.625   3.151  0.3436 -0.0666 -0.5739
    6MOL   C583 5293   4.725   5.538   3.052 -0.2324  0.1827  0.2887
    6MOL   C584 5294   4.845   5.455   3.076 -0.5373  0.0240  0.1518
    6MOL   O585 5295   4.895   5.393   2.984  0.2537 -0.0624  0.1580
    6MOL   O586 5296   4.896   5.467   3.197  0.2052 -0.1481 -0.4294
    6MOL   C587 5297   4.662   5.529   2.928  0.0329 -0.5596 -0.5095
    6MOL   C588 5298   4.542   5.595   2.907 -0.3184 -0.0838  0.8319
    6MOL   H589 5299   4.190   6.985   2.872 -0.7929 -1.6421  1.6914
    6MOL   H590 5300   4.270   6.949   2.719 -1.0848  1.2248  0.2612
    6MOL   H591 5301   4.254   6.707   2.793  1.6098  1.7857 -1.5851
    6MOL   H592 5302   4.096   6.771   2.765  0.4911  1.1764  0.4232
    6MOL   H593 5303   4.207   6.761   3.044 -1.6805 -0.9977  2.2258
    6MOL   H594 5304   4.048   6.804   3.002  1.8180  0.6342  1.2589
    6MOL   H595 5305   4.170   6.523   2.932  1.6519  1.0954  0.3593
    6MOL   H596 5306   4.001   6.568   2.910  0.4185 -1.7012  0.1212
    6MOL   H597 5307   4.162   6.547   3.195 -0.9429  0.0660 -0.0772
    6MOL   H598 5308   4.000   6.588   3.164  0.3124  0.4999 -0.0490
    6MOL   H599 5309   3.996   6.377   3.219 -1.6651  2.0794 -0.6908
    6MOL   H600 5310   3.978   6.362   3.043 -0.1270 -0.4863 -0.6129
    6MOL   H601 5311   4.221   6.293   3.049  0.0236 -1.6124 -0.4285
    6MOL   H602 5312   4.218   6.308   3.230 -0.5209 -0.1646 -0.0232
    6MOL   H603 5313   4.059   6.100   3.225 -1.6134 -0.1972 -1.4853
    6MOL   H604 5314   4.063   6.128   3.046  0.6819 -0.6512  0.7635
    6MOL   H605 5315   4.263   6.019   3.235 -0.2324 -0.1933  0.6578
    6MOL   H606 5316   4.322   6.059   3.078  0.7756 -1.3076  1.0395
    6MOL   H607 5317   4.160   5.902   2.963 -2.3470  1.1496  0.7399
    6MOL   H608 5318   4.099   5.852   3.113  0.8285 -0.6999  0.4673
    6MOL   H609 5319   4.496   5.741   3.214 -0.5860 -1.1103  1.0958
    6MOL   H610 5320   4.727   5.627   3.244 -0.5636  0.4694 -0.0233
    6MOL   H611 5321   4.697   5.459   2.854  1.0888  2.1400 -2.6457
    6MOL   H612 5322   4.477   5.583   2.822  0.3078  0.6734  0.2383
    6MOL   O613 5323   5.035   5.410   3.202 -0.8259  0.8064 -0.4034
    6MOL   C614 5324   5.126   5.520   3.212  0.1232 -0.2139 -0.0872
    6MOL   C615 5325   5.092   5.619   3.333  0.4240  0.2555 -0.0009
    6MOL   C616 5326   5.089   5.537   3.461  0.7670  0.5924  0.5716
    6MOL   C617 5327   5.116   5.618   3.584 -0.0517  0.7753 -0.0648
    6MOL   C618 5328   5.042   5.753   3.613  0.2911  0.4402  0.0199
    6MOL   C619 5329   5.092   5.801   3.751 -0.0670 -0.3427  0.4044
    6MOL   C620 5330   5.048   5.949   3.766  0.2228  0.2302 -0.9265
    6MOL   C621 5331   5.125   6.031   3.878  0.0501 -0.1690 -0.8979
    6MOL   C622 5332   5.040   6.142   3.934  0.3099  0.3237 -0.2067
    6MOL   C623 5333   5.118   6.204   4.048 -0.6950  0.5047 -0.0625
    6MOL   O624 5334   5.051   6.320   4.102  0.1532  0.1130  0.2149
    6MOL   C625 5335   5.102   6.382   4.210 -0.3792  0.0398 -0.0186
    6MOL   O626 5336   5.213   6.362   4.248  0.3398  0.7722 -0.3887
    6MOL   C627 5337   5.011   6.480   4.269 -0.2314 -0.2071 -0.1187
    6MOL   C628 5338   5.051   6.561   4.379 -0.2024 -0.2842 -0.0798
    6MOL   C629 5339   4.966   6.661   4.426  0.5636 -0.1280  0.6190
    6MOL   C630 5340   4.830   6.666   4.392 -0.1028 -0.3632  0.4860
    6MOL   C631 5341   4.737   6.760   4.456 -0.4347 -0.0988  0.0788
    6MOL   O632 5342   4.622   6.772   4.419 -0.0035 -1.0578  0.2172
    6MOL   O633 5343   4.793   6.834   4.556 -0.1495  0.0834 -0.4876
    6MOL   C634 5344   4.785   6.583   4.289  0.5287  0.1684 -0.2552
    6MOL   C635 5345   4.875   6.490   4.231 -0.0449  0.8482  0.1490
    6MOL   H636 5346   5.231   5.490   3.213  0.2305  0.0875 -1.6658
    6MOL   H637 5347   5.119   5.579   3.121 -0.6806  1.0605  0.7844
    6MOL   H638 5348   5.002   5.680   3.320  0.1372 -0.3508 -0.8969
    6MOL   H639 5349   5.185   5.676   3.339  0.1732  0.5132  1.6332
    6MOL   H640 5350   4.990   5.495   3.477  0.3887 -0.3048 -3.6338
    6MOL   H641 5351   5.160   5.454   3.463 -0.2375 -0.2727  1.1440
    6MOL   H642 5352   5.224   5.633   3.577  0.0527 -0.4638 -1.5301
    6MOL   H643 5353   5.096   5.550   3.666 -0.0791  0.6801 -0.1500
    6MOL   H644 5354   5.062   5.828   3.537  2.6383 -1.0731 -0.9242
    6MOL   H645 5355   4.935   5.744   3.628  0.3594 -0.6743 -0.0952
    6MOL   H646 5356   5.067   5.729   3.829 -0.9370  0.1346  0.5749
    6MOL   H647 5357   5.200   5.803   3.744 -0.0048 -1.3059  0.9450
    6MOL   H648 5358   5.069   6.012   3.679  0.3273  3.8887  1.6561
    6MOL   H649 5359   4.941   5.957   3.782  0.5945  0.2342  1.6822
    6MOL   H650 5360   5.145   5.956   3.955 -1.1574 -1.8975 -2.2157
    6MOL   H651 5361   5.225   6.061   3.850  1.0362 -2.0220  0.4808
    6MOL   H652 5362   4.950   6.094   3.972 -0.1933  1.9622  0.7460
    6MOL   H653 5363   5.001   6.210   3.858  1.4048 -1.3367 -2.2996
    6MOL   H654 5364   5.216   6.241   4.018  0.3347 -1.8175  0.3754
    6MOL   H655 5365   5.132   6.139   4.135  0.0038  0.1641 -0.4316
    6MOL   H656 5366   5.152   6.566   4.416  0.0038  1.5790 -0.8231
    6MOL   H657 5367   5.011   6.727   4.498 -0.0400 -1.1920  1.9904
    6MOL   H658 5368   4.685   6.603   4.254 -0.2990 -1.4964  1.0908
    6MOL   H659 5369   4.838   6.433   4.148  1.4957  0.4364 -0.2819
    6MOL   O660 5370   4.709   6.950   4.616 -0.4817 -0.0033 -0.3663
    6MOL   C661 5371   4.760   7.082   4.581 -0.6869  0.7422  0.9812
    6MOL   C662 5372   4.756   7.089   4.429  0.0950  0.8032  0.8119
    6MOL   C663 5373   4.800   7.226   4.379  0.1256  0.2048 -0.1062
    6MOL   C664 5374   4.785   7.255   4.229 -0.2262  0.1680  0.1505
    6MOL   C665 5375   4.850   7.379   4.172  0.1472  0.0066  1.2055
    6MOL   C666 5376   4.856   7.380   4.012  0.0738  0.1785 -0.1262
    6MOL   C667 5377   4.898   7.510   3.948 -0.2312 -0.1779  0.1617
    6MOL   C668 5378   5.051   7.522   3.935  0.2630 -0.2143 -0.4349
    6MOL   C669 5379   5.088   7.655   3.864  0.2366 -0.0792  0.4090
    6MOL   C670 5380   5.240   7.646   3.827 -0.2836  0.1763  0.0243
    6MOL   O671 5381   5.280   7.753   3.742  0.3688 -0.1719 -0.5328
    6MOL   C672 5382   5.424   7.776   3.729 -0.2594 -0.2504 -0.6469
    6MOL   O673 5383   5.506   7.713   3.791  0.1263 -0.2448  0.0197
    6MOL   C674 5384   5.460   7.881   3.625  0.3801  0.2677  0.4511
    6MOL   C675 5385   5.359   7.954   3.562  0.1238 -0.7236 -0.2528
    6MOL   C676 5386   5.379   0.063   3.450  0.0262  0.3615  0.0205
    6MOL   C677 5387   5.515   0.098   3.409  0.7444  0.6034  0.1838
    6MOL   C678 5388   5.545   0.180   3.289 -0.8958 -0.1862  0.2172
    6MOL   O679 5389   5.652   0.244   3.278 -0.0825 -0.6685 -0.2353
    6MOL   O680 5390   5.447   0.176   3.200 -0.6228  0.4666 -1.5227
    6MOL   C681 5391   5.616   0.037   3.487 -0.1730 -0.6425  0.4704
    6MOL   C682 5392   5.591   7.923   3.595 -0.1243  0.0752  0.0967
    6MOL   H683 5393   4.694   7.160   4.619 -4.2688 -1.6791  0.0355
    6MOL   H684 5394   4.860   7.102   4.619 -0.6812  1.9397  0.3375
    6MOL   H685 5395   4.655   7.087   4.389  0.8043  2.3252 -1.1839
    6MOL   H686 5396   4.824   7.013   4.391 -3.1350 -0.3205 -3.1236
    6MOL   H687 5397   4.746   7.307   4.428  1.8517  0.2521  1.8201
    6MOL   H688 5398   4.907   7.242   4.398 -0.4628  0.8551  2.9145
    6MOL   H689 5399   4.680   7.269   4.204 -0.1577 -0.6286 -0.6220
    6MOL   H690 5400   4.807   7.163   4.175 -1.4729 -1.0332  1.6122
    6MOL   H691 5401   4.800   7.472   4.199 -1.7044 -0.5057 -0.3502
    6MOL   H692 5402   4.950   7.394   4.212  0.8666 -2.1117  0.2989
    6MOL   H693 5403   4.939   7.314   3.986  1.8998  1.8535  1.3236
    6MOL   H694 5404   4.759   7.347   3.974 -0.5039 -1.4290  2.6137
    6MOL   H695 5405   4.839   7.518   3.857 -0.8101  0.3419  0.5842
    6MOL   H696 5406   4.860   7.592   4.008  2.0398  0.3725  0.9021
    6MOL   H697 5407   5.110   7.510   4.025  0.0057 -2.1752 -0.5085
    6MOL   H698 5408   5.072   7.435   3.873 -1.7811 -0.6420 -0.5723
    6MOL   H699 5409   5.077   7.750   3.917 -1.6968  0.3194 -0.6590
    6MOL   H700 5410   5.032   7.660   3.771  2.0255  0.8521 -0.6395
    6MOL   H701 5411   5.249   7.554   3.769  0.2235  0.4445 -0.3346
    6MOL   H702 5412   5.308   7.636   3.911  0.8163 -1.2563 -0.9995
    6MOL   H703 5413   5.254   7.939   3.578 -0.1477 -0.1838 -1.4514
    6MOL   H704 5414   5.290   0.108   3.408  0.0931  0.7870  0.3313
    6MOL   H705 5415   5.718   0.060   3.459  0.1881  1.3301  3.0683
    6MOL   H706 5416   5.673   7.882   3.651  0.7692  2.9218  0.9684
    6MOL   O707 5417   5.443   0.288   3.095  0.2287  0.5293  0.3166
    6MOL   C708 5418   5.318   0.344   3.116  0.0104  0.2784  0.1946
    6MOL   C709 5419   5.311   0.475   3.026  0.1597 -0.1182 -0.5232
    6MOL   C710 5420   5.204   0.578   3.068 -0.0740 -0.0782 -0.2014
    6MOL   C711 5421   5.218   0.713   3.001 -0.4986 -0.3026  0.3971
    6MOL   C712 5422   5.121   0.813   3.060  0.5643  0.0895 -0.2000
    6MOL   C713 5423   5.160   0.954   3.025  0.4557 -0.0802  0.2572
    6MOL   C714 5424   5.055   1.057   3.068 -0.0066  0.6753 -0.1333
    6MOL   C715 5425   5.044   1.100   3.217  0.0666 -0.2550  0.2945
    6MOL   C716 5426   4.943   1.216   3.238  0.1478 -0.5224 -0.2571
    6MOL   C717 5427   4.797   1.185   3.183 -0.7606 -0.4896  0.4207
    6MOL   O718 5428   4.700   1.281   3.217  0.1095  0.5800 -0.0981
    6MOL   C719 5429   4.568   1.236   3.223 -0.3744  0.4632 -0.8215
    6MOL   O720 5430   4.536   1.118   3.185  0.0154 -0.8868 -0.4623
    6MOL   C721 5431   4.474   1.331   3.275  0.0781  0.1773  0.2424
    6MOL   C722 5432   4.511   1.465   3.316  1.0880 -0.3447 -0.4875
    6MOL   C723 5433   4.408   1.543   3.374  0.1390 -0.1353 -0.6401
    6MOL   C724 5434   4.277   1.494   3.394 -1.1031  0.3409 -0.3872
    6MOL   C725 5435   4.184   1.580   3.466  0.7173 -0.1367  0.7139
    6MOL   O726 5436   4.213   1.697   3.484 -0.0808  0.6237  0.2170
    6MOL   O727 5437   4.055   1.524   3.504  0.7453 -0.4729  0.1718
    6MOL   C728 5438   4.243   1.359   3.367 -0.1454  0.1492 -0.7799
    6MOL   C729 5439   4.342   1.283   3.303 -0.1805  0.5630  0.2494
    6MOL   H730 5440   5.238   0.277   3.083  1.3701 -1.7778  1.0219
    6MOL   H731 5441   5.296   0.364   3.221 -2.4722 -2.5075  0.2942
    6MOL   H732 5442   5.284   0.436   2.928 -0.5185  1.5025 -0.9838
    6MOL   H733 5443   5.403   0.533   3.013  1.1241 -0.9133  2.3125
    6MOL   H734 5444   5.104   0.540   3.045  0.2547 -1.2632  0.2645
    6MOL   H735 5445   5.210   0.593   3.176 -1.6352  0.9637 -0.2546
    6MOL   H736 5446   5.201   0.700   2.894 -0.5542  0.9902  0.2356
    6MOL   H737 5447   5.318   0.757   3.001 -0.8290  0.4472  1.3136
    6MOL   H738 5448   5.021   0.791   3.023  0.7074 -0.3410 -0.3330
    6MOL   H739 5449   5.121   0.807   3.169  0.9693  1.6366 -0.1069
    6MOL   H740 5450   5.256   0.983   3.067  0.7324  1.5954 -1.4522
    6MOL   H741 5451   5.171   0.950   2.916 -0.6518 -1.8937  0.1919
    6MOL   H742 5452   5.092   1.144   3.014  1.5050  1.3014  1.8605
    6MOL   H743 5453   4.952   1.043   3.037  0.2342  1.4292 -1.3217
    6MOL   H744 5454   5.004   1.011   3.267 -0.8450 -0.2473 -0.4246
    6MOL   H745 5455   5.141   1.114   3.265  0.7013  1.1709 -1.3788
    6MOL   H746 5456   4.989   1.299   3.185 -0.4028 -0.8607 -1.2831
    6MOL   H747 5457   4.934   1.232   3.345  0.4240  1.5429 -0.5247
    6MOL   H748 5458   4.759   1.095   3.232  0.8750 -0.8280  1.0902
    6MOL   H749 5459   4.788   1.165   3.076 -1.2079  0.0448  0.3581
    6MOL   H750 5460   4.603   1.511   3.285  0.7055  0.5817 -0.2726
    6MOL   H751 5461   4.435   1.645   3.395 -2.1180 -0.1114  2.5735
    6MOL   H752 5462   4.139   1.329   3.374 -0.3911  1.0805 -0.3468
    6MOL   H753 5463   4.312   1.182   3.278 -0.1969 -0.1705  3.1303
    6MOL   O754 5464   3.963   1.636   3.550 -0.0826 -0.1910  1.3017
    6MOL   C755 5465   3.896   1.682   3.429  0.3444 -0.0047 -0.4407
    6MOL   C756 5466   3.819   1.807   3.470 -0.3894 -0.4176  0.5973
    6MOL   C757 5467   3.919   1.922   3.494  0.0482 -0.1206  0.4224
    6MOL   C758 5468   3.857   2.055   3.527  0.4479  0.4767  0.6995
    6MOL   C759 5469   3.779   2.054   3.660  0.8500  0.2077 -0.7918
    6MOL   C760 5470   3.717   2.188   3.700  0.4074  0.7079 -0.0780
    6MOL   C761 5471   3.625   2.180   3.823 -0.6224 -0.5099  0.3005
    6MOL   C762 5472   3.714   2.173   3.948  0.5685  0.2968 -0.7916
    6MOL   C763 5473   3.791   2.299   3.979 -0.0251 -0.3431 -0.7559
    6MOL   C764 5474   3.920   2.256   4.056 -0.3085  0.9647 -0.1956
    6MOL   O765 5475   4.010   2.208   3.961 -0.3055 -0.0077 -0.4108
    6MOL   C766 5476   4.137   2.181   3.992 -0.2165  0.1363 -0.7084
    6MOL   O767 5477   4.192   2.181   4.103  0.1724 -0.1970 -0.2404
    6MOL   C768 5478   4.217   2.153   3.869  0.0310  0.0968  1.1884
    6MOL   C769 5479   4.354   2.124   3.880  0.0404  0.2906  0.7128
    6MOL   C770 5480   4.431   2.095   3.769  0.3743  0.1967  1.1505
    6MOL   C771 5481   4.368   2.066   3.646 -0.0798 -0.3619  0.7502
    6MOL   C772 5482   4.447   2.013   3.526  0.2487  0.3003 -0.1791
    6MOL   O773 5483   4.573   2.015   3.523 -0.1917 -0.2681 -0.0877
    6MOL   O774 5484   4.363   1.964   3.436  0.1000 -0.1396  0.0864
    6MOL   C775 5485   4.231   2.086   3.638 -0.2193  0.4547  0.1801
    6MOL   C776 5486   4.160   2.135   3.742 -0.2534 -0.2385 -0.2429
    6MOL   H777 5487   3.963   1.705   3.346 -0.4885 -0.9597 -1.4038
    6MOL   H778 5488   3.828   1.606   3.389  1.0450  0.4515 -2.5615
    6MOL   H779 5489   3.744   1.792   3.547  0.6172 -0.3463  1.6066
    6MOL   H780 5490   3.764   1.837   3.380  0.7591 -2.3418 -0.7763
    6MOL   H781 5491   3.986   1.897   3.576 -0.2176  2.1362  1.3629
    6MOL   H782 5492   3.987   1.923   3.409 -0.3444 -2.8271  0.0137
    6MOL   H783 5493   3.790   2.082   3.445  0.1588 -1.2819  0.3381
    6MOL   H784 5494   3.928   2.137   3.518 -0.2104  1.0029  0.1938
    6MOL   H785 5495   3.697   1.982   3.657  0.9326 -0.0992  2.5877
    6MOL   H786 5496   3.845   2.021   3.740 -0.2437 -0.6014 -0.2031
    6MOL   H787 5497   3.800   2.253   3.726  0.7425  0.8198 -1.4073
    6MOL   H788 5498   3.658   2.227   3.618 -0.9502  0.7353  0.8808
    6MOL   H789 5499   3.568   2.272   3.836  0.3486  0.1928 -0.2948
    6MOL   H790 5500   3.549   2.103   3.832  0.2955 -1.6301 -1.2964
    6MOL   H791 5501   3.648   2.158   4.033  0.2773  1.2306 -0.8456
    6MOL   H792 5502   3.779   2.086   3.947  0.9203  0.4939  2.0860
    6MOL   H793 5503   3.720   2.352   4.043 -0.9299 -1.8461 -0.4851
    6MOL   H794 5504   3.812   2.359   3.891 -1.9604  0.5085 -0.6542
    6MOL   H795 5505   3.897   2.174   4.123 -1.2332  0.7770 -0.7221
    6MOL   H796 5506   3.967   2.327   4.124 -0.8863 -0.7311  2.0458
    6MOL   H797 5507   4.411   2.140   3.970  0.5056 -0.8383  0.6313
    6MOL   H798 5508   4.537   2.072   3.778  0.5546  0.9596  1.0058
    6MOL   H799 5509   4.183   2.070   3.543  2.7301 -2.8432 -0.8298
    6MOL   H800 5510   4.055   2.147   3.719 -0.5190  0.0081  1.0706
    6MOL   O801 5511   4.425   1.912   3.303 -0.3714 -0.1953  0.1010
    6MOL   C802 5512   4.442   2.017   3.210  0.1864 -0.1034  0.9201
    6MOL   C803 5513   4.311   2.096   3.193 -0.3088  1.0161  0.3806
    6MOL   C804 5514   4.199   2.003   3.138 -0.1638 -0.1301 -0.4048
    6MOL   C805 5515   4.073   2.068   3.089 -0.2684 -0.1205  0.3659
    6MOL   C806 5516   4.000   1.977   2.996  0.3625 -0.2980  0.3954
    6MOL   C807 5517   3.937   1.856   3.058 -0.1121  0.2230 -0.6354
    6MOL   C808 5518   3.857   1.769   2.958 -0.3201  0.2119 -0.3033
    6MOL   C809 5519   3.771   1.659   3.025 -0.0613 -0.6768 -0.4637
    6MOL   C810 5520   3.703   1.560   2.928  0.4923  0.4304 -0.1424
    6MOL   C811 5521   3.801   1.446   2.882 -0.1416  0.0588  0.6383
    6MOL   O812 5522   3.726   1.374   2.787  0.3547  0.0040  0.4694
    6MOL   C813 5523   3.696   1.248   2.806  0.8149  0.3075 -0.0805
    6MOL   O814 5524   3.706   1.185   2.914  0.3856  0.3079  0.1621
    6MOL   C815 5525   3.640   1.175   2.688  0.2396  0.4676 -0.0966
    6MOL   C816 5526   3.637   1.033   2.679 -0.3936  0.4038  0.0047
    6MOL   C817 5527   3.586   0.971   2.562 -0.3792  0.0175  0.2093
    6MOL   C818 5528   3.527   1.049   2.458  0.0629 -0.7126 -0.2605
    6MOL   C819 5529   3.481   0.983   2.332 -1.2248 -0.0964  0.1050
    6MOL   O820 5530   3.484   0.861   2.319  0.2142 -0.0863 -0.4657
    6MOL   O821 5531   3.424   1.062   2.243 -0.4197  0.2371 -0.5847
    6MOL   C822 5532   3.513   1.187   2.472 -0.2623  0.6627 -0.1834
    6MOL   C823 5533   3.565   1.247   2.591 -0.1719  0.5082 -0.0511
    6MOL   H824 5534   4.524   2.084   3.236  1.3868 -1.2791  0.1794
    6MOL   H825 5535   4.474   1.969   3.118  2.5731 -0.2550  1.7923
    6MOL   H826 5536   4.349   2.175   3.129 -0.0804  1.0465  0.5539
    6MOL   H827 5537   4.280   2.140   3.288  1.4040 -1.4964  2.1659
    6MOL   H828 5538   4.231   1.942   3.054  0.0049  1.2094 -1.3369
    6MOL   H829 5539   4.163   1.932   3.212 -0.1807 -1.2805 -1.5166
    6MOL   H830 5540   4.120   2.144   3.027 -0.7918 -0.2284 -0.1756
    6MOL   H831 5541   4.013   2.120   3.164 -0.9238 -0.4174  0.0567
    6MOL   H832 5542   3.926   2.037   2.943  0.2809 -2.1614 -1.6543
    6MOL   H833 5543   4.062   1.942   2.914 -1.1628  0.4602 -1.1201
    6MOL   H834 5544   4.017   1.799   3.106  0.6953 -0.0952 -2.3186
    6MOL   H835 5545   3.872   1.880   3.142  0.1957  0.7226 -0.5376
    6MOL   H836 5546   3.801   1.841   2.898  0.0615 -0.0542 -0.9882
    6MOL   H837 5547   3.934   1.727   2.892 -0.0509  0.3668 -0.0910
    6MOL   H838 5548   3.843   1.608   3.089  0.1515 -0.2722 -0.3800
    6MOL   H839 5549   3.690   1.696   3.087 -0.2417  0.3761 -1.3208
    6MOL   H840 5550   3.658   1.622   2.851 -1.9635  0.5727  1.3490
    6MOL   H841 5551   3.619   1.513   2.979  1.2761 -1.4481 -0.5287
    6MOL   H842 5552   3.846   1.389   2.963 -0.0007 -0.2354  0.3549
    6MOL   H843 5553   3.888   1.492   2.836  0.9289 -3.9101 -1.5270
    6MOL   H844 5554   3.681   0.969   2.755 -2.5362 -0.7807  0.2938
    6MOL   H845 5555   3.598   0.865   2.546 -0.2588  0.0947 -0.1942
    6MOL   H846 5556   3.455   1.249   2.405  1.2782  1.8471 -0.4437
    6MOL   H847 5557   3.540   1.351   2.599 -1.1552  0.3449 -0.8812
    6MOL   O848 5558   3.375   0.991   2.121  0.2360 -0.1242  0.2719
    6MOL   C849 5559   3.236   1.003   2.112  0.4639 -0.9601  0.7731
    6MOL   C850 5560   3.135   0.892   2.159  0.6084  0.3076 -0.1540
    6MOL   C851 5561   3.078   0.805   2.048 -0.4670 -0.6241 -0.5152
    6MOL   C852 5562   3.191   0.715   1.986  0.3215 -0.4747 -0.0048
    6MOL   C853 5563   3.273   0.646   2.091 -0.2592 -0.2546  0.2511
    6MOL   C854 5564   3.378   0.548   2.033  0.2120 -0.0506  0.6216
    6MOL   C855 5565   3.339   0.397   2.018  0.3003  0.7311  0.3611
    6MOL   C856 5566   3.443   0.305   1.953  0.4471 -0.2605  0.3071
    6MOL   C857 5567   3.398   0.155   1.957 -0.7482 -0.7115  0.2428
    6MOL   C858 5568   3.456   0.067   1.844  0.0403  0.1587  0.0901
    6MOL   O859 5569   3.412   0.097   1.708 -0.0753  0.2676  0.2471
    6MOL   C860 5570   3.301   0.042   1.663  0.0055  0.7935 -0.0193
    6MOL   O861 5571   3.238   7.931   1.719  0.5133 -0.0012  0.1177
    6MOL   C862 5572   3.265   0.092   1.528 -0.1748  0.0712 -0.1775
    6MOL   C863 5573   3.141   0.067   1.471 -0.2297 -0.4175  0.3269
    6MOL   C864 5574   3.106   0.125   1.352  0.4037 -0.6228  0.0091
    6MOL   C865 5575   3.198   0.207   1.279  0.9465 -0.6521 -0.3217
    6MOL   C866 5576   3.148   0.268   1.152 -0.2994  0.5194  0.0773
    6MOL   O867 5577   3.033   0.268   1.119  0.6048  0.3541  0.3697
    6MOL   O868 5578   3.251   0.321   1.076  0.9651  0.0583 -0.4905
    6MOL   C869 5579   3.324   0.236   1.335  0.3896  0.7806  0.0672
    6MOL   C870 5580   3.358   0.166   1.454 -0.4364 -0.1463 -0.4644
    6MOL   H871 5581   3.202   1.098   2.154  1.4047  0.4769 -1.5911
    6MOL   H872 5582   3.216   1.029   2.008  0.5070  3.0068  1.6532
    6MOL   H873 5583   3.049   0.942   2.204  0.8828 -0.0962  0.8227
    6MOL   H874 5584   3.165   0.839   2.249  0.5902 -0.1495 -0.4172
    6MOL   H875 5585   3.000   0.745   2.095  0.5216 -1.1462  0.4706
    6MOL   H876 5586   3.036   0.866   1.967 -1.6416 -0.2695  0.3486
    6MOL   H877 5587   3.247   0.762   1.906  0.9466 -0.5830  0.3672
    6MOL   H878 5588   3.154   0.633   1.924  1.7595 -0.2226 -1.2307
    6MOL   H879 5589   3.333   0.726   2.134 -0.4395  0.5183 -0.8972
    6MOL   H880 5590   3.210   0.605   2.170 -0.4168  2.3404  1.5074
    6MOL   H881 5591   3.412   0.581   1.935  2.0997  0.2821  1.3638
    6MOL   H882 5592   3.461   0.556   2.104  1.1629  1.0842 -0.5819
    6MOL   H883 5593   3.332   0.364   2.122 -0.2531 -0.8034 -0.1553
    6MOL   H884 5594   3.240   0.389   1.972 -0.0900  0.2419  1.2713
    6MOL   H885 5595   3.449   0.337   1.848  0.9678 -1.2246  0.0399
    6MOL   H886 5596   3.545   0.316   1.990  2.2111 -1.2126 -3.9727
    6MOL   H887 5597   3.293   0.154   1.929 -0.6618  0.1987 -0.1282
    6MOL   H888 5598   3.410   0.121   2.060 -0.7152 -0.3807  0.3490
    6MOL   H889 5599   3.429   7.942   1.868  1.0545  0.1645  1.2954
    6MOL   H890 5600   3.564   0.055   1.858 -0.1652 -1.5201  0.3443
    6MOL   H891 5601   3.058   0.016   1.518 -2.5401  2.7301 -0.1437
    6MOL   H892 5602   3.003   0.112   1.322  0.3172  0.8566 -0.3844
    6MOL   H893 5603   3.385   0.303   1.275  1.1006  0.2831  0.2253
    6MOL   H894 5604   3.456   0.188   1.495  0.1498 -0.2693 -1.7563
    6MOL   O895 5605   3.204   0.389   0.950  0.4086 -0.0267  0.3157
    6MOL   C896 5606   3.211   0.289   0.850 -0.4978 -0.2757  0.4332
    6MOL   C897 5607   3.207   0.336   0.706 -0.0185 -0.2247  0.3153
    6MOL   C898 5608   3.216   0.238   0.588 -0.6876 -0.1017 -0.5936
    6MOL   C899 5609   3.173   0.304   0.451  0.2127 -0.1967  0.5854
    6MOL   C900 5610   3.085   0.217   0.353  0.7305 -0.0067 -0.3391
    6MOL   C901 5611   2.945   0.191   0.409  0.0595 -0.3980  1.0664
    6MOL   C902 5612   2.853   0.095   0.329  0.0397 -0.2247 -0.1321
    6MOL   C903 5613   2.714   0.079   0.390  0.0598 -0.1661 -0.5634
    6MOL   C904 5614   2.716   0.039   0.537 -0.2351 -0.6811  0.9832
    6MOL   C905 5615   2.570   0.010   0.585 -0.1443  0.1446 -0.0155
    6MOL   O906 5616   2.515   7.879   0.513  0.0003  0.6553 -0.3628
    6MOL   C907 5617   2.485   7.760   0.578 -0.1707  0.8504  0.1525
    6MOL   O908 5618   2.521   7.735   0.690  0.1732  0.4016  0.3458
    6MOL   C909 5619   2.414   7.665   0.488 -1.6777 -0.2751  0.0077
    6MOL   C910 5620   2.421   7.676   0.346  1.0969  0.2215 -0.4873
    6MOL   C911 5621   2.354   7.585   0.263 -0.3067  0.5363 -0.0814
    6MOL   C912 5622   2.272   7.488   0.313 -0.4114  0.5986 -0.3352
    6MOL   C913 5623   2.202   7.389   0.223  0.0597 -0.0287  0.2104
    6MOL   O914 5624   2.166   7.278   0.266 -0.4641  0.2707  0.1575
    6MOL   O915 5625   2.158   7.449   0.106  0.4672  0.1591  0.9982
    6MOL   C916 5626   2.267   7.475   0.455 -0.8171  0.1196 -0.9582
    6MOL   C917 5627   2.339   7.558   0.544 -0.9546  0.2323 -0.2270
    6MOL   H918 5628   3.305   0.239   0.871 -0.6519 -0.3661  0.9290
    6MOL   H919 5629   3.130   0.217   0.864 -0.9586  0.0856 -0.3350
    6MOL   H920 5630   3.284   0.411   0.691  0.8668 -1.3705 -0.9454
    6MOL   H921 5631   3.113   0.391   0.698 -0.2989 -0.8076 -0.4462
    6MOL   H922 5632   3.316   0.198   0.572 -0.6054 -0.2959  0.4247
    6MOL   H923 5633   3.148   0.155   0.611  0.0174 -0.0207  1.8105
    6MOL   H924 5634   3.253   0.348   0.392 -1.5288 -0.4725 -2.0659
    6MOL   H925 5635   3.101   0.383   0.474 -1.0965 -1.4115  0.7566
    6MOL   H926 5636   3.080   0.278   0.263  0.5740  1.3849  0.6026
    6MOL   H927 5637   3.139   0.124   0.336  1.4738  0.2414  0.5950
    6MOL   H928 5638   2.963   0.157   0.511 -0.0934  1.1105  1.6036
    6MOL   H929 5639   2.892   0.284   0.427 -2.5093 -1.6852  0.5071
    6MOL   H930 5640   2.843   0.130   0.226 -0.2489 -0.7019 -0.2705
    6MOL   H931 5641   2.905   7.977   0.325 -0.2904 -0.3804 -0.8131
    6MOL   H932 5642   2.666   0.176   0.377  1.3397  0.2790 -2.1922
    6MOL   H933 5643   2.659   0.007   0.329 -1.1289  1.3878 -1.3571
    6MOL   H934 5644   2.763   0.120   0.593  1.9440 -2.4005  1.6743
    6MOL   H935 5645   2.786   7.934   0.540 -0.2336 -0.6501  2.0112
    6MOL   H936 5646   2.511   0.099   0.566 -2.3288 -1.2762 -0.1400
    6MOL   H937 5647   2.562   7.959   0.690 -1.4427 -1.1811 -0.4553
    6MOL   H938 5648   2.480   7.757   0.305  1.2297 -0.2640 -1.2650
    6MOL   H939 5649   2.366   7.583   0.156 -0.8422 -0.9632 -0.1284
    6MOL   H940 5650   2.223   7.383   0.490 -1.6750  0.8805 -0.0149
    6MOL   H941 5651   2.338   7.544   0.651 -0.0454 -1.6319 -0.4491
    6MOL   H942 5652   2.095   7.394   0.062  0.6101  0.5247  0.3333
    7MOL     O1 5653   0.262   0.838   2.187 -0.1610  0.4888  0.0616
    7MOL     C2 5654   0.230   0.748   2.293  0.0291 -0.0082  0.1974
    7MOL     C3 5655   0.278   0.606   2.259  0.0824  0.1622 -0.6374
    7MOL     C4 5656   0.242   0.505   2.369 -0.7584 -0.2566  0.7385
    7MOL     C5 5657   0.089   0.461   2.367  0.3755 -0.4334 -0.3566
    7MOL     C6 5658   0.058   0.357   2.464  0.5194  0.5535  0.3139
    7MOL     C7 5659   7.901   0.292   2.423  1.1398 -0.8069 -0.4523
    7MOL     C8 5660   7.877   0.157   2.486  1.0223 -0.0825 -0.4628
    7MOL     C9 5661   7.789   0.061   2.418 -0.2816 -0.3883 -0.0122
    7MOL    C10 5662   7.758   7.919   2.514 -0.1990  0.7852  0.3842
    7MOL    C11 5663   7.872   7.819   2.518  0.4505  1.1608 -0.8854
    7MOL    O12 5664   7.831   7.698   2.579  0.3393 -1.1211  0.0136
    7MOL    C13 5665   7.827   7.696   2.711  0.3200 -0.0552 -0.0717
    7MOL    O14 5666   7.875   7.781   2.784  0.6422  0.3184  0.2275
    7MOL    C15 5667   7.771   7.568   2.767 -0.2635  0.7289  0.3950
    7MOL    C16 5668   7.674   7.484   2.699 -0.2908 -0.7055 -0.5168
    7MOL    C17 5669   7.635   7.360   2.757 -0.2611  0.2406  0.2650
    7MOL    C18 5670   7.674   7.321   2.887 -0.4046  0.0049  0.2046
    7MOL    C19 5671   7.631   7.191   2.942 -0.5931 -0.7822 -0.8305
    7MOL    O20 5672   7.542   7.116   2.892 -0.2231  0.8720 -0.3316
    7MOL    O21 5673   7.691   7.161   3.060  0.0595  0.4553 -0.1161
    7MOL    C22 5674   7.765   7.405   2.956  0.2932 -0.1621 -0.0400
    7MOL    C23 5675   7.807   7.530   2.899  0.0318 -0.3302 -0.3897
    7MOL    H24 5676   0.257   0.781   2.393  1.9034  1.3016 -0.7030
    7MOL    H25 5677   0.121   0.751   2.302 -0.2259  0.5156 -2.6512
    7MOL    H26 5678   0.383   0.621   2.232 -0.6048  2.5536 -2.1401
    7MOL    H27 5679   0.245   0.564   2.164 -0.3714 -1.9098  0.4089
    7MOL    H28 5680   0.310   0.420   2.360 -1.0454 -0.2839 -1.5202
    7MOL    H29 5681   0.262   0.553   2.465 -0.0189  1.0825 -0.0570
    7MOL    H30 5682   0.071   0.418   2.269 -0.6353 -0.3700 -0.2029
    7MOL    H31 5683   0.020   0.545   2.372  1.5136  0.5143 -0.4223
    7MOL    H32 5684   0.138   0.282   2.471  1.7103  1.5742 -1.8445
    7MOL    H33 5685   0.075   0.398   2.564 -0.9443 -0.8340  1.1517
    7MOL    H34 5686   7.816   0.358   2.442  2.1501  0.8264 -1.5711
    7MOL    H35 5687   7.893   0.283   2.315  0.3715 -0.1521 -0.4579
    7MOL    H36 5688   7.973   0.108   2.494  0.0686 -1.8707  0.1951
    7MOL    H37 5689   7.836   0.176   2.585 -0.1817  1.0710 -1.1507
    7MOL    H38 5690   7.702   0.125   2.404  0.2102  0.5978  1.3002
    7MOL    H39 5691   7.830   0.034   2.321 -0.4818 -2.6516  0.4894
    7MOL    H40 5692   7.669   7.878   2.468  2.0595 -1.7468 -1.8595
    7MOL    H41 5693   7.726   7.942   2.616 -1.6417  1.4743 -0.2121
    7MOL    H42 5694   7.971   7.863   2.536 -0.0205  2.0599 -0.4520
    7MOL    H43 5695   7.888   7.781   2.417  1.3527 -0.7582 -0.0469
    7MOL    H44 5696   7.625   7.509   2.606  0.3772 -1.8308 -1.1771
    7MOL    H45 5697   7.569   7.288   2.710 -0.2606  1.0533 -0.9965
    7MOL    H46 5698   7.791   7.378   3.057 -1.1362 -0.7307  0.1890
    7MOL    H47 5699   7.873   7.591   2.960 -0.6841  1.5631 -1.4621
    7MOL    H48 5700   0.204   0.816   2.116 -0.7680 -0.4284  0.8337
    7MOL    O49 5701   7.672   7.023   3.112  0.0366 -0.0588 -0.5195
    7MOL    C50 5702   7.562   7.032   3.202  0.5746  0.3602  0.2475
    7MOL    C51 5703   7.540   6.894   3.264  0.2320  0.3572  0.5824
    7MOL    C52 5704   7.517   6.791   3.153  0.1710 -1.1345  0.8919
    7MOL    C53 5705   7.470   6.658   3.206  0.4533 -0.1673 -0.2370
    7MOL    C54 5706   7.430   6.561   3.090 -0.7390 -0.4709 -0.2116
    7MOL    C55 5707   7.370   6.423   3.130 -0.4459 -0.6594 -0.7553
    7MOL    C56 5708   7.400   6.307   3.033  0.8749 -1.1153  0.5117
    7MOL    C57 5709   7.307   6.185   3.050 -1.2248  0.4083  0.1727
    7MOL    C58 5710   7.157   6.193   3.010  0.3914  0.2125  0.1791
    7MOL    C59 5711   7.092   6.052   3.007 -0.4296  0.3114 -0.7264
    7MOL    O60 5712   6.952   6.061   2.998 -0.1412 -0.2593 -0.2439
    7MOL    C61 5713   6.884   5.960   3.044 -0.8737 -0.7013 -0.4529
    7MOL    O62 5714   6.930   5.852   3.076  0.0534 -0.6211 -0.1702
    7MOL    C63 5715   6.737   5.989   3.044 -0.7061 -0.2853 -0.1116
    7MOL    C64 5716   6.681   6.116   3.011 -0.2204 -0.3888  0.0564
    7MOL    C65 5717   6.545   6.142   3.009  0.1904  0.4666 -0.4152
    7MOL    C66 5718   6.454   6.028   3.027  0.2916 -1.2799  0.7724
    7MOL    C67 5719   6.309   6.047   3.028  0.2807 -0.1679  0.4814
    7MOL    O68 5720   6.256   6.159   3.011 -0.1969 -0.4871 -0.3830
    7MOL    O69 5721   6.239   5.930   3.042 -0.0100 -0.5555 -0.4338
    7MOL    C70 5722   6.506   5.911   3.067  0.5584 -0.0782 -0.5015
    7MOL    C71 5723   6.649   5.886   3.071  0.0472 -0.6840 -0.6310
    7MOL    H72 5724   7.574   7.107   3.279  0.6931  1.6218 -0.9804
    7MOL    H73 5725   7.479   7.061   3.138  0.4910 -0.6588 -0.1181
    7MOL    H74 5726   7.447   6.891   3.320  0.6154  1.3749  1.2786
    7MOL    H75 5727   7.625   6.876   3.330  1.2901  1.6318 -0.3983
    7MOL    H76 5728   7.445   6.818   3.076  0.0212 -0.9460  1.0995
    7MOL    H77 5729   7.608   6.790   3.094 -0.4676 -0.5173 -0.1073
    7MOL    H78 5730   7.387   6.664   3.277  0.5075 -1.2799 -0.0678
    7MOL    H79 5731   7.555   6.618   3.260  1.7292  1.6362 -0.8640
    7MOL    H80 5732   7.363   6.612   3.021 -1.2004 -0.2348  0.4086
    7MOL    H81 5733   7.524   6.543   3.036  0.4531 -2.9449  2.5324
    7MOL    H82 5734   7.407   6.384   3.225  0.0534  0.8215 -0.3359
    7MOL    H83 5735   7.265   6.447   3.145  0.7613  2.5413  3.4635
    7MOL    H84 5736   7.398   6.347   2.932  0.6047  0.0546  0.9715
    7MOL    H85 5737   7.503   6.277   3.050  1.3373  0.0964 -0.1144
    7MOL    H86 5738   7.354   6.101   2.999 -0.5093  0.3784  0.8789
    7MOL    H87 5739   7.307   6.163   3.156  1.0322  1.4371  0.4177
    7MOL    H88 5740   7.146   6.250   2.917 -2.1419 -0.3306  0.0863
    7MOL    H89 5741   7.099   6.248   3.084 -2.8741 -0.0867 -2.0493
    7MOL    H90 5742   7.126   5.983   3.085 -2.4366 -2.2924 -2.0744
    7MOL    H91 5743   7.128   5.997   2.920 -2.3260 -2.9556  0.4387
    7MOL    H92 5744   6.746   6.198   2.983 -1.4439  0.2283 -1.0885
    7MOL    H93 5745   6.506   6.240   2.988 -0.2375 -0.1878 -2.8872
    7MOL    H94 5746   6.451   5.820   3.086  0.9184  0.2589  2.3612
    7MOL    H95 5747   6.675   5.789   3.111 -2.8799 -1.0076  0.6221
    7MOL    O96 5748   6.092   5.942   3.025  0.7511  0.8785 -0.2452
    7MOL    C97 5749   6.028   5.950   3.151 -0.7109  0.1775 -0.2293
    7MOL    C98 5750   6.048   5.836   3.250  0.2986  0.0791  0.4578
    7MOL    C99 5751   6.177   5.823   3.324 -0.5821 -0.2851 -0.0516
    7MOL   C100 5752   6.239   5.960   3.365 -1.0339  0.0682  0.1524
    7MOL   C101 5753   6.347   5.940   3.468 -0.2289  0.4175  0.6355
    7MOL   C102 5754   6.427   6.069   3.495  0.3943 -0.0125  0.3035
    7MOL   C103 5755   6.469   6.153   3.373 -0.2234  0.5972  0.4775
    7MOL   C104 5756   6.548   6.272   3.429 -0.7487  0.0570 -0.2570
    7MOL   C105 5757   6.532   6.388   3.328  1.0474 -0.2760  0.4250
    7MOL   C106 5758   6.606   6.506   3.385  0.4125  0.1540 -0.2355
    7MOL   O107 5759   6.605   6.609   3.289  0.6157  0.2496 -0.3157
    7MOL   C108 5760   6.572   6.735   3.332 -0.2339 -1.2834 -0.4737
    7MOL   O109 5761   6.533   6.768   3.442  0.1494 -0.4162  0.5203
    7MOL   C110 5762   6.611   6.836   3.233  0.1653 -0.6641 -0.3786
    7MOL   C111 5763   6.599   6.810   3.099  0.5211  0.1139 -0.0202
    7MOL   C112 5764   6.622   6.904   3.001  0.2216  0.2237 -0.3791
    7MOL   C113 5765   6.667   7.031   3.043 -0.1181  0.3985 -0.1978
    7MOL   C114 5766   6.708   7.133   2.940 -0.0968 -0.0548 -0.1054
    7MOL   O115 5767   6.731   7.248   2.973  0.3241  0.3936  0.3984
    7MOL   O116 5768   6.715   7.086   2.807  0.2596  1.0458 -0.0034
    7MOL   C117 5769   6.685   7.060   3.176 -0.8429 -0.1274 -0.1152
    7MOL   C118 5770   6.651   6.968   3.275 -0.8933  0.4766  0.1651
    7MOL   H119 5771   6.073   6.041   3.189  1.4602 -0.4898 -1.1164
    7MOL   H120 5772   5.921   5.970   3.140 -0.7905 -0.4837 -0.7090
    7MOL   H121 5773   6.021   5.739   3.208  0.0280  0.0328  0.7372
    7MOL   H122 5774   5.987   5.853   3.339 -1.3191 -0.4219 -0.5403
    7MOL   H123 5775   6.166   5.760   3.412  0.6093 -2.6587 -1.5453
    7MOL   H124 5776   6.246   5.772   3.257 -2.4385  0.4047 -2.5330
    7MOL   H125 5777   6.167   6.031   3.406 -1.7247 -0.8114  0.4726
    7MOL   H126 5778   6.272   6.007   3.273 -0.9810  0.2203  0.2485
    7MOL   H127 5779   6.294   5.913   3.560  0.3750  2.0819  1.4988
    7MOL   H128 5780   6.419   5.859   3.458  0.5558  1.1960 -0.1449
    7MOL   H129 5781   6.360   6.130   3.555 -1.9435 -0.9090 -1.3257
    7MOL   H130 5782   6.520   6.042   3.545  1.4739  0.2557 -1.4811
    7MOL   H131 5783   6.528   6.117   3.289 -0.4385 -0.8584  0.9369
    7MOL   H132 5784   6.383   6.194   3.320 -0.4254  0.5091  0.7361
    7MOL   H133 5785   6.525   6.311   3.528  0.0333  0.6119 -0.2870
    7MOL   H134 5786   6.653   6.247   3.442 -0.7147  0.3168 -0.0181
    7MOL   H135 5787   6.428   6.421   3.317  1.5292  0.5401 -1.9599
    7MOL   H136 5788   6.553   6.380   3.222  0.5833 -2.4443  0.4620
    7MOL   H137 5789   6.713   6.492   3.403  0.3816  0.7222  0.4322
    7MOL   H138 5790   6.557   6.529   3.479  0.3074  1.1933 -0.5374
    7MOL   H139 5791   6.566   6.708   3.080  1.7731 -0.4666  0.9093
    7MOL   H140 5792   6.614   6.882   2.896 -0.4424  1.0701 -0.5096
    7MOL   H141 5793   6.708   7.161   3.206  1.3398 -0.2627 -1.2277
    7MOL   H142 5794   6.640   7.007   3.375 -0.9754 -0.3654  0.4932
    7MOL   O143 5795   6.756   7.188   2.710 -0.2470  0.4687  0.1046
    7MOL   C144 5796   6.639   7.258   2.666 -0.3132 -0.3809 -0.8699
    7MOL   C145 5797   6.675   7.361   2.559  0.0886  0.7426 -0.8430
    7MOL   C146 5798   6.562   7.442   2.511  1.3273 -0.2749  0.0678
    7MOL   C147 5799   6.591   7.524   2.387 -0.0984  0.0255 -0.3877
    7MOL   C148 5800   6.472   7.620   2.350  0.0417 -0.0690  0.6172
    7MOL   C149 5801   6.330   7.558   2.351  0.2934  0.0875 -0.0511
    7MOL   C150 5802   6.318   7.450   2.248 -0.3438 -0.4273  0.2962
    7MOL   C151 5803   6.201   7.345   2.272  0.3789  0.5953 -0.6596
    7MOL   C152 5804   6.185   7.237   2.166 -1.1721 -0.4795 -0.4193
    7MOL   C153 5805   6.076   7.137   2.213 -0.4973 -0.2394  0.5858
    7MOL   O154 5806   6.022   7.079   2.097 -0.0411 -0.3065 -0.0642
    7MOL   C155 5807   6.002   6.949   2.081  0.2414  0.1462  0.2014
    7MOL   O156 5808   6.049   6.871   2.164  0.0191 -0.7286  0.8153
    7MOL   C157 5809   5.930   6.904   1.959 -0.3495  0.2221 -0.5735
    7MOL   C158 5810   5.853   6.991   1.881 -0.3689  0.8567 -0.1189
    7MOL   C159 5811   5.787   6.943   1.768 -0.1760 -0.3945  0.2229
    7MOL   C160 5812   5.804   6.810   1.719  0.4807 -0.4401  0.0022
    7MOL   C161 5813   5.734   6.766   1.589 -0.3673  0.0342  0.3837
    7MOL   O162 5814   5.744   6.653   1.538  0.3107 -0.0927 -0.4700
    7MOL   O163 5815   5.655   6.864   1.528  0.4524  0.5276  0.3722
    7MOL   C164 5816   5.867   6.720   1.806  0.2290 -0.3023 -0.0879
    7MOL   C165 5817   5.935   6.762   1.927  0.1453 -0.8135  0.3815
    7MOL   H166 5818   6.574   7.181   2.626 -0.8644 -0.4413  0.1112
    7MOL   H167 5819   6.587   7.307   2.748 -1.1178  1.6189 -2.5355
    7MOL   H168 5820   6.709   7.299   2.476 -0.1043 -0.8296  0.2388
    7MOL   H169 5821   6.764   7.414   2.592 -0.3441  0.5067  0.7119
    7MOL   H170 5822   6.469   7.385   2.505  1.7786 -1.0545  0.3471
    7MOL   H171 5823   6.541   7.515   2.589  0.6619 -0.3951  0.0068
    7MOL   H172 5824   6.640   7.466   2.309  0.6979  0.9877 -0.6257
    7MOL   H173 5825   6.681   7.584   2.406  0.1687  0.2008 -2.1425
    7MOL   H174 5826   6.466   7.700   2.424 -2.3604 -0.1440  0.5641
    7MOL   H175 5827   6.491   7.667   2.254 -0.9918  0.1438  0.5088
    7MOL   H176 5828   6.300   7.526   2.451 -0.6581  0.0251 -0.3518
    7MOL   H177 5829   6.246   7.627   2.344 -0.3671 -0.4803  1.9006
    7MOL   H178 5830   6.329   7.480   2.144  0.7094 -0.3790  0.4168
    7MOL   H179 5831   6.412   7.396   2.255  0.5488  1.1637  0.7736
    7MOL   H180 5832   6.224   7.296   2.366  2.2217  2.3791 -0.1614
    7MOL   H181 5833   6.109   7.401   2.293 -0.6152 -1.5885  1.0169
    7MOL   H182 5834   6.271   7.177   2.135  0.4539  0.6140  1.8711
    7MOL   H183 5835   6.164   7.291   2.073 -1.1313  0.5983  0.1929
    7MOL   H184 5836   5.998   7.192   2.266 -1.4605  0.0421 -1.0661
    7MOL   H185 5837   6.106   7.067   2.290  0.0588 -1.2091 -0.4986
    7MOL   H186 5838   5.853   7.098   1.896  1.0308  0.9226 -0.5003
    7MOL   H187 5839   5.738   7.012   1.701 -0.3977 -0.0757  0.7140
    7MOL   H188 5840   5.856   6.617   1.776  0.2059  0.1163 -1.5563
    7MOL   H189 5841   5.993   6.694   1.987  0.6928  0.0203  0.8223
    7MOL   O190 5842   5.567   6.805   1.420  0.6347 -0.2106 -0.4452
    7MOL   C191 5843   5.445   6.757   1.479  0.9862 -0.2335  0.0509
    7MOL   C192 5844   5.330   6.854   1.518  0.8461  0.3766 -0.0724
    7MOL   C193 5845   5.357   6.958   1.628  0.5278  0.5672  0.2934
    7MOL   C194 5846   5.352   6.914   1.776  0.6085 -0.4854  0.0100
    7MOL   C195 5847   5.452   6.804   1.827  0.7353 -0.7738 -0.5977
    7MOL   C196 5848   5.453   6.787   1.976  0.4052  0.6161  0.4102
    7MOL   C197 5849   5.558   6.680   2.007  0.3562 -0.5200 -0.0868
    7MOL   C198 5850   5.590   6.640   2.155 -0.1677 -0.0897  1.0522
    7MOL   C199 5851   5.645   6.741   2.249 -0.4723  0.4215 -0.2375
    7MOL   C200 5852   5.541   6.809   2.337 -0.6146 -0.7309  0.4966
    7MOL   O201 5853   5.588   6.929   2.386  0.2207 -1.0407  0.0880
    7MOL   C202 5854   5.546   6.980   2.502 -0.6199  0.1263  0.7043
    7MOL   O203 5855   5.473   6.920   2.587 -0.0185 -0.5296 -0.1826
    7MOL   C204 5856   5.588   7.122   2.518 -0.1534 -0.4337  0.1265
    7MOL   C205 5857   5.667   7.188   2.425  0.2808 -0.1486 -0.0747
    7MOL   C206 5858   5.712   7.322   2.440 -0.4736 -0.4993 -0.6698
    7MOL   C207 5859   5.667   7.395   2.553  0.5885 -0.5246  1.4482
    7MOL   C208 5860   5.721   7.535   2.580 -0.4521  0.6529 -0.1667
    7MOL   O209 5861   5.809   7.595   2.520  0.7870  0.5668  0.0664
    7MOL   O210 5862   5.655   7.592   2.680 -0.8629 -0.4641 -0.2004
    7MOL   C211 5863   5.584   7.331   2.644 -0.5841 -0.5846 -0.3912
    7MOL   C212 5864   5.539   7.193   2.629  0.4856  0.1760  0.0007
    7MOL   H213 5865   5.404   6.676   1.418  1.2018 -0.0692 -0.3144
    7MOL   H214 5866   5.475   6.699   1.566  2.6145 -1.7584 -1.4889
    7MOL   H215 5867   5.253   6.789   1.558  0.4084  1.0429  0.1771
    7MOL   H216 5868   5.277   6.894   1.431 -2.5562 -2.0187  0.8126
    7MOL   H217 5869   5.457   6.997   1.611  0.1838  0.8449 -1.1934
    7MOL   H218 5870   5.291   7.043   1.605  0.1934 -0.2869 -2.0539
    7MOL   H219 5871   5.251   6.885   1.803 -0.0983 -1.3340 -3.3149
    7MOL   H220 5872   5.390   7.007   1.820  1.4912 -0.0018 -1.6987
    7MOL   H221 5873   5.434   6.711   1.773 -0.9357  0.1011 -1.5940
    7MOL   H222 5874   5.551   6.836   1.793  0.1358  2.6299  0.6438
    7MOL   H223 5875   5.479   6.883   2.021  2.9663  0.6170 -1.0122
    7MOL   H224 5876   5.354   6.766   2.018 -0.6919  3.1822 -0.8204
    7MOL   H225 5877   5.526   6.587   1.960  0.4099 -2.0478  2.7901
    7MOL   H226 5878   5.652   6.709   1.960  0.7690  1.0612  1.6393
    7MOL   H227 5879   5.495   6.602   2.192 -2.0639  4.3803  1.0563
    7MOL   H228 5880   5.658   6.555   2.159 -1.5286 -1.3035 -0.5648
    7MOL   H229 5881   5.690   6.821   2.189  0.3562  0.3129  0.2306
    7MOL   H230 5882   5.732   6.708   2.305  0.2659 -2.1225 -2.7778
    7MOL   H231 5883   5.537   6.741   2.422 -0.7824  0.8790  1.8086
    7MOL   H232 5884   5.445   6.824   2.287 -1.3152 -3.1121  1.0637
    7MOL   H233 5885   5.709   7.136   2.340  1.5162 -0.2296  0.5643
    7MOL   H234 5886   5.782   7.367   2.372  1.8515 -2.7919  0.1380
    7MOL   H235 5887   5.544   7.378   2.732  2.1222  1.4557 -0.1949
    7MOL   H236 5888   5.466   7.151   2.696  0.5071  1.3991  0.7930
    7MOL   O237 5889   5.711   7.724   2.720  0.1934 -0.1629 -0.0833
    7MOL   C238 5890   5.650   7.833   2.653 -0.3472  0.0432 -0.0000
    7MOL   C239 5891   5.704   7.969   2.713 -0.7008 -0.1044 -0.2822
    7MOL   C240 5892   5.619   0.113   2.667 -0.5689  0.3058  0.4252
    7MOL   C241 5893   5.639   0.242   2.749  0.1897 -0.3979 -0.6566
    7MOL   C242 5894   5.545   0.354   2.698  0.1101  0.3298 -0.5909
    7MOL   C243 5895   5.583   0.496   2.765 -0.1902  0.1297  0.0297
    7MOL   C244 5896   5.474   0.595   2.721 -0.2059 -0.1843  0.3540
    7MOL   C245 5897   5.511   0.748   2.752  0.6061 -0.2547 -0.1623
    7MOL   C246 5898   5.428   0.853   2.672 -0.3537  0.0790  0.4897
    7MOL   C247 5899   5.451   0.995   2.722  0.1128 -0.6541 -0.3976
    7MOL   O248 5900   5.404   1.099   2.638  0.5621  0.1201  0.6266
    7MOL   C249 5901   5.301   1.190   2.663  0.1053 -0.2193  0.0044
    7MOL   O250 5902   5.235   1.191   2.767  0.0984  0.6312 -0.4159
    7MOL   C251 5903   5.287   1.285   2.548 -0.2816 -0.5546  0.3075
    7MOL   C252 5904   5.176   1.371   2.551 -0.8548  0.1135  0.6181
    7MOL   C253 5905   5.166   1.478   2.463  0.4790  0.0848  0.1005
    7MOL   C254 5906   5.257   1.493   2.354 -0.6095 -0.4751  0.0462
    7MOL   C255 5907   5.236   1.616   2.275  0.5405 -0.0739  0.4941
    7MOL   O256 5908   5.148   1.701   2.290  0.1843 -0.5706 -0.1931
    7MOL   O257 5909   5.336   1.631   2.183 -0.0338  0.1364 -0.6324
    7MOL   C258 5910   5.367   1.407   2.343 -0.9672  0.5092 -0.0895
    7MOL   C259 5911   5.380   1.303   2.440 -0.5496 -0.4992 -0.2426
    7MOL   H260 5912   5.674   7.815   2.549  0.4308 -4.0417  0.7742
    7MOL   H261 5913   5.542   7.825   2.662 -0.2805 -0.5005  0.3389
    7MOL   H262 5914   5.810   7.977   2.690 -1.0232  0.4626 -1.6080
    7MOL   H263 5915   5.708   7.961   2.822  1.0974  1.4982 -0.1903
    7MOL   H264 5916   5.657   0.131   2.567  0.0907 -2.1010  0.2238
    7MOL   H265 5917   5.516   0.077   2.671  0.5715 -2.9373  1.7105
    7MOL   H266 5918   5.743   0.272   2.750 -0.1254  0.7735  2.4113
    7MOL   H267 5919   5.616   0.223   2.854  1.6315  1.9511  0.1132
    7MOL   H268 5920   5.545   0.362   2.590 -2.1559 -1.5527 -0.7965
    7MOL   H269 5921   5.441   0.323   2.713 -0.8720  2.1830 -3.2684
    7MOL   H270 5922   5.591   0.478   2.872 -0.9073 -0.4206 -0.0079
    7MOL   H271 5923   5.683   0.518   2.726 -1.2953  0.9597 -2.4381
    7MOL   H272 5924   5.479   0.580   2.614 -0.6750  2.0479 -0.0036
    7MOL   H273 5925   5.373   0.572   2.755  0.4083 -3.2111  0.2883
    7MOL   H274 5926   5.502   0.776   2.857  0.9064 -0.9793  0.0640
    7MOL   H275 5927   5.617   0.772   2.745  0.7242 -1.2155 -2.1176
    7MOL   H276 5928   5.325   0.817   2.668  0.0003 -0.9046 -0.0529
    7MOL   H277 5929   5.456   0.842   2.567 -1.8284 -1.1277  0.2101
    7MOL   H278 5930   5.558   1.008   2.737 -0.4091 -0.1292  3.3142
    7MOL   H279 5931   5.409   1.009   2.821 -2.1970 -0.3798 -1.3758
    7MOL   H280 5932   5.103   1.372   2.630 -1.4707 -0.7272  0.0751
    7MOL   H281 5933   5.086   1.550   2.472  0.5185 -0.0950  2.0666
    7MOL   H282 5934   5.432   1.418   2.257 -1.3698 -0.9461 -0.5829
    7MOL   H283 5935   5.462   1.235   2.427 -2.1119 -2.1592 -1.5420
    7MOL   O284 5936   5.330   1.772   2.110 -0.2553 -0.2037  0.6915
    7MOL   C285 5937   5.335   1.753   1.975  0.5935 -0.4334  0.6261
    7MOL   C286 5938   5.347   1.884   1.901  0.1680 -0.4418 -0.2931
    7MOL   C287 5939   5.397   1.861   1.754 -0.1779 -0.0913 -0.0779
    7MOL   C288 5940   5.395   1.990   1.669 -0.6802  0.0410 -0.3648
    7MOL   C289 5941   5.440   1.979   1.526  0.7265  0.6874 -1.1802
    7MOL   C290 5942   5.350   1.885   1.446 -0.3770 -0.3503  0.4402
    7MOL   C291 5943   5.203   1.927   1.458  0.0522 -0.1346 -0.3764
    7MOL   C292 5944   5.106   1.818   1.406 -0.3576  0.0292  0.8002
    7MOL   C293 5945   5.063   1.825   1.260 -0.0091  0.0372  0.2199
    7MOL   C294 5946   4.951   1.727   1.225  0.3455  0.4451 -0.6134
    7MOL   O295 5947   4.991   1.590   1.224 -0.1848  0.2755 -0.1933
    7MOL   C296 5948   4.895   1.495   1.218  0.0434  0.4679 -0.1819
    7MOL   O297 5949   4.773   1.540   1.216  0.0928  0.4569  0.2280
    7MOL   C298 5950   4.948   1.352   1.210 -0.1370 -0.0270  0.0130
    7MOL   C299 5951   5.087   1.322   1.193  0.3615  0.0834  0.9042
    7MOL   C300 5952   5.128   1.186   1.176 -0.2044 -0.7675 -0.1988
    7MOL   C301 5953   5.034   1.080   1.197 -0.6701 -0.6763  0.7704
    7MOL   C302 5954   5.083   0.941   1.195  0.2537  0.5450  0.4581
    7MOL   O303 5955   5.197   0.900   1.210 -0.3003 -0.0654  0.1685
    7MOL   O304 5956   4.985   0.853   1.162 -0.1248 -0.2646  0.2071
    7MOL   C305 5957   4.898   1.110   1.220 -1.0201 -0.0203 -0.5221
    7MOL   C306 5958   4.857   1.247   1.215 -0.3595  0.6861  0.4555
    7MOL   H307 5959   5.431   1.702   1.966  0.7668  0.2281 -1.7339
    7MOL   H308 5960   5.261   1.685   1.934 -0.0356 -0.9560  2.5686
    7MOL   H309 5961   5.413   1.959   1.944 -2.1145  1.5939 -0.2414
    7MOL   H310 5962   5.248   1.929   1.893  1.4542  3.0132  2.1237
    7MOL   H311 5963   5.499   1.823   1.756  0.1393  0.8083  2.4482
    7MOL   H312 5964   5.332   1.792   1.700 -1.0486  0.2746  0.4835
    7MOL   H313 5965   5.466   2.068   1.698 -2.4439  1.2123  0.9413
    7MOL   H314 5966   5.296   2.035   1.677 -0.8233 -0.7350  3.0506
    7MOL   H315 5967   5.460   2.074   1.477  0.9864  1.5355  0.5329
    7MOL   H316 5968   5.536   1.926   1.523 -1.1943 -3.3036  2.0741
    7MOL   H317 5969   5.374   1.892   1.340 -0.1776  0.8660  0.5619
    7MOL   H318 5970   5.360   1.778   1.467  0.6721 -0.1306  1.1074
    7MOL   H319 5971   5.172   1.917   1.562  0.4330  1.1553 -0.1389
    7MOL   H320 5972   5.183   2.029   1.426 -0.8275  0.0196  0.6398
    7MOL   H321 5973   5.140   1.716   1.424 -2.6353 -0.9587 -0.2339
    7MOL   H322 5974   5.010   1.823   1.458 -0.5537 -0.3994  0.4824
    7MOL   H323 5975   5.146   1.819   1.190  0.7534  0.8170  1.0366
    7MOL   H324 5976   5.029   1.928   1.245  0.3081  0.3890  1.7366
    7MOL   H325 5977   4.908   1.758   1.130  0.6967  2.2588 -0.1938
    7MOL   H326 5978   4.878   1.740   1.305  0.7687  0.7102 -0.2687
    7MOL   H327 5979   5.163   1.397   1.202  0.4941 -0.1164  1.5083
    7MOL   H328 5980   5.226   1.167   1.133  0.4372  1.3530  0.2447
    7MOL   H329 5981   4.816   1.041   1.232  0.2741 -1.3161  1.1717
    7MOL   H330 5982   4.754   1.276   1.232 -0.6798 -0.3650  0.3382
    7MOL   O331 5983   5.018   0.704   1.174  0.6271 -0.2805 -0.4303
    7MOL   C332 5984   5.042   0.645   1.047 -0.1698 -0.1508 -0.1658
    7MOL   C333 5985   5.055   0.495   1.061  0.0657 -0.3370 -0.2250
    7MOL   C334 5986   5.189   0.455   1.129 -0.2009  0.4075  0.4210
    7MOL   C335 5987   5.310   0.476   1.039  0.4129  0.9811 -0.3976
    7MOL   C336 5988   5.426   0.386   1.087  0.1124 -0.5537 -0.2272
    7MOL   C337 5989   5.482   0.441   1.212 -0.0874 -0.0292  0.2730
    7MOL   C338 5990   5.613   0.370   1.249 -0.7694  0.1751  0.1034
    7MOL   C339 5991   5.684   0.415   1.380  0.2769 -0.0569 -0.3539
    7MOL   C340 5992   5.804   0.318   1.401 -0.8045  0.9314  0.1427
    7MOL   C341 5993   5.876   0.324   1.531 -0.4191 -0.1253  0.6561
    7MOL   O342 5994   5.783   0.290   1.635 -0.2005 -0.7449  0.1651
    7MOL   C343 5995   5.829   0.266   1.754 -0.3521 -0.1117  0.5261
    7MOL   O344 5996   5.952   0.258   1.773  0.0425 -0.2355  0.4102
    7MOL   C345 5997   5.728   0.259   1.861 -0.1695  0.2894 -0.4532
    7MOL   C346 5998   5.781   0.230   1.987 -0.2176  0.2467 -0.1457
    7MOL   C347 5999   5.694   0.206   2.093 -0.2343  0.5564  0.3898
    7MOL   C348 6000   5.554   0.227   2.074 -0.3165  0.1797 -0.3290
    7MOL   C349 6001   5.450   0.208   2.186  0.5866 -0.4289  0.4523
    7MOL   O350 6002   5.330   0.243   2.173 -0.6270 -0.0643 -0.4019
    7MOL   O351 6003   5.508   0.152   2.299  0.1642 -0.4286 -0.3989
    7MOL   C352 6004   5.508   0.278   1.954  0.5869  0.2691 -0.2727
    7MOL   C353 6005   5.597   0.293   1.848 -1.3941 -0.3615  0.2275
    7MOL   H354 6006   4.950   0.647   0.989  0.2816 -2.2780 -1.0129
    7MOL   H355 6007   5.133   0.682   0.998 -0.2902  0.3102 -0.0460
    7MOL   H356 6008   5.043   0.442   0.966  1.2602 -2.5564  0.8176
    7MOL   H357 6009   4.980   0.458   1.131 -2.3742 -0.9061 -3.0111
    7MOL   H358 6010   5.193   0.497   1.229  0.2770  2.7260 -0.5412
    7MOL   H359 6011   5.180   0.347   1.143  0.7880  0.3056  0.3269
    7MOL   H360 6012   5.342   0.580   1.036  0.2414  1.0559  0.2571
    7MOL   H361 6013   5.276   0.451   0.939  2.5739 -2.5622 -0.3530
    7MOL   H362 6014   5.389   0.285   1.105 -2.6131  0.2302 -1.1726
    7MOL   H363 6015   5.500   0.376   1.008  0.6539  1.9867 -0.0965
    7MOL   H364 6016   5.514   0.543   1.191  0.8994 -0.6682 -1.3852
    7MOL   H365 6017   5.403   0.428   1.286  0.2872  0.1836  0.7125
    7MOL   H366 6018   5.612   0.261   1.250 -1.2217  0.1378 -2.1443
    7MOL   H367 6019   5.680   0.392   1.166 -0.1225 -0.9993  0.3099
    7MOL   H368 6020   5.711   0.520   1.368  1.0390  0.0151  1.8254
    7MOL   H369 6021   5.620   0.420   1.468 -2.6168  2.7355 -2.4735
    7MOL   H370 6022   5.873   0.309   1.317 -2.3860 -0.9995 -1.0013
    7MOL   H371 6023   5.762   0.218   1.388 -4.2185  2.6213 -2.3706
    7MOL   H372 6024   5.918   0.422   1.552  0.0414 -0.0638 -0.5260
    7MOL   H373 6025   5.965   0.262   1.537 -0.3437  0.0129  0.9768
    7MOL   H374 6026   5.887   0.212   2.000  0.0394  1.9032  0.1317
    7MOL   H375 6027   5.735   0.182   2.190  1.6223  0.6151 -0.3514
    7MOL   H376 6028   5.400   0.290   1.946  0.5670  0.8714  0.7752
    7MOL   H377 6029   5.552   0.335   1.759 -1.5272 -0.1541  0.3912
    7MOL   O378 6030   5.411   0.100   2.404  0.7035  0.1069  0.3416
    7MOL   C379 6031   5.377   7.947   2.366 -0.1623 -0.7625 -0.0864
    7MOL   C380 6032   5.286   7.877   2.464 -0.7730 -0.0156  0.3769
    7MOL   C381 6033   5.262   7.731   2.424 -0.3075  0.5665  0.1835
    7MOL   C382 6034   5.372   7.635   2.469 -0.6371 -0.4302  0.1452
    7MOL   C383 6035   5.346   7.494   2.421  0.3077 -0.1080 -0.4908
    7MOL   C384 6036   5.240   7.426   2.518 -0.1864 -0.0147 -0.6871
    7MOL   C385 6037   5.185   7.297   2.451  0.1597 -0.2739 -0.9453
    7MOL   C386 6038   5.105   7.200   2.541  0.2258  0.2293 -0.1760
    7MOL   C387 6039   5.182   7.149   2.665  0.1067 -0.0518  0.0861
    7MOL   C388 6040   5.103   7.056   2.752 -0.0615 -0.8256  0.1356
    7MOL   O389 6041   5.089   6.937   2.680  0.0879  0.2739  0.1011
    7MOL   C390 6042   4.982   6.863   2.671 -0.2343  0.7060 -0.0466
    7MOL   O391 6043   4.894   6.878   2.759  0.9210  0.3071 -0.1820
    7MOL   C392 6044   4.990   6.769   2.556  0.6773  0.0693 -0.2113
    7MOL   C393 6045   4.902   6.661   2.549  0.1049 -0.1218  0.0880
    7MOL   C394 6046   4.916   6.566   2.440 -0.4063 -0.7531  0.2662
    7MOL   C395 6047   5.018   6.584   2.347 -0.2025  0.0212  0.1054
    7MOL   C396 6048   5.047   6.494   2.237 -0.0788  0.7683  0.6632
    7MOL   O397 6049   5.143   6.504   2.163 -0.0496 -0.4806  0.6162
    7MOL   O398 6050   4.953   6.393   2.224  0.5324  0.6140  0.1790
    7MOL   C399 6051   5.102   6.697   2.354 -0.6442 -0.3960 -0.2976
    7MOL   C400 6052   5.090   6.784   2.458  0.5394 -0.4185  0.2455
    7MOL   H401 6053   5.321   7.943   2.272 -2.7968 -1.3830  1.4787
    7MOL   H402 6054   5.466   7.884   2.360  0.5298  0.3544 -2.1921
    7MOL   H403 6055   5.190   7.927   2.474 -0.9850  0.0551 -1.7862
    7MOL   H404 6056   5.329   7.862   2.563 -0.1879 -1.0321 -0.0183
    7MOL   H405 6057   5.173   7.706   2.482  0.3070  1.7357  1.6550
    7MOL   H406 6058   5.242   7.732   2.316  1.0832 -2.8139 -0.1825
    7MOL   H407 6059   5.382   7.638   2.577  0.5646  0.7881  0.0125
    7MOL   H408 6060   5.469   7.678   2.444  0.3099 -2.2391  0.6786
    7MOL   H409 6061   5.294   7.497   2.325  0.4801  0.5146 -0.5680
    7MOL   H410 6062   5.438   7.437   2.407  0.4863  0.0101  0.2136
    7MOL   H411 6063   5.292   7.404   2.611  0.6077  2.5779 -0.4956
    7MOL   H412 6064   5.160   7.497   2.537  0.9429  0.5633  2.0918
    7MOL   H413 6065   5.122   7.325   2.367 -0.1443  0.2527 -0.5510
    7MOL   H414 6066   5.264   7.232   2.413 -1.4725 -1.9638 -1.5282
    7MOL   H415 6067   5.021   7.257   2.580 -1.3589 -1.6686 -0.7624
    7MOL   H416 6068   5.068   7.119   2.478 -1.2943 -0.4746  1.5884
    7MOL   H417 6069   5.194   7.234   2.732 -1.5163 -0.3405  0.7682
    7MOL   H418 6070   5.281   7.108   2.646  0.5344  0.9411  0.1524
    7MOL   H419 6071   5.005   7.099   2.772  0.0950 -0.5945  0.4099
    7MOL   H420 6072   5.151   7.048   2.849 -0.6852 -0.0329  0.5129
    7MOL   H421 6073   4.830   6.648   2.628 -0.3763 -0.0763 -0.3441
    7MOL   H422 6074   4.840   6.488   2.436 -3.3653  2.0656 -0.4084
    7MOL   H423 6075   5.188   6.709   2.289 -0.8683  2.6479 -0.0928
    7MOL   H424 6076   5.161   6.864   2.473 -0.0688 -0.0812  1.3681
    7MOL   O425 6077   4.991   6.292   2.121  0.3009  0.3305  0.2703
    7MOL   C426 6078   4.884   6.291   2.028 -0.5171  0.0128  0.1437
    7MOL   C427 6079   4.753   6.224   2.080  0.5578  0.9539  0.3721
    7MOL   C428 6080   4.765   6.074   2.113  0.0894 -0.1980 -0.0648
    7MOL   C429 6081   4.766   5.970   1.994 -0.0643 -0.0326 -0.1657
    7MOL   C430 6082   4.781   5.823   2.045 -0.0114  0.4684 -0.8090
    7MOL   C431 6083   4.744   5.714   1.936  0.6542  0.1644  0.5545
    7MOL   C432 6084   4.703   5.575   2.000 -0.2784 -0.1708 -0.6620
    7MOL   C433 6085   4.703   5.467   1.890  0.2922  0.4287  0.3654
    7MOL   C434 6086   4.628   5.350   1.954  0.4199  0.4931  0.1008
    7MOL   C435 6087   4.488   5.327   1.909 -0.4324 -1.0020 -0.3424
    7MOL   O436 6088   4.430   5.215   1.968 -0.5770  0.3173 -0.0835
    7MOL   C437 6089   4.309   5.213   2.020  0.0424  0.3819  0.9004
    7MOL   O438 6090   4.248   5.315   2.055  0.4523  0.7095  0.0173
    7MOL   C439 6091   4.251   5.076   2.037 -0.9082  0.7971  0.0026
    7MOL   C440 6092   4.116   5.054   2.073 -0.2464 -0.2343  0.2236
    7MOL   C441 6093   4.063   4.923   2.097 -0.2895 -0.9841 -0.2154
    7MOL   C442 6094   4.150   4.813   2.083  0.5347 -0.1793 -0.2182
    7MOL   C443 6095   4.093   4.674   2.110  0.5445 -0.0806 -0.1855
    7MOL   O444 6096   3.977   4.647   2.140 -0.5452  0.0482 -0.4025
    7MOL   O445 6097   4.182   4.569   2.091  0.2565  0.0212 -0.0135
    7MOL   C446 6098   4.284   4.831   2.047 -0.3589  0.1876  0.1107
    7MOL   C447 6099   4.333   4.960   2.027  0.0750 -0.1421  0.2181
    7MOL   H448 6100   4.863   6.394   2.000  0.7546  0.3602  0.4262
    7MOL   H449 6101   4.930   6.244   1.941  0.6254  1.0048  0.1985
    7MOL   H450 6102   4.683   6.252   2.002  1.0490  2.5941  0.5126
    7MOL   H451 6103   4.725   6.273   2.173 -1.7151  0.1206  0.1784
    7MOL   H452 6104   4.862   6.075   2.162 -0.0221 -0.3982  0.1632
    7MOL   H453 6105   4.694   6.046   2.191  2.0081 -0.8956  1.4727
    7MOL   H454 6106   4.842   6.000   1.921  1.1628 -1.2685  0.5881
    7MOL   H455 6107   4.665   5.962   1.953 -0.3332 -0.4614  0.5699
    7MOL   H456 6108   4.884   5.804   2.073  0.0791 -1.4344 -2.3087
    7MOL   H457 6109   4.724   5.809   2.137 -0.9281 -0.4692 -1.5062
    7MOL   H458 6110   4.649   5.746   1.892  0.6837  0.2759  0.5702
    7MOL   H459 6111   4.820   5.685   1.864 -0.0932 -1.0550  0.2460
    7MOL   H460 6112   4.772   5.558   2.082 -2.6292 -0.5641  1.2867
    7MOL   H461 6113   4.604   5.591   2.043 -0.8556  1.0123 -2.3767
    7MOL   H462 6114   4.653   5.503   1.800 -0.0679 -1.0170 -0.0334
    7MOL   H463 6115   4.805   5.444   1.859 -0.1480  0.0400 -0.8336
    7MOL   H464 6116   4.634   5.363   2.062  1.7961 -1.2085  0.2522
    7MOL   H465 6117   4.688   5.262   1.933 -0.6355 -0.0390 -0.7574
    7MOL   H466 6118   4.490   5.308   1.801 -1.1353  0.7313 -0.6728
    7MOL   H467 6119   4.426   5.415   1.924  0.8291 -0.1729  0.0631
    7MOL   H468 6120   4.046   5.135   2.082  0.3185  0.2688  0.1408
    7MOL   H469 6121   3.959   4.909   2.126  0.5218 -1.9707  2.3673
    7MOL   H470 6122   4.350   4.746   2.040 -1.7445 -0.9888  1.0115
    7MOL   H471 6123   4.435   4.969   1.991 -0.8497  0.8686 -2.3205
    7MOL   O472 6124   4.135   4.431   2.124 -0.1424 -0.4870  0.4464
    7MOL   C473 6125   4.099   4.367   2.004  1.0219  0.2610  0.1588
    7MOL   C474 6126   4.058   4.222   2.041 -0.1590 -0.3027 -0.1680
    7MOL   C475 6127   3.994   4.140   1.930 -0.5244  0.5846 -0.5672
    7MOL   C476 6128   3.969   3.995   1.959  0.3196  0.6249 -0.2231
    7MOL   C477 6129   3.917   3.965   2.098  0.5390  0.1957  0.3317
    7MOL   C478 6130   3.883   3.815   2.105 -0.0192  0.3253 -0.3258
    7MOL   C479 6131   3.856   3.769   2.244  0.0192  0.5307  0.4710
    7MOL   C480 6132   3.734   3.839   2.306 -0.4850  0.0150  0.4190
    7MOL   C481 6133   3.690   3.802   2.453 -0.1302 -0.0084 -0.4916
    7MOL   C482 6134   3.799   3.829   2.558 -0.1123 -0.1782  0.4411
    7MOL   O483 6135   3.853   3.957   2.546 -0.2611  0.0892  0.0344
    7MOL   C484 6136   3.969   3.978   2.610  0.2797  0.1309 -0.2012
    7MOL   O485 6137   4.025   3.900   2.689 -0.1826  0.1085 -0.5931
    7MOL   C486 6138   4.031   4.112   2.578  0.1785  0.1355 -0.4463
    7MOL   C487 6139   3.972   4.203   2.483  0.6118 -0.7113 -0.5220
    7MOL   C488 6140   4.036   4.326   2.444  0.3679  0.7452  0.1016
    7MOL   C489 6141   4.142   4.373   2.527 -0.3233  0.3045  0.4840
    7MOL   C490 6142   4.198   4.506   2.513  0.0314  0.0033 -0.0379
    7MOL   O491 6143   4.303   4.542   2.574  0.4000  0.0595  0.3229
    7MOL   O492 6144   4.137   4.588   2.429 -0.6340 -0.7832 -0.2481
    7MOL   C493 6145   4.191   4.287   2.625 -0.1507 -0.1147 -0.2731
    7MOL   C494 6146   4.150   4.156   2.648 -0.5621 -0.6223  0.5000
    7MOL   H495 6147   4.014   4.415   1.955 -0.4946 -2.5655 -0.0710
    7MOL   H496 6148   4.178   4.367   1.930  0.7304 -1.1996 -0.1711
    7MOL   H497 6149   3.990   4.222   2.126  0.1393  1.2222  0.0900
    7MOL   H498 6150   4.147   4.173   2.079 -0.3052  0.1530  0.7807
    7MOL   H499 6151   3.900   4.193   1.911 -0.8532 -0.2349 -1.2421
    7MOL   H500 6152   4.060   4.152   1.844  0.4600 -1.6540 -0.1595
    7MOL   H501 6153   4.063   3.945   1.938  0.6574  1.2766 -0.2925
    7MOL   H502 6154   3.892   3.973   1.884 -0.2017 -1.5352  0.9130
    7MOL   H503 6155   3.992   3.991   2.172  1.2522  0.2640 -0.4008
    7MOL   H504 6156   3.826   4.025   2.104  2.0749  2.5900  0.3456
    7MOL   H505 6157   3.803   3.783   2.038  0.5608 -0.8546 -0.4763
    7MOL   H506 6158   3.970   3.752   2.084 -0.4818 -1.7791  3.5923
    7MOL   H507 6159   3.851   3.660   2.245 -0.3756  0.5394 -0.2477
    7MOL   H508 6160   3.946   3.799   2.298 -0.8934  1.8103  1.3152
    7MOL   H509 6161   3.745   3.947   2.299  1.7207 -0.3321 -2.1570
    7MOL   H510 6162   3.648   3.820   2.243 -0.0800  1.3829 -0.5726
    7MOL   H511 6163   3.656   3.699   2.464  2.5951 -0.5896  3.6932
    7MOL   H512 6164   3.610   3.872   2.476 -0.5035 -0.0133 -1.7137
    7MOL   H513 6165   3.874   3.750   2.552  1.7834  1.4940  1.2109
    7MOL   H514 6166   3.756   3.814   2.657  2.2726  1.3736  1.7568
    7MOL   H515 6167   3.882   4.183   2.427  0.2827  0.0204 -0.2662
    7MOL   H516 6168   3.989   4.394   2.375 -1.5235  1.0965  1.7068
    7MOL   H517 6169   4.278   4.303   2.685  0.4856 -1.3952 -0.8264
    7MOL   H518 6170   4.195   4.075   2.703 -1.4482 -1.3808  0.1343
    7MOL   O519 6171   4.201   4.724   2.406  0.0894  0.2032  0.2267
    7MOL   C520 6172   4.121   4.827   2.467  0.6706 -0.7061 -0.2125
    7MOL   C521 6173   4.187   4.969   2.461  0.0313  0.6750  0.1450
    7MOL   C522 6174   4.286   5.000   2.573 -0.5820 -0.9797 -0.3466
    7MOL   C523 6175   4.359   5.137   2.559  0.4700  0.0135  0.0949
    7MOL   C524 6176   4.266   5.259   2.567  0.6906 -0.4353  0.3843
    7MOL   C525 6177   4.340   5.393   2.577  0.3646 -0.8643 -0.0244
    7MOL   C526 6178   4.403   5.425   2.442  0.8642 -0.3560  0.5280
    7MOL   C527 6179   4.472   5.564   2.434 -0.2683 -0.1836  0.2768
    7MOL   C528 6180   4.598   5.568   2.527 -0.5452 -0.4553 -0.4304
    7MOL   C529 6181   4.659   5.711   2.534 -0.8994  0.2143 -0.1731
    7MOL   O530 6182   4.552   5.798   2.571  0.3313  0.2805  0.1945
    7MOL   C531 6183   4.550   5.870   2.682  0.0619 -0.2111  0.0033
    7MOL   O532 6184   4.620   5.858   2.776  0.4535  0.4854 -0.2032
    7MOL   C533 6185   4.429   5.967   2.683 -0.1920 -0.1477 -0.2535
    7MOL   C534 6186   4.317   5.933   2.608  0.4434 -0.3915  0.0202
    7MOL   C535 6187   4.201   6.021   2.616  0.2850  0.0076  0.2406
    7MOL   C536 6188   4.202   6.131   2.701 -0.1116 -0.7016  0.9852
    7MOL   C537 6189   4.085   6.220   2.717  0.4319  0.6483  0.0611
    7MOL   O538 6190   4.092   6.325   2.780  0.0032 -0.4619  0.4190
    7MOL   O539 6191   3.979   6.173   2.649  0.0140  0.0145  0.5721
    7MOL   C540 6192   4.315   6.154   2.785  0.7900  0.7806  0.1007
    7MOL   C541 6193   4.432   6.076   2.775 -0.2047 -0.4110  0.4367
    7MOL   H542 6194   4.027   4.825   2.412  0.5769  1.1876 -0.1425
    7MOL   H543 6195   4.091   4.789   2.565 -1.2779 -1.0380 -0.9053
    7MOL   H544 6196   4.109   5.046   2.462 -1.1251 -0.4536  3.1696
    7MOL   H545 6197   4.243   4.976   2.368 -2.2759 -2.3757 -1.5604
    7MOL   H546 6198   4.235   5.002   2.669 -1.7134  0.9471 -0.9527
    7MOL   H547 6199   4.364   4.924   2.578  0.5079  0.0652 -1.0976
    7MOL   H548 6200   4.419   5.129   2.468 -1.5851 -2.9221 -1.0785
    7MOL   H549 6201   4.427   5.138   2.644  0.4569 -1.3390  0.1250
    7MOL   H550 6202   4.198   5.270   2.482  3.1399 -1.4526 -1.7470
    7MOL   H551 6203   4.214   5.234   2.660 -1.5239 -0.6444 -0.8790
    7MOL   H552 6204   4.272   5.468   2.616  1.6268  0.2893  0.0144
    7MOL   H553 6205   4.416   5.368   2.651 -0.2320 -3.6804 -0.2914
    7MOL   H554 6206   4.467   5.352   2.393  1.8661  1.5615 -1.1104
    7MOL   H555 6207   4.321   5.429   2.370  0.1458  1.2874  1.4020
    7MOL   H556 6208   4.498   5.607   2.338 -0.5185  0.9499  0.7082
    7MOL   H557 6209   4.400   5.638   2.469 -0.8670 -1.1680  1.1681
    7MOL   H558 6210   4.672   5.494   2.497 -0.0170 -0.2104  0.2603
    7MOL   H559 6211   4.575   5.525   2.625  0.5012  0.8415  0.3922
    7MOL   H560 6212   4.697   5.746   2.438 -1.5448 -0.0615 -0.5293
    7MOL   H561 6213   4.744   5.715   2.602 -0.2017  0.9664 -1.0711
    7MOL   H562 6214   4.319   5.849   2.540  0.2908  0.1293 -0.6448
    7MOL   H563 6215   4.110   5.997   2.563 -1.5651  0.4102  3.1249
    7MOL   H564 6216   4.308   6.243   2.847 -1.9805  1.9317 -1.7283
    7MOL   H565 6217   4.517   6.084   2.840  0.7890  0.4994 -0.9616
    7MOL   O566 6218   3.845   6.236   2.688  0.1819 -0.9145  0.0736
    7MOL   C567 6219   3.785   6.294   2.572 -0.3359 -0.2806 -0.4368
    7MOL   C568 6220   3.830   6.440   2.581 -0.1029 -0.3457  0.0748
    7MOL   C569 6221   3.789   6.522   2.466 -0.0834 -0.2601 -0.0460
    7MOL   C570 6222   3.857   6.666   2.464  0.1154  0.6032  0.0935
    7MOL   C571 6223   3.795   6.758   2.351  0.6398  0.1052 -0.8307
    7MOL   C572 6224   3.640   6.778   2.353  0.6257 -0.2253  1.1377
    7MOL   C573 6225   3.603   6.897   2.443 -0.3901  0.9216  0.5418
    7MOL   C574 6226   3.456   6.906   2.465 -0.8806  0.0819  0.2253
    7MOL   C575 6227   3.393   7.036   2.513  0.0037 -0.2559  0.2208
    7MOL   C576 6228   3.242   7.012   2.531 -0.2738 -0.5178 -0.4298
    7MOL   O577 6229   3.202   6.940   2.649 -0.2300 -0.5525  0.2885
    7MOL   C578 6230   3.196   7.004   2.767  0.2688 -0.3157  0.5553
    7MOL   O579 6231   3.232   7.118   2.784  0.0123 -0.7304  0.1558
    7MOL   C580 6232   3.162   6.917   2.876 -0.5853  0.1914 -0.3067
    7MOL   C581 6233   3.192   6.777   2.871 -0.1293 -0.1487  0.2824
    7MOL   C582 6234   3.178   6.694   2.980  0.3815 -0.1249 -0.1852
    7MOL   C583 6235   3.131   6.743   3.104  0.1302 -0.0749 -0.1333
    7MOL   C584 6236   3.116   6.663   3.227 -0.2727 -0.3325  0.1051
    7MOL   O585 6237   3.126   6.710   3.341  0.7340 -0.1971 -0.0412
    7MOL   O586 6238   3.107   6.532   3.190 -0.2509  0.0159  0.9320
    7MOL   C587 6239   3.099   6.880   3.111 -0.4997 -0.2181  0.1135
    7MOL   C588 6240   3.107   6.963   3.001 -0.3127 -0.9748  0.0869
    7MOL   H589 6241   3.829   6.240   2.489  0.6550  1.0557 -0.7880
    7MOL   H590 6242   3.676   6.287   2.584 -0.3925  1.5132  0.4124
    7MOL   H591 6243   3.939   6.438   2.586 -0.1518  1.0112  2.1666
    7MOL   H592 6244   3.804   6.487   2.675 -0.5066  1.2018 -0.7920
    7MOL   H593 6245   3.808   6.453   2.383  0.5213 -1.5299  1.1204
    7MOL   H594 6246   3.681   6.534   2.474 -0.0495 -0.6112  1.0763
    7MOL   H595 6247   3.961   6.644   2.439 -0.3116 -4.1615  1.8592
    7MOL   H596 6248   3.852   6.713   2.562 -1.6999 -0.4366  0.5146
    7MOL   H597 6249   3.838   6.858   2.351  0.4657  0.1812  0.2559
    7MOL   H598 6250   3.824   6.702   2.262  0.2164 -1.4464 -0.0220
    7MOL   H599 6251   3.610   6.797   2.250  1.3488 -0.1994  0.9286
    7MOL   H600 6252   3.581   6.696   2.392  0.4406  0.2280  1.8146
    7MOL   H601 6253   3.660   6.885   2.534 -1.0929  0.8973  0.9843
    7MOL   H602 6254   3.640   6.993   2.408 -0.3906  0.1682 -1.5856
    7MOL   H603 6255   3.407   6.894   2.369 -3.2334  3.2088  0.9619
    7MOL   H604 6256   3.425   6.823   2.529  0.2191  1.3560  2.4817
    7MOL   H605 6257   3.408   7.120   2.445  0.6481  1.5299  2.5233
    7MOL   H606 6258   3.445   7.065   2.604  1.9474 -2.2007 -0.2357
    7MOL   H607 6259   3.188   6.961   2.452  0.7708 -0.4916 -1.1739
    7MOL   H608 6260   3.190   7.108   2.526  1.5594  0.6581  1.7973
    7MOL   H609 6261   3.216   6.730   2.777  0.1333  0.3189  0.1144
    7MOL   H610 6262   3.199   6.589   2.965  1.5417  0.1827 -0.7618
    7MOL   H611 6263   3.072   6.926   3.204 -0.3433 -0.4176  0.2574
    7MOL   H612 6264   3.098   7.070   3.012 -0.5438 -1.0971  1.0689
    7MOL   O613 6265   3.106   6.431   3.299  0.0525  0.1213 -0.0380
    7MOL   C614 6266   2.973   6.403   3.346 -0.2555  0.2238 -0.2113
    7MOL   C615 6267   2.983   6.336   3.481 -0.7825 -0.2475  0.3999
    7MOL   C616 6268   3.010   6.183   3.488 -0.1899 -0.0416  0.4654
    7MOL   C617 6269   3.139   6.140   3.405 -0.5702  0.2643 -0.0780
    7MOL   C618 6270   3.155   5.993   3.419  0.4107  0.5398 -0.2430
    7MOL   C619 6271   3.291   5.941   3.365 -0.2360  0.0684 -0.6864
    7MOL   C620 6272   3.330   5.959   3.216 -0.3486 -0.0264  0.2139
    7MOL   C621 6273   3.241   5.892   3.110 -0.5350  0.1090  0.2289
    7MOL   C622 6274   3.107   5.966   3.071  0.3161 -0.1889  0.5199
    7MOL   C623 6275   3.001   5.878   3.003  0.0602 -0.3581  0.1380
    7MOL   O624 6276   2.898   5.828   3.088 -0.1580  0.6450 -0.1204
    7MOL   C625 6277   2.883   5.705   3.119 -0.1521  0.2768  0.3090
    7MOL   O626 6278   2.943   5.617   3.061 -0.9602  0.0990  0.0216
    7MOL   C627 6279   2.795   5.687   3.239 -0.1958 -0.3527  0.2102
    7MOL   C628 6280   2.765   5.797   3.323 -0.4293  0.3731  0.2613
    7MOL   C629 6281   2.678   5.777   3.434  0.5524  0.7649 -0.0671
    7MOL   C630 6282   2.614   5.650   3.452  1.0257 -0.2507  0.3265
    7MOL   C631 6283   2.515   5.629   3.566  0.2327  0.4193 -0.1978
    7MOL   O632 6284   2.464   5.518   3.593  0.3178  0.1418  0.3994
    7MOL   O633 6285   2.479   5.744   3.625 -0.4992 -0.0004 -0.3259
    7MOL   C634 6286   2.651   5.540   3.376 -0.5860  0.3478  0.5946
    7MOL   C635 6287   2.745   5.555   3.269 -0.5045 -0.7421 -0.0638
    7MOL   H636 6288   2.915   6.494   3.356 -0.3629 -0.0756  2.1289
    7MOL   H637 6289   2.918   6.332   3.285 -1.5999  0.6059  0.5412
    7MOL   H638 6290   2.886   6.343   3.531 -1.1355 -0.8156 -0.2036
    7MOL   H639 6291   3.037   6.399   3.552  1.1981  0.3926 -1.6186
    7MOL   H640 6292   3.023   6.152   3.592  1.6069 -2.2115 -0.3580
    7MOL   H641 6293   2.927   6.132   3.439  1.2489  0.0430 -2.1811
    7MOL   H642 6294   3.229   6.190   3.442 -1.6486  0.8126  1.8441
    7MOL   H643 6295   3.124   6.179   3.305 -1.1890  2.4486  0.8304
    7MOL   H644 6296   3.154   5.975   3.526 -1.2767 -2.0033 -0.6457
    7MOL   H645 6297   3.070   5.935   3.382 -1.1515  2.5418  0.1075
    7MOL   H646 6298   3.365   5.997   3.423 -0.3897  0.1515 -0.5721
    7MOL   H647 6299   3.303   5.838   3.398 -0.5732 -0.3737 -1.9270
    7MOL   H648 6300   3.352   6.065   3.203  0.2910  0.0201  1.6114
    7MOL   H649 6301   3.425   5.904   3.213 -0.2826  0.0161  1.2473
    7MOL   H650 6302   3.300   5.864   3.023 -0.5076  1.2834 -0.1376
    7MOL   H651 6303   3.213   5.797   3.157  4.4479 -1.9736 -0.7665
    7MOL   H652 6304   3.134   6.062   3.026  0.7157  0.3263  1.8347
    7MOL   H653 6305   3.066   5.986   3.170 -0.0220 -1.3709  0.6173
    7MOL   H654 6306   3.052   5.801   2.945  1.2388  0.1994  0.4388
    7MOL   H655 6307   2.956   5.943   2.928 -0.6816 -0.5542  0.4028
    7MOL   H656 6308   2.813   5.892   3.306 -0.2773  0.0849 -0.9454
    7MOL   H657 6309   2.663   5.860   3.501 -1.7442 -0.1236  0.5403
    7MOL   H658 6310   2.601   5.445   3.390 -2.0154  1.2516  1.8130
    7MOL   H659 6311   2.775   5.474   3.203  1.8842 -0.3034  0.4163
    7MOL   O660 6312   2.382   5.721   3.735  0.3901 -0.4423  0.2690
    7MOL   C661 6313   2.444   5.728   3.866  0.2069 -0.3939 -0.0388
    7MOL   C662 6314   2.529   5.601   3.897  0.1443  0.0908  0.6435
    7MOL   C663 6315   2.618   5.617   4.021  0.0996 -0.5001  0.9686
    7MOL   C664 6316   2.664   5.484   4.084  0.0086 -0.7573  0.1111
    7MOL   C665 6317   2.763   5.505   4.204  1.0072  0.3760  0.4683
    7MOL   C666 6318   2.781   5.376   4.290 -0.3557 -0.1709 -0.2523
    7MOL   C667 6319   2.873   5.276   4.224 -0.2079  1.0122  0.0308
    7MOL   C668 6320   2.867   5.136   4.292 -0.1223  0.0334  0.0282
    7MOL   C669 6321   2.950   5.035   4.208  0.1653 -0.9904 -0.3624
    7MOL   C670 6322   2.934   4.894   4.267 -0.7432  0.6738  0.4550
    7MOL   O671 6323   2.984   4.886   4.397 -0.1321 -0.3910  0.0605
    7MOL   C672 6324   2.908   4.819   4.496 -0.5126  0.8297  0.6435
    7MOL   O673 6325   2.794   4.780   4.477  0.1272  0.2620 -0.1766
    7MOL   C674 6326   2.984   4.833   4.616  0.0305  0.7398 -0.3214
    7MOL   C675 6327   2.959   4.739   4.721 -0.3495  0.6847  0.5279
    7MOL   C676 6328   3.035   4.749   4.843 -0.1090 -0.3148  0.8574
    7MOL   C677 6329   3.126   4.856   4.869  0.5438  0.7537 -0.0278
    7MOL   C678 6330   3.207   4.856   4.988  0.0056  0.8426 -0.4827
    7MOL   O679 6331   3.231   4.752   5.046  0.2705 -0.1871 -0.0644
    7MOL   O680 6332   3.244   4.990   5.028  0.0686 -0.0286 -0.0520
    7MOL   C681 6333   3.138   4.951   4.765 -0.2447 -0.2772  0.0060
    7MOL   C682 6334   3.077   4.940   4.641  0.2176 -0.0645 -0.2063
    7MOL   H683 6335   2.502   5.820   3.859  0.5468 -0.4094  2.2635
    7MOL   H684 6336   2.367   5.734   3.942 -0.4167 -0.5902 -0.6425
    7MOL   H685 6337   2.588   5.575   3.809  1.1568  0.3726  1.2245
    7MOL   H686 6338   2.456   5.521   3.904 -0.5339  0.5443 -1.1285
    7MOL   H687 6339   2.705   5.664   3.975 -1.3240  0.5133 -0.7551
    7MOL   H688 6340   2.585   5.696   4.088  1.4732 -0.1456  1.2433
    7MOL   H689 6341   2.702   5.432   3.996 -0.6884 -0.7704 -0.1822
    7MOL   H690 6342   2.574   5.439   4.126  0.1547 -0.9810  0.1911
    7MOL   H691 6343   2.853   5.546   4.160  0.2450  1.8934  0.2860
    7MOL   H692 6344   2.725   5.585   4.268 -2.9943 -1.4774  0.6210
    7MOL   H693 6345   2.828   5.403   4.385  1.1104  0.5291 -1.1499
    7MOL   H694 6346   2.684   5.329   4.300 -0.4821 -0.4291 -2.5110
    7MOL   H695 6347   2.836   5.263   4.122  0.2692  0.1025 -0.0331
    7MOL   H696 6348   2.975   5.312   4.227  0.6766 -1.4175  0.1831
    7MOL   H697 6349   2.895   5.138   4.397 -1.2742  2.7086  0.3053
    7MOL   H698 6350   2.764   5.102   4.287  0.2113 -1.2549  1.7252
    7MOL   H699 6351   3.054   5.065   4.217 -0.1205 -0.5409  1.6590
    7MOL   H700 6352   2.924   5.033   4.102 -0.4450  0.4822 -0.2473
    7MOL   H701 6353   2.966   4.816   4.198 -0.0111  0.5723  0.9012
    7MOL   H702 6354   2.826   4.876   4.258 -0.1421 -2.7078 -0.8764
    7MOL   H703 6355   2.880   4.666   4.708  1.1877 -1.0388  0.6874
    7MOL   H704 6356   3.011   4.685   4.926  0.7420 -1.3775  0.2947
    7MOL   H705 6357   3.216   5.026   4.773  1.4493 -1.9913  0.0066
    7MOL   H706 6358   3.100   5.010   4.563  0.1706  0.1580 -0.0219
    7MOL   O707 6359   3.324   4.974   5.152 -0.6798  0.3025  0.0654
    7MOL   C708 6360   3.459   4.961   5.124  0.7706 -0.0532  0.8195
    7MOL   C709 6361   3.522   5.094   5.088 -0.9657  0.8803  0.1036
    7MOL   C710 6362   3.540   5.191   5.204  0.6908 -0.1444 -0.6015
    7MOL   C711 6363   3.612   5.324   5.171  0.6655  0.0342  0.5770
    7MOL   C712 6364   3.663   5.396   5.298 -0.5232 -0.0689  0.3007
    7MOL   C713 6365   3.780   5.494   5.273  0.0994 -0.2047  0.0858
    7MOL   C714 6366   3.826   5.564   5.413 -0.1438 -0.0493 -0.4270
    7MOL   C715 6367   3.945   5.664   5.405 -0.4620  0.0523 -0.5727
    7MOL   C716 6368   3.976   5.701   5.552  0.4888 -0.0140 -0.2222
    7MOL   C717 6369   4.082   5.818   5.554  0.1007 -0.0974 -0.4126
    7MOL   O718 6370   4.196   5.792   5.484 -0.2376 -1.1252  0.0603
    7MOL   C719 6371   4.255   5.889   5.412 -0.1161  0.5333  0.0407
    7MOL   O720 6372   4.220   6.007   5.402 -0.0451 -0.0640 -0.2810
    7MOL   C721 6373   4.376   5.839   5.343  0.1075  0.4669  0.6353
    7MOL   C722 6374   4.439   5.920   5.250  0.5418 -0.0402  0.3195
    7MOL   C723 6375   4.565   5.877   5.188  0.1017 -0.4735  0.5651
    7MOL   C724 6376   4.619   5.749   5.222 -0.4067 -0.1862  0.2079
    7MOL   C725 6377   4.753   5.710   5.162  0.2132 -0.5862  0.4116
    7MOL   O726 6378   4.825   5.807   5.129 -0.1149  0.8066 -0.7562
    7MOL   O727 6379   4.779   5.584   5.157 -0.0843  0.0370  0.2124
    7MOL   C728 6380   4.548   5.665   5.309 -0.0127  0.1302 -0.2959
    7MOL   C729 6381   4.430   5.709   5.367 -0.0356  0.0585  0.1463
    7MOL   H730 6382   3.498   4.921   5.218 -0.0117 -0.0100  1.1694
    7MOL   H731 6383   3.483   4.891   5.044  1.4415  2.1232 -0.9111
    7MOL   H732 6384   3.455   5.144   5.017 -2.1453  2.8402  2.4859
    7MOL   H733 6385   3.617   5.073   5.041 -1.9009 -1.6588 -0.7005
    7MOL   H734 6386   3.441   5.213   5.244  1.2311 -0.4782  0.9659
    7MOL   H735 6387   3.596   5.151   5.289  2.6653  0.3769 -1.6270
    7MOL   H736 6388   3.545   5.386   5.112  1.1380 -1.7351 -1.9155
    7MOL   H737 6389   3.694   5.296   5.106 -1.1041 -1.3906 -1.1054
    7MOL   H738 6390   3.586   5.468   5.325  0.5365  0.7216  1.2452
    7MOL   H739 6391   3.689   5.338   5.387  0.0860  0.2331  0.3194
    7MOL   H740 6392   3.861   5.446   5.218 -0.1267 -0.8849  0.3480
    7MOL   H741 6393   3.744   5.569   5.203  0.5902  1.5984  1.7007
    7MOL   H742 6394   3.736   5.601   5.462  0.5642  0.0744  0.7967
    7MOL   H743 6395   3.841   5.492   5.494 -2.1442  1.8789  1.7146
    7MOL   H744 6396   4.037   5.628   5.360  1.1646  0.5976  2.1606
    7MOL   H745 6397   3.921   5.751   5.345  0.0316  2.1519  2.1342
    7MOL   H746 6398   4.018   5.610   5.596  1.8544  1.3358  1.3797
    7MOL   H747 6399   3.887   5.728   5.608  0.3759  1.1114 -0.9415
    7MOL   H748 6400   4.108   5.837   5.659  2.3792 -0.9905 -0.7823
    7MOL   H749 6401   4.037   5.909   5.516 -3.5450 -1.3842  0.6508
    7MOL   H750 6402   4.407   6.021   5.230 -0.6167 -0.6473 -0.9153
    7MOL   H751 6403   4.616   5.954   5.134  0.2648 -2.3480 -2.0392
    7MOL   H752 6404   4.595   5.573   5.339  0.4552  0.3758 -0.2621
    7MOL   H753 6405   4.383   5.647   5.442  0.0418 -1.4457 -1.0260
    7MOL   O754 6406   4.906   5.556   5.071  0.2819  0.0919  0.1543
    7MOL   C755 6407   5.018   5.524   5.156 -0.5198  0.6373  0.2221
    7MOL   C756 6408   5.121   5.465   5.069 -0.4575  0.3093  1.0200
    7MOL   C757 6409   5.250   5.421   5.143  0.0366  0.4944  0.0589
    7MOL   C758 6410   5.218   5.317   5.254  0.6214 -0.1731  0.6890
    7MOL   C759 6411   5.346   5.253   5.319  0.0111 -0.3051  0.2955
    7MOL   C760 6412   5.301   5.139   5.415  0.0617  0.2519  0.7273
    7MOL   C761 6413   5.421   5.075   5.481 -0.4869 -0.0367  0.2790
    7MOL   C762 6414   5.518   5.000   5.389 -0.4425 -0.6461  0.0715
    7MOL   C763 6415   5.625   4.943   5.471  0.2396 -0.0248  0.0216
    7MOL   C764 6416   5.720   4.847   5.398  0.1269  0.2630 -0.4161
    7MOL   O765 6417   5.794   4.899   5.292  0.0496 -0.1703  0.3980
    7MOL   C766 6418   5.859   4.815   5.213  0.1796  0.5508  0.2577
    7MOL   O767 6419   5.876   4.696   5.239  0.3625  0.3164 -0.1023
    7MOL   C768 6420   5.917   4.886   5.100 -0.4201 -0.5897 -0.0122
    7MOL   C769 6421   5.849   5.001   5.044 -0.4926 -0.5636 -0.9436
    7MOL   C770 6422   5.894   5.060   4.926  0.1265  1.1546  0.2888
    7MOL   C771 6423   6.011   5.015   4.862  0.0865 -0.0796  0.2461
    7MOL   C772 6424   6.081   5.089   4.751  0.5298  0.2032 -0.6812
    7MOL   O773 6425   6.181   5.046   4.702  0.1042 -0.0338  0.1023
    7MOL   O774 6426   6.007   5.191   4.698 -0.9878  0.4192 -0.6622
    7MOL   C775 6427   6.072   4.897   4.913 -0.6002  0.0475  0.2437
    7MOL   C776 6428   6.027   4.833   5.027 -0.5892 -0.0694  0.3448
    7MOL   H777 6429   5.063   5.608   5.208  0.8272  0.9151 -1.3590
    7MOL   H778 6430   4.985   5.450   5.229  0.7814  0.9528  1.1329
    7MOL   H779 6431   5.161   5.529   4.990  0.5327 -0.0211  1.2407
    7MOL   H780 6432   5.079   5.376   5.023  0.1197 -0.1259  1.3313
    7MOL   H781 6433   5.318   5.370   5.074 -0.0194  0.9791 -0.3597
    7MOL   H782 6434   5.295   5.512   5.183 -1.7979  1.1400  0.7068
    7MOL   H783 6435   5.162   5.235   5.208 -1.3236 -0.2958  3.1182
    7MOL   H784 6436   5.154   5.366   5.328 -1.2575  0.3712 -1.2641
    7MOL   H785 6437   5.414   5.233   5.237 -0.7422 -1.8188  0.0177
    7MOL   H786 6438   5.403   5.334   5.365 -2.0001 -0.8064  3.9080
    7MOL   H787 6439   5.245   5.183   5.498 -1.1597 -0.2410  0.1812
    7MOL   H788 6440   5.229   5.071   5.370  0.2629  0.3848  0.1964
    7MOL   H789 6441   5.481   5.147   5.536 -0.5475  1.0792 -1.0816
    7MOL   H790 6442   5.381   5.009   5.558 -0.3428  0.9240  1.1916
    7MOL   H791 6443   5.466   4.927   5.328  0.3851 -1.5326  0.4100
    7MOL   H792 6444   5.560   5.067   5.313  0.8398 -0.5186  0.8656
    7MOL   H793 6445   5.585   4.886   5.555 -1.0151  4.3299  2.5320
    7MOL   H794 6446   5.673   5.028   5.519 -1.2789  0.9448 -0.1571
    7MOL   H795 6447   5.651   4.774   5.355  0.6205 -0.0097 -0.7432
    7MOL   H796 6448   5.798   4.818   5.469 -1.0982  1.9380  1.6794
    7MOL   H797 6449   5.760   5.037   5.093  1.0779  1.4419  0.5055
    7MOL   H798 6450   5.844   5.149   4.890  0.5204  0.6439 -1.5792
    7MOL   H799 6451   6.164   4.858   4.873 -2.0870 -1.0621 -2.1708
    7MOL   H800 6452   6.075   4.741   5.057 -0.2392  0.4665  1.4551
    7MOL   O801 6453   6.063   5.232   4.567  0.6990 -0.5347 -0.1885
    7MOL   C802 6454   5.972   5.181   4.469  0.4762 -0.2975  0.5639
    7MOL   C803 6455   6.050   5.164   4.342  0.1823 -0.3574 -0.2684
    7MOL   C804 6456   6.123   5.294   4.298  0.4089 -0.7674 -0.0288
    7MOL   C805 6457   6.273   5.298   4.321  0.3414 -0.2735  0.1155
    7MOL   C806 6458   6.350   5.418   4.273  0.6832  0.8206 -0.0536
    7MOL   C807 6459   6.500   5.387   4.272  0.0769 -0.1111  0.5098
    7MOL   C808 6460   6.576   5.515   4.234 -0.2346 -0.0611 -0.5637
    7MOL   C809 6461   6.589   5.610   4.355 -0.0126  0.2210 -0.3564
    7MOL   C810 6462   6.671   5.740   4.320 -0.1212 -0.7662 -0.7233
    7MOL   C811 6463   6.658   5.841   4.430 -0.6767  0.4917 -0.6515
    7MOL   O812 6464   6.773   5.853   4.522  0.2747 -0.3330 -0.3760
    7MOL   C813 6465   6.756   5.905   4.646 -0.1219  0.0545 -0.2194
    7MOL   O814 6466   6.649   5.965   4.677 -0.3575  0.4702 -0.2813
    7MOL   C815 6467   6.880   5.910   4.730 -0.0649 -0.0706 -1.0672
    7MOL   C816 6468   6.880   5.999   4.836  0.1007  0.7256 -0.0058
    7MOL   C817 6469   6.998   6.024   4.911 -0.0227 -0.1128 -0.0945
    7MOL   C818 6470   7.120   5.950   4.884  0.0177 -0.7271 -0.7486
    7MOL   C819 6471   7.226   5.947   4.983  0.4018 -0.0888  0.0491
    7MOL   O820 6472   7.210   5.984   5.098  0.6382 -0.0823  0.4405
    7MOL   O821 6473   7.341   5.905   4.929  0.2639 -0.0897 -0.2325
    7MOL   C822 6474   7.113   5.858   4.776  0.0816  0.0950 -0.3202
    7MOL   C823 6475   6.995   5.834   4.698 -0.3588  0.0031  0.2258
    7MOL   H824 6476   5.940   5.079   4.492 -0.7666 -0.1955 -0.6628
    7MOL   H825 6477   5.881   5.233   4.439  1.9194  1.5735 -0.6698
    7MOL   H826 6478   5.971   5.130   4.275  0.7591  0.4027 -1.3466
    7MOL   H827 6479   6.121   5.082   4.353 -1.9424 -2.3427 -0.9201
    7MOL   H828 6480   6.096   5.319   4.196 -0.7741 -0.4411  0.3485
    7MOL   H829 6481   6.089   5.371   4.368 -0.6805 -1.2169 -0.0570
    7MOL   H830 6482   6.303   5.206   4.270  0.1960 -1.4667  2.1065
    7MOL   H831 6483   6.287   5.279   4.427 -1.1142  1.4663  0.6442
    7MOL   H832 6484   6.318   5.436   4.171  0.4466 -1.7187 -0.4575
    7MOL   H833 6485   6.330   5.507   4.333  1.3206  0.1392  1.1857
    7MOL   H834 6486   6.527   5.355   4.373  0.2793 -2.2975 -0.2072
    7MOL   H835 6487   6.533   5.302   4.213  1.3345  0.2418  0.7038
    7MOL   H836 6488   6.680   5.490   4.213 -0.5635 -0.6896 -1.4586
    7MOL   H837 6489   6.535   5.560   4.144 -0.5577  0.4288 -0.1751
    7MOL   H838 6490   6.490   5.647   4.381 -0.7796 -0.7527 -1.8125
    7MOL   H839 6491   6.644   5.567   4.439  0.6285  2.7158  0.5352
    7MOL   H840 6492   6.657   5.783   4.221 -2.2858  0.6167  0.1657
    7MOL   H841 6493   6.772   5.699   4.331  0.4691  0.6468 -0.6714
    7MOL   H842 6494   6.573   5.809   4.490 -1.0444  1.2619 -0.7509
    7MOL   H843 6495   6.615   5.938   4.403 -0.9823  0.3758 -0.5825
    7MOL   H844 6496   6.791   6.045   4.878 -2.1142 -0.3540 -3.3065
    7MOL   H845 6497   7.001   6.095   4.993 -0.1852  0.8751 -0.9314
    7MOL   H846 6498   7.203   5.804   4.751  0.5715  1.4415 -1.5517
    7MOL   H847 6499   6.994   5.770   4.611 -2.4456  0.5411 -0.1763
    7MOL   O848 6500   7.454   5.956   5.012  0.6899 -0.3553 -0.2743
    7MOL   C849 6501   7.510   5.848   5.080  0.3001 -0.0126 -0.1581
    7MOL   C850 6502   7.610   5.882   5.191 -0.0823  0.7799  0.2621
    7MOL   C851 6503   7.694   5.763   5.244  0.8615 -0.0586 -0.0529
    7MOL   C852 6504   7.798   5.813   5.349  0.4719 -0.2030 -0.0105
    7MOL   C853 6505   7.904   5.714   5.382 -0.1095 -0.0901 -0.3975
    7MOL   C854 6506   7.851   5.581   5.441  0.2784  0.3637 -0.1670
    7MOL   C855 6507   7.831   5.475   5.329  0.5038 -0.0671 -0.4411
    7MOL   C856 6508   7.967   5.419   5.286 -0.5315  0.8296  0.1459
    7MOL   C857 6509   7.968   5.379   5.138  0.5429 -0.5095 -0.3750
    7MOL   C858 6510   7.870   5.270   5.087  0.0063  0.5397  0.4046
    7MOL   O859 6511   7.729   5.306   5.104  0.7211  0.0801 -0.9018
    7MOL   C860 6512   7.668   5.369   5.009  0.2523 -0.3397  0.1099
    7MOL   O861 6513   7.706   5.380   4.888  0.3590 -0.2732 -0.3357
    7MOL   C862 6514   7.539   5.426   5.048 -0.9738 -0.0676 -0.2949
    7MOL   C863 6515   7.499   5.423   5.186 -0.7516  0.0049  0.2388
    7MOL   C864 6516   7.372   5.477   5.223 -0.7203  0.4561  0.7356
    7MOL   C865 6517   7.278   5.532   5.124 -0.2240 -0.3712 -0.5228
    7MOL   C866 6518   7.139   5.581   5.168  0.2343  1.0664 -0.5762
    7MOL   O867 6519   7.091   5.554   5.281 -0.2563 -0.4914 -0.1374
    7MOL   O868 6520   7.086   5.666   5.080 -0.4128  0.2376 -0.5401
    7MOL   C869 6521   7.319   5.531   4.994 -0.3512  0.0837  0.4439
    7MOL   C870 6522   7.445   5.477   4.956 -0.0395  0.5218 -0.0819
    7MOL   H871 6523   7.430   5.802   5.138 -1.4123  0.6746 -1.8947
    7MOL   H872 6524   7.544   5.772   5.009  0.9975 -0.9837  1.1883
    7MOL   H873 6525   7.551   5.913   5.278  0.8238 -2.1045  1.9680
    7MOL   H874 6526   7.671   5.969   5.167  1.6782 -0.2555  0.9128
    7MOL   H875 6527   7.637   5.675   5.275  1.9394 -1.3739 -1.6884
    7MOL   H876 6528   7.763   5.716   5.174 -0.6887 -0.4300 -1.3604
    7MOL   H877 6529   7.740   5.847   5.435 -0.6478  2.5658 -1.8046
    7MOL   H878 6530   7.854   5.899   5.314  2.2081 -0.3511  2.3474
    7MOL   H879 6531   7.957   5.699   5.288  0.5072  1.3394 -0.3005
    7MOL   H880 6532   7.975   5.763   5.449 -0.9546  0.3043  0.2202
    7MOL   H881 6533   7.925   5.542   5.512  0.0646 -0.0804 -0.1889
    7MOL   H882 6534   7.761   5.604   5.497  1.0417  1.4732  0.6255
    7MOL   H883 6535   7.768   5.390   5.355  1.9387 -0.6396  1.2741
    7MOL   H884 6536   7.787   5.525   5.243 -1.0643  1.1205  1.0244
    7MOL   H885 6537   0.076   5.485   5.286  0.9232 -1.0479  1.2678
    7MOL   H886 6538   0.013   5.331   5.346 -1.2626  1.5831  1.5826
    7MOL   H887 6539   0.093   5.350   5.114  0.9096  0.0867  0.4583
    7MOL   H888 6540   7.960   5.468   5.075  3.2999 -0.0173 -0.0823
    7MOL   H889 6541   7.888   5.184   5.152 -1.9210 -0.7489 -0.7228
    7MOL   H890 6542   7.887   5.257   4.980  1.0706  0.6840  0.5539
    7MOL   H891 6543   7.562   5.380   5.262 -1.0511 -3.5567 -1.4378
    7MOL   H892 6544   7.347   5.466   5.328 -0.4198 -2.1346  0.5676
    7MOL   H893 6545   7.248   5.572   4.924  0.8703 -0.4179 -1.0994
    7MOL   H894 6546   7.479   5.486   4.854 -1.6166 -0.4179 -0.7079
    7MOL   O895 6547   6.951   5.727   5.125  0.5324 -0.3581 -0.2324
    7MOL   C896 6548   6.849   5.657   5.062  0.3713 -0.6774 -0.2370
    7MOL   C897 6549   6.716   5.723   5.090  0.0889  0.0208 -0.4067
    7MOL   C898 6550   6.592   5.654   5.024 -0.3301 -0.5836  0.5525
    7MOL   C899 6551   6.450   5.715   5.049  0.3905  0.3793 -0.1343
    7MOL   C900 6552   6.448   5.862   5.010 -0.0903 -0.1476 -0.1340
    7MOL   C901 6553   6.309   5.918   5.016  0.2611  0.1870 -0.6098
    7MOL   C902 6554   6.298   6.058   4.958  0.2478 -0.3419 -0.2556
    7MOL   C903 6555   6.154   6.092   4.917 -0.0523 -0.3300  0.5929
    7MOL   C904 6556   6.111   6.224   4.849 -0.3679  0.0331 -0.0361
    7MOL   C905 6557   6.004   6.203   4.739 -0.3113 -0.5275  0.6841
    7MOL   O906 6558   5.893   6.147   4.792 -0.2982 -0.3351  0.4096
    7MOL   C907 6559   5.783   6.132   4.721 -0.7821 -0.4686  0.4850
    7MOL   O908 6560   5.758   6.205   4.622  0.4121 -0.2561  0.1292
    7MOL   C909 6561   5.696   6.027   4.779 -0.5671 -0.6677 -0.2005
    7MOL   C910 6562   5.569   6.009   4.719  0.0787  0.1794  0.1692
    7MOL   C911 6563   5.471   5.916   4.766  0.7223  0.6414  0.1505
    7MOL   C912 6564   5.512   5.831   4.871 -0.0896  0.6092 -0.1093
    7MOL   C913 6565   5.416   5.734   4.931  0.2950 -0.5710  0.1014
    7MOL   O914 6566   5.340   5.677   4.861  0.0732  0.0549 -0.1230
    7MOL   O915 6567   5.407   5.736   5.065 -0.7369  0.3181 -0.8275
    7MOL   C916 6568   5.643   5.850   4.932  0.1102  0.8342  0.0161
    7MOL   C917 6569   5.736   5.944   4.890  0.4896  0.2189  0.2438
    7MOL   H918 6570   6.871   5.660   4.955 -0.7862 -1.3799 -0.4984
    7MOL   H919 6571   6.835   5.557   5.103 -2.7078 -0.9727 -1.9352
    7MOL   H920 6572   6.738   5.825   5.060 -0.3736  0.2904  0.1511
    7MOL   H921 6573   6.707   5.715   5.199 -0.6111 -0.3438 -0.4856
    7MOL   H922 6574   6.610   5.648   4.917 -1.9008  0.9491  0.1774
    7MOL   H923 6575   6.605   5.555   5.068 -0.4916 -1.7455 -1.9412
    7MOL   H924 6576   6.424   5.702   5.154  0.3881  3.2471  0.2480
    7MOL   H925 6577   6.384   5.652   4.990 -1.9794  2.1597  0.5452
    7MOL   H926 6578   6.512   5.925   5.072 -0.5302  2.0512 -1.8527
    7MOL   H927 6579   6.504   5.883   4.919 -0.5843 -0.4088 -0.5049
    7MOL   H928 6580   6.246   5.855   4.953  2.0727  1.9501 -4.3298
    7MOL   H929 6581   6.272   5.909   5.118 -3.9933 -3.1143 -2.2985
    7MOL   H930 6582   6.336   6.124   5.036 -4.0430  1.0353  0.7873
    7MOL   H931 6583   6.364   6.073   4.873  0.5148  0.9297  0.1657
    7MOL   H932 6584   6.138   6.011   4.846  0.6821 -2.0442  2.3291
    7MOL   H933 6585   6.090   6.089   5.005  2.6686  0.3087  2.6703
    7MOL   H934 6586   6.195   6.282   4.812 -1.2048  1.8956  0.9014
    7MOL   H935 6587   6.065   6.281   4.931 -2.3565 -0.3866 -0.8265
    7MOL   H936 6588   6.053   6.146   4.660 -0.0939  0.7479 -0.1100
    7MOL   H937 6589   5.979   6.296   4.688 -0.6761 -1.9716 -1.8493
    7MOL   H938 6590   5.537   6.076   4.640 -0.1952 -0.9893 -0.7295
    7MOL   H939 6591   5.374   5.894   4.723  1.4846  0.3231 -1.4526
    7MOL   H940 6592   5.669   5.795   5.021 -0.6500 -0.4093 -0.5044
    7MOL   H941 6593   5.831   5.955   4.941  1.0727 -0.6600 -0.6483
    7MOL   H942 6594   5.479   5.774   5.112 -0.6781  0.2824 -0.8877
    8MOL     O1 6595   1.468   1.314   3.299  0.4060 -0.2232  0.1669
    8MOL     C2 6596   1.434   1.437   3.240  0.3080  0.0424 -0.6468
    8MOL     C3 6597   1.293   1.485   3.283 -0.0347 -0.2109 -0.3495
    8MOL     C4 6598   1.287   1.501   3.437 -0.2517  0.9728  0.6110
    8MOL     C5 6599   1.149   1.539   3.491  0.2666 -0.6748  0.9342
    8MOL     C6 6600   1.137   1.537   3.643  0.5590 -0.0109 -0.0481
    8MOL     C7 6601   0.993   1.566   3.698  0.1028  0.1212  0.1228
    8MOL     C8 6602   0.985   1.614   3.844 -0.2903 -0.2256 -0.7292
    8MOL     C9 6603   0.840   1.613   3.895 -0.2061  0.4835 -0.0531
    8MOL    C10 6604   0.831   1.635   4.045  0.0845 -0.8173  0.5198
    8MOL    C11 6605   0.690   1.672   4.088 -0.1539  0.1684  0.5289
    8MOL    O12 6606   0.694   1.688   4.233 -0.3831 -0.2210 -0.4837
    8MOL    C13 6607   0.586   1.699   4.304 -0.6824  0.8509  0.0492
    8MOL    O14 6608   0.475   1.709   4.254  0.2839 -0.2592 -0.8995
    8MOL    C15 6609   0.605   1.695   4.453  0.1060  0.5481  0.2393
    8MOL    C16 6610   0.730   1.661   4.515  0.2027  0.4084 -0.0211
    8MOL    C17 6611   0.740   1.660   4.655  0.2049  0.4806  0.1130
    8MOL    C18 6612   0.625   1.681   4.733 -0.8983 -0.0661 -1.1703
    8MOL    C19 6613   0.651   1.666   4.883 -0.3897  0.4896 -0.5330
    8MOL    O20 6614   0.744   1.613   4.937  0.5386  0.1379  0.5080
    8MOL    O21 6615   0.559   1.738   4.955  0.5678  0.8884  0.3434
    8MOL    C22 6616   0.501   1.719   4.678 -0.3324  0.4948 -0.2105
    8MOL    C23 6617   0.496   1.719   4.535 -0.4727  0.4754 -0.1090
    8MOL    H24 6618   1.513   1.510   3.254 -0.9259  1.1057  0.9264
    8MOL    H25 6619   1.444   1.420   3.133  0.1196 -1.6460 -0.3990
    8MOL    H26 6620   1.216   1.412   3.254  0.4491 -1.2502  0.9661
    8MOL    H27 6621   1.262   1.576   3.232 -0.4524 -0.4429 -0.5196
    8MOL    H28 6622   1.316   1.406   3.483  0.2906  1.0486  0.4275
    8MOL    H29 6623   1.366   1.569   3.470  1.7855  0.1804 -2.4656
    8MOL    H30 6624   1.084   1.465   3.445  0.0922  0.8779 -1.4056
    8MOL    H31 6625   1.113   1.635   3.454  2.2394 -0.3281 -0.2133
    8MOL    H32 6626   1.153   1.435   3.678  1.1290 -0.0098 -0.3076
    8MOL    H33 6627   1.213   1.601   3.688  1.5069 -0.2938 -1.2361
    8MOL    H34 6628   0.948   1.637   3.629  1.4754  0.5546 -0.3423
    8MOL    H35 6629   0.922   1.485   3.680  1.1499 -0.9810  0.8388
    8MOL    H36 6630   1.046   1.545   3.902 -0.8400 -1.2512 -1.3626
    8MOL    H37 6631   1.035   1.710   3.860 -1.2976  0.2125 -0.1950
    8MOL    H38 6632   0.769   1.681   3.848 -2.1105 -0.5799  1.1904
    8MOL    H39 6633   0.783   1.522   3.874 -0.9458  1.3153 -1.6509
    8MOL    H40 6634   0.902   1.716   4.065  0.2602 -0.9905  0.6064
    8MOL    H41 6635   0.865   1.555   4.111 -0.5109 -1.9429 -0.5274
    8MOL    H42 6636   0.625   1.587   4.069 -2.3259  1.6773  1.0066
    8MOL    H43 6637   0.643   1.753   4.032 -0.2088  0.8671  1.5712
    8MOL    H44 6638   0.808   1.635   4.445 -0.6232  0.1889 -0.8821
    8MOL    H45 6639   0.830   1.619   4.699 -0.3174 -0.2053  0.5447
    8MOL    H46 6640   0.408   1.727   4.733 -0.8763  1.5885 -1.2632
    8MOL    H47 6641   0.403   1.745   4.488  0.1556 -0.2826 -1.7915
    8MOL    H48 6642   1.560   1.292   3.294  0.2113 -0.9185 -0.3587
    8MOL    O49 6643   0.574   1.745   5.104  0.2000 -0.3573  0.1472
    8MOL    C50 6644   0.603   1.884   5.123  0.0297 -0.2573  0.2100
    8MOL    C51 6645   0.475   1.974   5.122 -0.4972 -0.0382 -0.7159
    8MOL    C52 6646   0.393   1.977   4.995 -0.4866 -0.4007 -0.0443
    8MOL    C53 6647   0.464   2.025   4.865  0.4376 -0.8723 -0.1736
    8MOL    C54 6648   0.371   2.035   4.748  0.2322 -0.3154  0.3109
    8MOL    C55 6649   0.438   2.108   4.630  0.0352  0.8043  0.5630
    8MOL    C56 6650   0.338   2.105   4.515 -0.0321 -0.0975  0.5361
    8MOL    C57 6651   0.396   2.171   4.389  0.2039  0.1448 -0.0378
    8MOL    C58 6652   0.301   2.174   4.266  0.1619 -0.3520 -1.3000
    8MOL    C59 6653   0.346   2.251   4.144  0.2158  1.1267 -0.6161
    8MOL    O60 6654   0.467   2.208   4.094 -0.3795 -0.9608  0.0411
    8MOL    C61 6655   0.555   2.294   4.039 -0.3242  0.5322  0.0106
    8MOL    O62 6656   0.548   2.411   4.055  0.3179 -0.3402 -0.0479
    8MOL    C63 6657   0.657   2.221   3.957 -0.1707 -0.3216  0.6738
    8MOL    C64 6658   0.727   2.298   3.862 -0.0031  0.3321 -0.2888
    8MOL    C65 6659   0.820   2.229   3.778  0.2772 -0.4085 -0.4193
    8MOL    C66 6660   0.836   2.085   3.785  1.1447 -0.4455 -0.4251
    8MOL    C67 6661   0.929   2.006   3.697  0.0379 -0.5902 -0.4981
    8MOL    O68 6662   0.925   1.887   3.689 -0.6710  0.6726 -0.3194
    8MOL    O69 6663   1.006   2.081   3.619  0.4834  0.1890 -0.4795
    8MOL    C70 6664   0.765   2.016   3.885 -0.5080 -0.2792 -0.4081
    8MOL    C71 6665   0.675   2.077   3.972  0.0890  0.4480 -0.2980
    8MOL    H72 6666   0.647   1.899   5.221  1.9109 -1.0015 -0.5105
    8MOL    H73 6667   0.688   1.928   5.070 -0.5746 -0.2457 -0.7640
    8MOL    H74 6668   0.503   2.077   5.145  2.6891 -0.6709 -1.4918
    8MOL    H75 6669   0.412   1.935   5.202 -0.8520  1.1357 -0.4133
    8MOL    H76 6670   0.342   1.889   4.955 -1.2871 -0.4105  0.9519
    8MOL    H77 6671   0.315   2.051   5.012  0.1633  0.2965 -0.1164
    8MOL    H78 6672   0.556   1.969   4.845  2.1295  1.3670  1.0621
    8MOL    H79 6673   0.500   2.125   4.890  0.7936 -0.6721 -1.4162
    8MOL    H80 6674   0.345   1.930   4.731  0.5398 -0.3856  0.2711
    8MOL    H81 6675   0.284   2.095   4.774  1.7315  1.8401  0.4664
    8MOL    H82 6676   0.466   2.212   4.643  3.8885 -0.1410  0.4813
    8MOL    H83 6677   0.529   2.055   4.600 -0.2550  1.3095 -1.2323
    8MOL    H84 6678   0.290   2.011   4.490 -2.1381  0.8731  0.7540
    8MOL    H85 6679   0.257   2.171   4.547  1.3162  1.2291  1.2512
    8MOL    H86 6680   0.424   2.272   4.417  0.3181  0.1559 -0.1911
    8MOL    H87 6681   0.489   2.123   4.358  0.1891  0.9492 -1.3843
    8MOL    H88 6682   0.202   2.210   4.291  0.4964  0.0274 -0.4892
    8MOL    H89 6683   0.288   2.074   4.226 -2.8652 -1.5637  2.4486
    8MOL    H90 6684   0.360   2.349   4.191  3.4371  0.0513  0.8173
    8MOL    H91 6685   0.270   2.250   4.066 -0.0895  2.5744 -0.3631
    8MOL    H92 6686   0.723   2.406   3.850 -0.4340  0.1140 -2.2686
    8MOL    H93 6687   0.879   2.286   3.707 -0.8752  2.3290  0.7465
    8MOL    H94 6688   0.787   1.910   3.877 -0.4023 -0.3810  1.0319
    8MOL    H95 6689   0.630   2.017   4.050 -0.2293  1.7404  0.5157
    8MOL    O96 6690   1.098   2.000   3.534  0.2504  0.3744 -0.5747
    8MOL    C97 6691   1.211   1.965   3.620  0.4410  0.2402 -0.1528
    8MOL    C98 6692   1.313   1.891   3.528  0.5904 -0.0211 -0.2272
    8MOL    C99 6693   1.336   1.954   3.387 -0.0565  0.2334  0.4995
    8MOL   C100 6694   1.472   1.917   3.319 -0.1313 -0.2779 -0.4674
    8MOL   C101 6695   1.494   1.969   3.177  0.5133 -0.4642  0.3287
    8MOL   C102 6696   1.611   1.894   3.109 -0.0022  0.1170 -0.0628
    8MOL   C103 6697   1.636   1.965   2.975  0.0310  0.5815 -0.6260
    8MOL   C104 6698   1.766   1.917   2.909  0.1524  0.5066 -0.4422
    8MOL   C105 6699   1.754   1.853   2.767  0.3944  0.2043  0.1263
    8MOL   C106 6700   1.710   1.707   2.772 -0.2449 -0.4432  0.5786
    8MOL   O107 6701   1.578   1.691   2.813  0.6080 -0.6406 -0.0403
    8MOL   C108 6702   1.507   1.572   2.791 -0.8820  0.0134 -0.0102
    8MOL   O109 6703   1.549   1.471   2.742  0.1066 -0.2120  0.7874
    8MOL   C110 6704   1.371   1.581   2.851  0.4589 -0.5673 -0.0223
    8MOL   C111 6705   1.290   1.467   2.848 -0.5959  0.3059  0.3307
    8MOL   C112 6706   1.170   1.462   2.919 -0.3951  0.0734  0.6042
    8MOL   C113 6707   1.127   1.575   2.993 -0.1296  0.0797  0.1506
    8MOL   C114 6708   0.999   1.570   3.065 -0.1736  0.5740  0.4607
    8MOL   O115 6709   0.934   1.468   3.086  0.3741  0.2134 -0.6644
    8MOL   O116 6710   0.963   1.693   3.115  0.4860  0.0555  0.2687
    8MOL   C117 6711   1.203   1.698   2.991 -0.4901  0.2230  0.2668
    8MOL   C118 6712   1.332   1.696   2.934  0.0840  0.4362  0.1811
    8MOL   H119 6713   1.256   2.055   3.663 -0.7407 -0.4026  2.5302
    8MOL   H120 6714   1.181   1.904   3.705 -1.6978  2.2035  0.5527
    8MOL   H121 6715   1.274   1.789   3.530 -1.8640  0.8221 -2.7141
    8MOL   H122 6716   1.414   1.887   3.570  0.1089  2.0106  1.1571
    8MOL   H123 6717   1.252   1.930   3.321 -0.4961  0.9064  0.8006
    8MOL   H124 6718   1.344   2.062   3.400  1.0790  0.3866 -1.2894
    8MOL   H125 6719   1.478   1.808   3.316  1.3878 -0.2120 -0.1197
    8MOL   H126 6720   1.556   1.948   3.381 -1.3195  2.1196  0.0421
    8MOL   H127 6721   1.400   1.957   3.124 -2.3159  0.9398  4.6893
    8MOL   H128 6722   1.527   2.072   3.193 -2.4003  0.6553 -0.6720
    8MOL   H129 6723   1.700   1.904   3.171 -0.0718  1.5561 -0.1855
    8MOL   H130 6724   1.592   1.788   3.090 -0.8373  0.0058  1.2909
    8MOL   H131 6725   1.556   1.931   2.909 -1.3258  1.8889  0.3088
    8MOL   H132 6726   1.619   2.072   2.980  0.1498  0.6271 -1.2360
    8MOL   H133 6727   1.818   2.009   2.885 -1.3114  1.6124  0.5827
    8MOL   H134 6728   1.823   1.854   2.978 -1.7331  0.2912  0.9607
    8MOL   H135 6729   1.855   1.844   2.725 -0.0829 -1.4505 -0.7152
    8MOL   H136 6730   1.693   1.913   2.700 -1.0892 -1.4573 -0.0391
    8MOL   H137 6731   1.785   1.654   2.831  0.2054 -1.2162 -0.6467
    8MOL   H138 6732   1.719   1.663   2.672  2.5334  0.6863  0.2583
    8MOL   H139 6733   1.311   1.377   2.792 -2.7203 -0.1266  0.1916
    8MOL   H140 6734   1.112   1.371   2.919 -0.2605 -0.0236  2.0197
    8MOL   H141 6735   1.175   1.778   3.059 -2.5235 -1.7742  1.8853
    8MOL   H142 6736   1.404   1.775   2.946 -0.0512  0.5118  0.4915
    8MOL   O143 6737   0.820   1.701   3.170  0.7197 -0.2781  0.1245
    8MOL   C144 6738   0.826   1.725   3.310 -0.4745  0.0329 -0.1222
    8MOL   C145 6739   0.682   1.734   3.365 -0.1828 -0.2653  0.4100
    8MOL   C146 6740   0.676   1.770   3.510  0.3720 -0.3785  0.2888
    8MOL   C147 6741   0.537   1.783   3.569 -0.1528  0.2369  0.0664
    8MOL   C148 6742   0.535   1.827   3.713  0.6607 -0.4390  0.1004
    8MOL   C149 6743   0.392   1.810   3.762 -0.0924  0.1766  0.0422
    8MOL   C150 6744   0.374   1.867   3.905 -0.0716  0.2002  0.2579
    8MOL   C151 6745   0.226   1.864   3.961  0.2022 -0.4543  0.3233
    8MOL   C152 6746   0.129   1.972   3.903  0.0504  0.2166 -0.1356
    8MOL   C153 6747   7.962   1.925   3.930 -0.2929 -0.5867  0.1935
    8MOL   O154 6748   7.918   1.837   3.830 -0.2933 -0.0570 -0.3884
    8MOL   C155 6749   7.795   1.790   3.832  0.5572  0.3499  0.1720
    8MOL   O156 6750   7.710   1.824   3.911 -0.3157  0.7184  0.0981
    8MOL   C157 6751   7.766   1.704   3.719 -0.5613  0.3217  0.3678
    8MOL   C158 6752   7.630   1.669   3.694 -0.4743  0.4620  0.4319
    8MOL   C159 6753   7.605   1.575   3.597 -0.9693  0.3932 -0.0372
    8MOL   C160 6754   7.703   1.514   3.519 -0.2585  0.1048 -0.0645
    8MOL   C161 6755   7.666   1.411   3.414 -0.1314 -0.3802 -0.2359
    8MOL   O162 6756   7.749   1.341   3.358 -0.3149 -0.1278 -0.7669
    8MOL   O163 6757   7.538   1.410   3.392 -0.5494  0.4429  0.0772
    8MOL   C164 6758   7.834   1.554   3.543  0.9595  0.6100 -0.7711
    8MOL   C165 6759   7.866   1.651   3.636  0.5061 -0.4406 -0.5145
    8MOL   H166 6760   0.876   1.636   3.350 -1.7879 -0.6215  0.0875
    8MOL   H167 6761   0.867   1.821   3.340 -0.0455  0.5461 -2.2430
    8MOL   H168 6762   0.645   1.632   3.355 -1.6810  0.2870  0.1513
    8MOL   H169 6763   0.634   1.814   3.308 -0.7114 -2.1789 -1.8920
    8MOL   H170 6764   0.737   1.698   3.565 -0.0379 -1.9484 -1.2648
    8MOL   H171 6765   0.702   1.874   3.530  0.8389 -0.5840  0.7792
    8MOL   H172 6766   0.490   1.685   3.567  0.5746 -0.0918 -1.1917
    8MOL   H173 6767   0.468   1.845   3.513 -1.3776 -0.3933  0.8661
    8MOL   H174 6768   0.598   1.769   3.781  0.2898  0.4339  1.1814
    8MOL   H175 6769   0.569   1.930   3.722  1.9334 -0.8372  0.0593
    8MOL   H176 6770   0.329   1.861   3.689 -0.0869  1.1311  0.6981
    8MOL   H177 6771   0.360   1.707   3.771  1.0017 -0.2728 -1.0646
    8MOL   H178 6772   0.429   1.805   3.976 -0.8208 -2.0524 -1.0519
    8MOL   H179 6773   0.418   1.966   3.919 -1.7800  1.1225 -0.6854
    8MOL   H180 6774   0.182   1.767   3.939  0.5755 -0.4413 -0.4991
    8MOL   H181 6775   0.218   1.870   4.070  0.7497  2.0660  0.2512
    8MOL   H182 6776   0.143   1.978   3.796 -1.2564  0.3389 -0.3087
    8MOL   H183 6777   0.143   2.067   3.955  0.4290  0.8265 -1.3433
    8MOL   H184 6778   7.894   2.010   3.937 -0.2532 -0.5726  0.4137
    8MOL   H185 6779   7.956   1.876   4.027  1.9059  2.0918  1.7249
    8MOL   H186 6780   7.551   1.715   3.751  1.1833  3.4723  0.4005
    8MOL   H187 6781   7.502   1.545   3.584 -0.1620 -1.0996 -3.6606
    8MOL   H188 6782   7.916   1.523   3.481 -0.4282  0.4801 -2.5851
    8MOL   H189 6783   7.969   1.680   3.649 -0.3469  1.7970  1.9241
    8MOL   O190 6784   7.494   1.319   3.280 -0.0800  0.4455  0.4680
    8MOL   C191 6785   7.441   1.405   3.178  0.4097  0.5517 -1.0511
    8MOL   C192 6786   7.353   1.325   3.073  0.5454 -0.1287 -0.1402
    8MOL   C193 6787   7.314   1.417   2.962  0.4566  0.4272  0.0561
    8MOL   C194 6788   7.246   1.348   2.846  1.0102 -0.5842 -0.2742
    8MOL   C195 6789   7.118   1.275   2.886 -0.0831 -0.2489  0.4485
    8MOL   C196 6790   7.022   1.246   2.767 -0.2073 -0.3584  0.5801
    8MOL   C197 6791   6.878   1.205   2.797 -0.1686  0.2225  0.6136
    8MOL   C198 6792   6.777   1.318   2.796 -0.0458 -0.1915  0.1589
    8MOL   C199 6793   6.646   1.278   2.867 -0.1587 -0.0474 -0.4284
    8MOL   C200 6794   6.532   1.372   2.831  0.8678 -0.5026  0.3181
    8MOL   O201 6795   6.425   1.340   2.918  0.3505  0.1059  0.0981
    8MOL   C202 6796   6.301   1.299   2.874 -0.2130  0.0190 -0.2723
    8MOL   O203 6797   6.272   1.309   2.752 -0.8635  0.2084  0.3433
    8MOL   C204 6798   6.213   1.249   2.980  0.2344 -0.1532  0.0065
    8MOL   C205 6799   6.081   1.194   2.945  0.1945  0.3224 -0.3030
    8MOL   C206 6800   5.992   1.155   3.043 -0.4223 -1.0436  0.3593
    8MOL   C207 6801   6.026   1.145   3.180 -0.5801  0.0228  0.4640
    8MOL   C208 6802   5.930   1.078   3.273 -0.2565 -0.1255 -0.1434
    8MOL   O209 6803   5.816   1.052   3.245 -0.1607 -0.3179 -0.3111
    8MOL   O210 6804   5.990   1.048   3.395  0.3758  0.6296 -0.0555
    8MOL   C211 6805   6.158   1.192   3.218  0.3703  1.2935  0.3450
    8MOL   C212 6806   6.248   1.240   3.119 -0.5623  0.6042  0.5302
    8MOL   H213 6807   7.383   1.485   3.226 -3.3958 -1.3938 -2.2056
    8MOL   H214 6808   7.530   1.452   3.136  1.6611 -0.9085 -0.0954
    8MOL   H215 6809   7.273   1.275   3.127 -0.5569  1.6512 -0.0951
    8MOL   H216 6810   7.418   1.238   3.062 -0.9262 -1.5483  2.0571
    8MOL   H217 6811   7.250   1.489   3.011  0.6079  0.3790  0.3226
    8MOL   H218 6812   7.391   1.485   2.926  1.3436 -0.2711  0.6158
    8MOL   H219 6813   7.317   1.281   2.798  1.1302 -2.0679  1.9303
    8MOL   H220 6814   7.219   1.422   2.770  0.1460 -1.1699 -0.5581
    8MOL   H221 6815   7.142   1.186   2.944  0.1178 -0.9332 -0.6594
    8MOL   H222 6816   7.062   1.337   2.956 -0.5275  0.0148 -0.1329
    8MOL   H223 6817   7.026   1.322   2.689 -0.3538 -0.9575 -0.0115
    8MOL   H224 6818   7.059   1.158   2.714 -0.2816  0.5703 -1.0360
    8MOL   H225 6819   6.847   1.134   2.720  0.7739 -3.3191  3.3377
    8MOL   H226 6820   6.892   1.140   2.883 -0.1532  1.0889  1.2660
    8MOL   H227 6821   6.822   1.405   2.845 -1.0007 -0.6363  1.8558
    8MOL   H228 6822   6.764   1.346   2.692  0.0379  1.2936  0.5422
    8MOL   H229 6823   6.673   1.268   2.972 -1.4114 -2.6158 -0.3307
    8MOL   H230 6824   6.615   1.180   2.830 -0.8549  0.2330 -0.6089
    8MOL   H231 6825   6.505   1.369   2.725  1.4536  0.3433  0.1450
    8MOL   H232 6826   6.565   1.473   2.855 -0.2585  0.3914 -1.7587
    8MOL   H233 6827   6.040   1.193   2.845  1.0569  1.1420 -0.6692
    8MOL   H234 6828   5.895   1.123   3.008  0.3318 -1.6600 -1.1796
    8MOL   H235 6829   6.193   1.182   3.320 -1.4508  1.9630  1.0571
    8MOL   H236 6830   6.348   1.269   3.147 -0.3913  1.4857 -0.9466
    8MOL   O237 6831   5.898   1.031   3.519  0.3408  0.3490 -1.0302
    8MOL   C238 6832   5.915   1.142   3.609  0.2772 -0.1051  0.1807
    8MOL   C239 6833   6.061   1.160   3.646 -0.2451 -0.0161  0.2683
    8MOL   C240 6834   6.078   1.295   3.723  0.0672  0.0256  0.1008
    8MOL   C241 6835   6.224   1.322   3.758  0.4496  0.4192  1.0213
    8MOL   C242 6836   6.316   1.359   3.634 -0.3002 -0.0020 -0.0611
    8MOL   C243 6837   6.293   1.496   3.571  0.0089  0.4896  0.3495
    8MOL   C244 6838   6.383   1.509   3.446 -0.3645 -0.8487  0.2739
    8MOL   C245 6839   6.528   1.540   3.473 -0.5695  0.5428 -0.5063
    8MOL   C246 6840   6.559   1.685   3.506 -0.2738 -0.0904 -0.4519
    8MOL   C247 6841   6.704   1.738   3.490 -0.0067 -0.0235  0.5370
    8MOL   O248 6842   6.748   1.709   3.358 -0.1421 -0.1071 -0.3654
    8MOL   C249 6843   6.873   1.740   3.322  0.0494  1.0590 -0.5704
    8MOL   O250 6844   6.953   1.796   3.398  0.0106  0.7169 -0.1363
    8MOL   C251 6845   6.902   1.716   3.180  1.0519 -0.4823 -0.4169
    8MOL   C252 6846   6.801   1.669   3.090 -1.0461  0.3838  0.1668
    8MOL   C253 6847   6.825   1.661   2.949  0.8271 -0.5742 -0.2467
    8MOL   C254 6848   6.954   1.697   2.896 -0.2156  0.1026  0.3114
    8MOL   C255 6849   6.970   1.687   2.748  0.6339 -0.6856  0.2066
    8MOL   O256 6850   6.874   1.673   2.669  0.2976 -0.1337 -0.1952
    8MOL   O257 6851   7.102   1.702   2.709 -0.6951  0.0031  0.1513
    8MOL   C258 6852   7.051   1.746   2.984 -0.0568  0.4442  0.1788
    8MOL   C259 6853   7.023   1.761   3.123  0.4833  0.3431 -0.4137
    8MOL   H260 6854   5.888   1.231   3.552 -1.6752 -1.3059 -0.8186
    8MOL   H261 6855   5.850   1.135   3.696  0.9843 -0.5142  0.6892
    8MOL   H262 6856   6.130   1.172   3.563 -2.5156  0.3803 -1.6295
    8MOL   H263 6857   6.096   1.076   3.706  1.8106  1.9178  1.8391
    8MOL   H264 6858   6.036   1.375   3.663  2.5293  0.4882 -1.0664
    8MOL   H265 6859   6.009   1.294   3.807 -1.8032 -1.7207 -1.3901
    8MOL   H266 6860   6.265   1.229   3.797  1.5257  0.5836  0.3083
    8MOL   H267 6861   6.243   1.390   3.841  0.8853  0.5006  0.8561
    8MOL   H268 6862   6.416   1.344   3.675 -0.0285 -1.6527 -1.2907
    8MOL   H269 6863   6.296   1.295   3.548  2.5181  0.2776 -0.9644
    8MOL   H270 6864   6.193   1.497   3.529  0.9637  1.5375 -2.0094
    8MOL   H271 6865   6.312   1.579   3.639  0.2460  0.7257 -0.0002
    8MOL   H272 6866   6.367   1.428   3.376 -0.0337 -0.4005 -0.3277
    8MOL   H273 6867   6.335   1.593   3.397 -0.1004  0.4519  2.1883
    8MOL   H274 6868   6.564   1.471   3.551 -2.1928 -1.6222 -1.6149
    8MOL   H275 6869   6.591   1.510   3.389 -0.7004  2.0584 -1.1441
    8MOL   H276 6870   6.543   1.696   3.613  2.2396 -0.2190 -0.0349
    8MOL   H277 6871   6.488   1.749   3.454 -1.7324 -0.4328  1.1002
    8MOL   H278 6872   6.767   1.679   3.556  0.5297  0.7877  0.7557
    8MOL   H279 6873   6.727   1.843   3.505 -0.6707  0.5546 -2.2601
    8MOL   H280 6874   6.708   1.635   3.132 -0.4738 -3.3066 -1.3596
    8MOL   H281 6875   6.742   1.628   2.889 -0.3131  2.3379 -0.3764
    8MOL   H282 6876   7.147   1.766   2.939  1.2180 -1.7331  1.8130
    8MOL   H283 6877   7.097   1.800   3.190 -0.2626 -1.8686  1.7721
    8MOL   O284 6878   7.124   1.684   2.564  0.5568 -0.3295  0.6885
    8MOL   C285 6879   7.130   1.812   2.504  0.3135 -0.1520 -1.0154
    8MOL   C286 6880   7.201   1.794   2.361 -0.3747 -0.3012 -0.2093
    8MOL   C287 6881   7.215   1.920   2.280  0.5502  0.3392  0.6361
    8MOL   C288 6882   7.311   1.903   2.161 -0.1022 -0.1706  0.1890
    8MOL   C289 6883   7.360   2.044   2.099 -0.2515  0.2166 -0.0881
    8MOL   C290 6884   7.263   2.109   1.990  0.1097  0.3958 -0.3687
    8MOL   C291 6885   7.323   2.233   1.916  1.1191  0.3694 -0.2730
    8MOL   C292 6886   7.344   2.355   2.007 -0.5263 -0.1886  0.0889
    8MOL   C293 6887   7.482   2.358   2.076 -0.1901  0.3833  1.0964
    8MOL   C294 6888   7.581   2.444   1.988 -0.7170 -0.2312  0.2484
    8MOL   O295 6889   7.710   2.455   2.054 -0.2400  0.2277  0.0283
    8MOL   C296 6890   7.751   2.569   2.119 -0.1248  0.6260  1.2148
    8MOL   O297 6891   7.689   2.675   2.115  0.2457 -0.2938 -0.6513
    8MOL   C298 6892   7.864   2.547   2.208  0.6913 -0.4602 -0.2564
    8MOL   C299 6893   7.948   2.651   2.256  0.7760  0.4035 -0.1812
    8MOL   C300 6894   0.071   2.623   2.347 -0.6788 -0.0637  0.1151
    8MOL   C301 6895   0.095   2.491   2.395 -0.0340  0.1883  0.5071
    8MOL   C302 6896   0.193   2.461   2.501 -0.1964  0.4726  0.4169
    8MOL   O303 6897   0.209   2.353   2.553  0.1981  0.1813  0.2653
    8MOL   O304 6898   0.269   2.563   2.531  0.6241 -0.2256 -0.1543
    8MOL   C305 6899   0.016   2.389   2.349 -0.2010 -0.4520 -0.3370
    8MOL   C306 6900   7.889   2.417   2.258 -0.4191 -0.4632  0.1069
    8MOL   H307 6901   7.028   1.849   2.503  0.4540  0.2658 -0.1090
    8MOL   H308 6902   7.171   1.885   2.574 -1.4784  1.0836 -1.2260
    8MOL   H309 6903   7.149   1.720   2.300 -1.3548 -0.9207  1.3356
    8MOL   H310 6904   7.301   1.754   2.381 -1.1428 -0.5497  3.5822
    8MOL   H311 6905   7.120   1.957   2.243  0.3416 -0.6865  0.1177
    8MOL   H312 6906   7.257   1.996   2.347 -1.7393  0.8235  1.5670
    8MOL   H313 6907   7.261   1.842   2.085  0.6784 -3.3268  2.1295
    8MOL   H314 6908   7.404   1.864   2.203  0.1806 -0.3887 -0.6296
    8MOL   H315 6909   7.370   2.112   2.183  0.6422  1.7791 -1.4390
    8MOL   H316 6910   7.457   2.028   2.052  1.3912  1.6537  2.7408
    8MOL   H317 6911   7.214   2.040   1.922 -0.0813  1.3968 -1.2487
    8MOL   H318 6912   7.175   2.149   2.040 -0.9722  1.9295 -3.4053
    8MOL   H319 6913   7.406   2.193   1.858  0.9898  0.0179 -0.2190
    8MOL   H320 6914   7.246   2.270   1.848  0.7343  0.9526  0.4740
    8MOL   H321 6915   7.329   2.442   1.943 -1.2525 -0.7521 -0.5052
    8MOL   H322 6916   7.266   2.363   2.082  0.3917 -1.5886  1.2312
    8MOL   H323 6917   7.522   2.257   2.084  2.8284  1.4003 -0.7270
    8MOL   H324 6918   7.475   2.400   2.176 -1.1501  2.2408  0.2777
    8MOL   H325 6919   7.544   2.541   1.956 -1.6587 -1.0891 -1.3257
    8MOL   H326 6920   7.598   2.402   1.889 -1.5313 -3.4514  1.3940
    8MOL   H327 6921   7.926   2.752   2.222  1.0222  1.2350  2.0787
    8MOL   H328 6922   0.125   2.708   2.386  0.2972 -1.3153  1.5431
    8MOL   H329 6923   0.022   2.287   2.384  0.3625 -0.5763 -0.8064
    8MOL   H330 6924   7.820   2.338   2.234 -0.5773 -0.4636  0.5604
    8MOL   O331 6925   0.377   2.545   2.628  0.0860  0.0781 -0.3756
    8MOL   C332 6926   0.347   2.618   2.746 -0.1501 -0.2458 -0.0644
    8MOL   C333 6927   0.280   2.525   2.845  0.3939  0.4201 -0.1391
    8MOL   C334 6928   0.375   2.408   2.877 -0.3062  0.0687 -0.7991
    8MOL   C335 6929   0.303   2.321   2.986 -0.7817 -0.3015  0.7592
    8MOL   C336 6930   0.348   2.175   2.985 -0.6347  0.3013 -0.1263
    8MOL   C337 6931   0.476   2.145   3.056 -1.0660  0.5161  0.5431
    8MOL   C338 6932   0.518   1.998   3.026  0.1127 -0.6932  0.1603
    8MOL   C339 6933   0.431   1.883   3.074 -0.3626 -0.3303  1.0801
    8MOL   C340 6934   0.379   1.904   3.213  0.0328  0.7726  0.1073
    8MOL   C341 6935   0.297   1.787   3.277  0.5943  0.8678  0.1056
    8MOL   O342 6936   0.366   1.664   3.254  0.2464 -0.4498  0.0171
    8MOL   C343 6937   0.308   1.548   3.263 -0.0307 -0.5509 -0.3982
    8MOL   O344 6938   0.192   1.539   3.296  0.3572  0.3962  0.2501
    8MOL   C345 6939   0.403   1.429   3.222  0.3357  0.3495 -0.5635
    8MOL   C346 6940   0.531   1.454   3.168  0.1215 -0.0461 -0.9797
    8MOL   C347 6941   0.611   1.348   3.118  0.3759 -0.1926  1.4663
    8MOL   C348 6942   0.562   1.213   3.116 -0.2992 -0.1909 -0.4032
    8MOL   C349 6943   0.642   1.104   3.066  0.5529  0.8336  0.0501
    8MOL   O350 6944   0.598   1.000   3.015 -0.0886 -0.0456 -0.3287
    8MOL   O351 6945   0.771   1.121   3.062 -0.2442 -0.6843 -0.2036
    8MOL   C352 6946   0.430   1.194   3.165  0.2764 -0.1803  0.1211
    8MOL   C353 6947   0.352   1.297   3.217  1.1114 -0.3679  0.0107
    8MOL   H354 6948   0.438   2.667   2.781 -0.6634  2.5017 -2.3764
    8MOL   H355 6949   0.277   2.700   2.728 -2.1213 -1.4072  1.9881
    8MOL   H356 6950   0.183   2.489   2.811  0.4539  1.4517 -1.4368
    8MOL   H357 6951   0.257   2.573   2.940 -0.4132  0.0942 -0.1654
    8MOL   H358 6952   0.399   2.342   2.794 -0.6572 -1.6970  0.4665
    8MOL   H359 6953   0.479   2.433   2.897 -0.5239 -1.5135  2.7026
    8MOL   H360 6954   0.198   2.325   2.957 -0.5952 -0.2968  0.0713
    8MOL   H361 6955   0.316   2.374   3.080  0.6170  0.1428  0.3273
    8MOL   H362 6956   0.268   2.110   3.022 -0.2917  1.7021  3.2041
    8MOL   H363 6957   0.359   2.150   2.879 -0.7883  1.6012 -0.4570
    8MOL   H364 6958   0.561   2.206   3.025 -0.0104 -0.9633  0.4237
    8MOL   H365 6959   0.474   2.153   3.165  0.7928 -1.3413  0.7566
    8MOL   H366 6960   0.536   2.000   2.918  1.4424 -0.8494  0.3792
    8MOL   H367 6961   0.613   1.987   3.078  0.1928  1.5978  0.5482
    8MOL   H368 6962   0.350   1.862   3.004 -1.1733  3.2211  0.8236
    8MOL   H369 6963   0.487   1.790   3.064  0.2101  0.0954  0.2758
    8MOL   H370 6964   0.326   1.999   3.200  0.5811  0.9171 -1.1456
    8MOL   H371 6965   0.460   1.921   3.284 -0.1855 -0.5523  0.6823
    8MOL   H372 6966   0.194   1.776   3.242  0.6304 -1.9920  0.7789
    8MOL   H373 6967   0.285   1.782   3.385  0.6680  1.0367  0.1216
    8MOL   H374 6968   0.588   1.546   3.167  2.7085 -1.5816 -1.0827
    8MOL   H375 6969   0.709   1.372   3.079 -1.3808  4.1119 -0.5978
    8MOL   H376 6970   0.384   1.097   3.163 -2.2163  0.9380  1.2967
    8MOL   H377 6971   0.260   1.274   3.269  0.9988 -0.1640 -0.0970
    8MOL   O378 6972   0.856   0.996   3.017 -0.2579  0.4486 -0.2072
    8MOL   C379 6973   0.878   1.022   2.876 -0.0743  0.4989  0.6392
    8MOL   C380 6974   1.000   0.956   2.821  0.0984  0.5655  0.2103
    8MOL   C381 6975   1.134   0.985   2.893 -0.2764 -0.0052 -0.8706
    8MOL   C382 6976   1.258   0.914   2.833 -0.3632 -0.7336  0.0972
    8MOL   C383 6977   1.392   0.927   2.903 -0.0954  0.2489 -0.1860
    8MOL   C384 6978   1.434   1.065   2.950  0.5620  0.0905 -0.2707
    8MOL   C385 6979   1.583   1.082   2.988 -0.2336 -0.0671 -0.3941
    8MOL   C386 6980   1.644   1.224   2.963 -0.2328  0.4688  0.0741
    8MOL   C387 6981   1.786   1.228   3.004 -0.6420 -0.1004  0.1392
    8MOL   C388 6982   1.845   1.367   2.991  0.0014  0.6017  0.2832
    8MOL   O389 6983   1.875   1.389   2.854 -0.8403  1.2515  0.5922
    8MOL   C390 6984   1.999   1.346   2.804 -0.2023  1.5136 -0.0777
    8MOL   O391 6985   2.064   1.257   2.862 -0.4012 -0.7071 -0.0590
    8MOL   C392 6986   2.036   1.409   2.684  0.0494 -0.2872 -0.2207
    8MOL   C393 6987   1.942   1.481   2.604  0.5509  0.0393 -0.3308
    8MOL   C394 6988   1.984   1.543   2.481 -0.5212 -0.1839  0.1980
    8MOL   C395 6989   2.117   1.536   2.438  0.3122 -0.0092 -0.6702
    8MOL   C396 6990   2.166   1.611   2.321 -1.0765  0.4857  0.0627
    8MOL   O397 6991   2.290   1.622   2.298  0.1636 -0.9413  0.0871
    8MOL   O398 6992   2.071   1.670   2.253 -0.2077  0.1100  0.4473
    8MOL   C399 6993   2.205   1.465   2.523 -0.0077  0.4443 -0.5753
    8MOL   C400 6994   2.169   1.393   2.638 -0.4020 -0.1737 -0.4131
    8MOL   H401 6995   0.789   0.983   2.827  0.2692  0.1228  0.3173
    8MOL   H402 6996   0.892   1.125   2.844  1.3915  0.0479 -0.2104
    8MOL   H403 6997   1.002   0.986   2.716 -2.0493 -0.0476 -0.0419
    8MOL   H404 6998   0.971   0.851   2.822  0.8214  0.3698  0.6867
    8MOL   H405 6999   1.156   1.092   2.897  0.5660 -0.1498 -1.6242
    8MOL   H406 7000   1.123   0.971   3.001 -1.4832  0.8012 -0.8847
    8MOL   H407 7001   1.276   0.961   2.737  2.2184 -0.0399  0.8877
    8MOL   H408 7002   1.239   0.807   2.829 -1.3983 -0.5065 -1.5115
    8MOL   H409 7003   1.394   0.863   2.992 -2.3223  1.0085  0.4413
    8MOL   H410 7004   1.470   0.890   2.836 -0.5928  1.5417 -1.4919
    8MOL   H411 7005   1.429   1.118   2.855 -1.0424  2.0880  0.8824
    8MOL   H412 7006   1.372   1.115   3.024  2.1017  0.6774  0.6301
    8MOL   H413 7007   1.603   1.048   3.090 -0.8017 -0.9636 -0.5782
    8MOL   H414 7008   1.634   1.010   2.923 -0.9483 -1.6397  0.7432
    8MOL   H415 7009   1.633   1.266   2.863 -0.9538  0.2412  0.0596
    8MOL   H416 7010   1.591   1.290   3.032 -1.3861  1.4052 -1.6705
    8MOL   H417 7011   1.850   1.158   2.949 -1.2402 -0.0808 -0.5851
    8MOL   H418 7012   1.800   1.213   3.112  1.0781  1.2673  0.1224
    8MOL   H419 7013   1.926   1.386   3.061 -0.1591 -0.6924  0.8368
    8MOL   H420 7014   1.776   1.442   3.031  1.0930  0.2236  3.0053
    8MOL   H421 7015   1.840   1.481   2.640  0.6255  0.5948 -0.1126
    8MOL   H422 7016   1.908   1.597   2.427 -0.8371 -0.2233  0.6028
    8MOL   H423 7017   2.307   1.449   2.493  0.8149 -1.5949  2.9545
    8MOL   H424 7018   2.243   1.326   2.679  0.7335  0.9346 -0.6020
    8MOL   O425 7019   2.111   1.784   2.168 -0.3183  0.3184 -0.5333
    8MOL   C426 7020   2.098   1.751   2.035  0.1263 -0.2723  0.6789
    8MOL   C427 7021   1.954   1.729   2.001 -0.1035  0.1384 -0.1834
    8MOL   C428 7022   1.842   1.826   2.042 -0.9292  0.9354  0.0800
    8MOL   C429 7023   1.706   1.760   2.011 -0.0168  0.1611 -0.4238
    8MOL   C430 7024   1.592   1.861   2.023 -0.2064 -0.1885  0.0264
    8MOL   C431 7025   1.460   1.822   1.950 -0.3398 -0.0917  0.9427
    8MOL   C432 7026   1.361   1.931   1.914 -0.1512 -0.2413 -0.1255
    8MOL   C433 7027   1.297   1.999   2.033 -0.5254 -0.3814 -0.3143
    8MOL   C434 7028   1.186   2.094   1.989  0.5968 -0.4506  0.3729
    8MOL   C435 7029   1.246   2.237   1.953 -0.1831 -0.2599  0.0109
    8MOL   O436 7030   1.292   2.294   2.076 -0.1727  0.1328 -0.0610
    8MOL   C437 7031   1.302   2.425   2.079 -0.7235  0.4229  0.3129
    8MOL   O438 7032   1.295   2.499   1.978  0.0463 -0.1311 -0.2314
    8MOL   C439 7033   1.313   2.472   2.215  0.3908  0.2863  0.6848
    8MOL   C440 7034   1.346   2.393   2.332  0.0538  0.2612  0.2925
    8MOL   C441 7035   1.347   2.464   2.453 -0.9143  0.5557  0.0178
    8MOL   C442 7036   1.295   2.596   2.472  0.4473  0.4927 -0.3458
    8MOL   C443 7037   1.265   2.650   2.610 -0.5427  0.2982  0.0143
    8MOL   O444 7038   1.316   2.600   2.712  0.5492 -0.0569  0.2849
    8MOL   O445 7039   1.182   2.754   2.602  0.1802 -0.2565 -0.0160
    8MOL   C446 7040   1.259   2.671   2.358 -0.0045 -0.0525  0.1547
    8MOL   C447 7041   1.262   2.607   2.231  0.2539  0.4395 -0.3118
    8MOL   H448 7042   2.136   1.828   1.968  0.3542  0.3290  1.4873
    8MOL   H449 7043   2.157   1.663   2.009 -0.3312  0.3756 -2.8345
    8MOL   H450 7044   1.940   1.631   2.047  0.5055  0.0093 -0.2629
    8MOL   H451 7045   1.937   1.721   1.894 -1.0773  0.1036 -0.0336
    8MOL   H452 7046   1.835   1.862   2.145  0.3372 -1.1106  0.9014
    8MOL   H453 7047   1.843   1.917   1.981  0.2097  0.3841 -0.7274
    8MOL   H454 7048   1.696   1.678   2.082 -1.4990 -0.7887 -1.6969
    8MOL   H455 7049   1.707   1.717   1.911  1.0782 -1.0399  0.0837
    8MOL   H456 7050   1.579   1.891   2.127 -1.5622  1.6848 -0.6669
    8MOL   H457 7051   1.629   1.957   1.987  1.7122 -1.3867 -1.2916
    8MOL   H458 7052   1.489   1.770   1.859  0.9305  1.0494  0.6665
    8MOL   H459 7053   1.416   1.741   2.007 -0.6303 -0.8716 -0.3654
    8MOL   H460 7054   1.415   2.000   1.850  0.1887 -0.7673 -0.4101
    8MOL   H461 7055   1.283   1.875   1.862 -0.5072 -0.1583  0.3117
    8MOL   H462 7056   1.255   1.924   2.100  1.1230 -1.8932 -0.9399
    8MOL   H463 7057   1.374   2.055   2.087 -1.3235 -0.9091  1.4107
    8MOL   H464 7058   1.111   2.101   2.068 -0.7609 -0.8046 -0.8577
    8MOL   H465 7059   1.140   2.051   1.900 -3.1480 -1.4527  2.6902
    8MOL   H466 7060   1.174   2.302   1.904  0.5215 -0.6417 -1.5649
    8MOL   H467 7061   1.323   2.224   1.877 -0.1695 -0.4979  0.0632
    8MOL   H468 7062   1.367   2.287   2.329  1.6132  0.5839 -0.8015
    8MOL   H469 7063   1.381   2.416   2.544 -1.3576 -0.9833 -0.6008
    8MOL   H470 7064   1.208   2.765   2.368 -2.1767 -1.1783  0.0727
    8MOL   H471 7065   1.230   2.658   2.142  3.0957  0.3908 -1.4227
    8MOL   O472 7066   1.157   2.820   2.741  0.0393 -0.1329 -0.1833
    8MOL   C473 7067   1.031   2.776   2.782 -0.4937  0.2321 -0.7547
    8MOL   C474 7068   1.051   2.648   2.858 -0.0969 -0.8507  0.2283
    8MOL   C475 7069   0.978   2.637   2.989  0.3243  0.1429 -0.0569
    8MOL   C476 7070   1.040   2.718   3.107 -0.6688 -0.4019 -0.0492
    8MOL   C477 7071   0.968   2.698   3.238 -0.6507  0.3155 -0.1719
    8MOL   C478 7072   1.013   2.799   3.341  0.6652  1.0753 -0.1973
    8MOL   C479 7073   0.940   2.789   3.481 -0.0884  0.2508 -0.3208
    8MOL   C480 7074   0.945   2.650   3.549  0.2859  0.1251 -0.5722
    8MOL   C481 7075   1.081   2.604   3.586 -0.4624  0.0966 -0.6893
    8MOL   C482 7076   1.076   2.473   3.666 -0.4039  0.1151  0.3691
    8MOL   O483 7077   1.202   2.458   3.741  0.5667 -0.0304 -0.1165
    8MOL   C484 7078   1.224   2.336   3.799 -0.9024 -0.3666  0.1143
    8MOL   O485 7079   1.135   2.256   3.830  0.3169  0.1835  0.2695
    8MOL   C486 7080   1.364   2.328   3.851  0.0363 -0.4715  0.4311
    8MOL   C487 7081   1.444   2.445   3.837 -0.3987  0.0724 -0.0210
    8MOL   C488 7082   1.576   2.446   3.894  0.7821 -0.0275 -0.4473
    8MOL   C489 7083   1.628   2.326   3.952  0.0343  0.6362 -0.3404
    8MOL   C490 7084   1.757   2.321   4.019 -0.2126  0.2286  0.2962
    8MOL   O491 7085   1.781   2.237   4.107 -0.6322  0.7334 -0.6506
    8MOL   O492 7086   1.846   2.400   3.961  0.6088 -0.2047 -0.3868
    8MOL   C493 7087   1.549   2.207   3.951  0.3807  0.0284 -0.0036
    8MOL   C494 7088   1.420   2.209   3.899  0.1708  0.6256  0.4648
    8MOL   H495 7089   1.002   2.852   2.854 -1.8568 -0.4201 -0.5956
    8MOL   H496 7090   0.964   2.770   2.696  1.3110  0.8648 -2.2618
    8MOL   H497 7091   1.157   2.638   2.883 -0.6528 -1.5610  2.3624
    8MOL   H498 7092   1.020   2.562   2.800 -1.9539 -0.0058 -0.0690
    8MOL   H499 7093   0.875   2.665   2.967  0.5941 -0.4751 -2.2326
    8MOL   H500 7094   0.970   2.531   3.012 -1.3823  0.7657  2.4296
    8MOL   H501 7095   1.025   2.824   3.088 -1.3705 -0.5807 -0.5142
    8MOL   H502 7096   1.147   2.701   3.118 -1.0261 -2.3459  0.6351
    8MOL   H503 7097   0.860   2.704   3.223 -0.6808 -1.9311 -1.0508
    8MOL   H504 7098   0.989   2.595   3.270 -0.3657  0.7600  1.1131
    8MOL   H505 7099   1.121   2.786   3.351  0.4582 -0.8578 -0.2056
    8MOL   H506 7100   0.993   2.897   3.299 -1.3598  0.2984 -1.1056
    8MOL   H507 7101   0.992   2.859   3.546  2.5026  0.2274 -2.2964
    8MOL   H508 7102   0.836   2.817   3.463  0.2077  1.2975 -0.4586
    8MOL   H509 7103   0.894   2.656   3.646 -1.2242  0.6966 -1.3817
    8MOL   H510 7104   0.900   2.574   3.484  1.0576 -0.8402  0.0005
    8MOL   H511 7105   1.129   2.679   3.648 -0.6319  0.2654 -0.7606
    8MOL   H512 7106   1.141   2.581   3.498  0.0220  0.1751 -0.3830
    8MOL   H513 7107   1.062   2.378   3.614  0.0451  0.4405 -0.3628
    8MOL   H514 7108   0.991   2.479   3.733 -1.5784  1.2216 -1.1936
    8MOL   H515 7109   1.409   2.540   3.798 -0.0107 -0.0987 -0.7829
    8MOL   H516 7110   1.637   2.534   3.904 -0.7860  0.9548  0.7656
    8MOL   H517 7111   1.585   2.123   4.009 -1.3802  0.4570  1.7779
    8MOL   H518 7112   1.355   2.122   3.898  1.3856 -0.3022  0.2224
    8MOL   O519 7113   1.989   2.382   3.997  0.1819  0.0871 -0.0288
    8MOL   C520 7114   2.046   2.290   3.911 -0.0263 -0.1713  0.6208
    8MOL   C521 7115   2.183   2.262   3.968 -0.0015 -0.0500  0.3078
    8MOL   C522 7116   2.171   2.188   4.101  0.7786 -0.1348  0.3283
    8MOL   C523 7117   2.317   2.187   4.170 -1.1324 -0.4356 -0.5643
    8MOL   C524 7118   2.316   2.145   4.318  0.6045  0.2329  0.3495
    8MOL   C525 7119   2.453   2.171   4.383  0.1272  0.8885  0.3593
    8MOL   C526 7120   2.482   2.093   4.510  0.5250  0.3020  0.0529
    8MOL   C527 7121   2.615   2.138   4.567 -1.0252  0.0669 -0.1227
    8MOL   C528 7122   2.662   2.091   4.708  0.0468  0.3044  0.6145
    8MOL   C529 7123   2.797   2.157   4.743  0.5771 -0.5148  0.8285
    8MOL   O530 7124   2.890   2.089   4.669  0.0244  0.4211 -0.1713
    8MOL   C531 7125   3.008   2.137   4.640 -0.3461 -0.1353  0.5341
    8MOL   O532 7126   3.056   2.243   4.688  0.5980 -0.0747  0.6643
    8MOL   C533 7127   3.085   2.041   4.556  0.0907 -0.4985  0.3353
    8MOL   C534 7128   3.021   1.922   4.509  0.1334  1.1023  0.6203
    8MOL   C535 7129   3.090   1.818   4.442 -0.2489  0.1108 -0.2695
    8MOL   C536 7130   3.227   1.835   4.409 -0.2118  0.0736 -0.7718
    8MOL   C537 7131   3.306   1.722   4.350 -1.1970 -0.7109 -0.4623
    8MOL   O538 7132   3.254   1.627   4.295  0.0499  0.4655  0.2334
    8MOL   O539 7133   3.435   1.744   4.364  0.3434 -0.0424  0.2164
    8MOL   C540 7134   3.289   1.964   4.444  0.0211 -1.3310  0.1779
    8MOL   C541 7135   3.221   2.058   4.522  0.6043 -0.2651  0.4039
    8MOL   H542 7136   1.979   2.205   3.903  0.8019 -0.7281 -0.5877
    8MOL   H543 7137   2.070   2.342   3.818  1.2956 -0.1656  0.9504
    8MOL   H544 7138   2.239   2.355   3.963 -0.7814  0.3886 -0.5138
    8MOL   H545 7139   2.219   2.193   3.891  0.2049  0.6427 -0.2173
    8MOL   H546 7140   2.101   2.232   4.172 -1.0946  1.3540 -2.3534
    8MOL   H547 7141   2.144   2.087   4.072  0.3528 -0.4878  1.9017
    8MOL   H548 7142   2.359   2.286   4.152 -1.8436 -0.0141  0.0718
    8MOL   H549 7143   2.373   2.107   4.121 -1.1771  0.0130 -1.3696
    8MOL   H550 7144   2.235   2.183   4.380  0.1594  2.8374 -1.7109
    8MOL   H551 7145   2.291   2.040   4.303 -0.1682  0.5867 -0.9208
    8MOL   H552 7146   2.526   2.122   4.319  0.2336  0.6513  0.6614
    8MOL   H553 7147   2.472   2.278   4.388  0.5545  0.8222  0.1709
    8MOL   H554 7148   2.407   2.089   4.590 -0.7749  0.5965 -1.1369
    8MOL   H555 7149   2.494   1.989   4.481 -1.0399  0.1280 -0.0267
    8MOL   H556 7150   2.691   2.111   4.494 -2.5672 -2.1385 -0.9760
    8MOL   H557 7151   2.612   2.247   4.579 -1.3121  0.3424 -2.4889
    8MOL   H558 7152   2.670   1.982   4.704 -2.1856  0.1325  0.3717
    8MOL   H559 7153   2.586   2.110   4.783 -2.7323 -1.2854 -1.6954
    8MOL   H560 7154   2.813   2.150   4.851  0.1932  0.9893  1.0027
    8MOL   H561 7155   2.793   2.259   4.703 -0.2639 -1.9207 -2.8740
    8MOL   H562 7156   2.914   1.920   4.512  0.0724 -1.5814 -1.5982
    8MOL   H563 7157   3.030   1.732   4.415 -0.9255 -0.4040  2.6835
    8MOL   H564 7158   3.394   1.969   4.418 -0.0830 -0.9922 -0.1809
    8MOL   H565 7159   3.280   2.143   4.552 -1.2423  1.2829 -0.2686
    8MOL   O566 7160   3.520   1.630   4.326  0.0172 -0.5451 -0.4970
    8MOL   C567 7161   3.584   1.663   4.200  0.3287  0.8186  0.1744
    8MOL   C568 7162   3.640   1.803   4.201 -0.3871  0.8718  0.3787
    8MOL   C569 7163   3.753   1.826   4.315  0.4000  0.1128  0.4341
    8MOL   C570 7164   3.812   1.971   4.321  0.8657  0.0205  0.1705
    8MOL   C571 7165   3.714   2.065   4.386  0.4002 -0.4176 -0.0617
    8MOL   C572 7166   3.770   2.201   4.415 -0.5276 -0.1230 -0.5341
    8MOL   C573 7167   3.661   2.308   4.440  0.3611  0.0544  0.0030
    8MOL   C574 7168   3.715   2.443   4.488  0.4830 -0.0293  0.2229
    8MOL   C575 7169   3.606   2.551   4.512 -0.2626 -0.2565 -0.4002
    8MOL   C576 7170   3.664   2.676   4.574 -0.5751 -0.1728 -0.7419
    8MOL   O577 7171   3.724   2.744   4.464  0.1925  0.5163  0.1126
    8MOL   C578 7172   3.791   2.864   4.474  0.7296  0.0275 -0.2339
    8MOL   O579 7173   3.811   2.922   4.582 -0.0213 -0.4095  0.4156
    8MOL   C580 7174   3.839   2.910   4.338  0.0541 -0.3257 -0.2372
    8MOL   C581 7175   3.844   2.812   4.239 -0.8591  0.7313 -0.5333
    8MOL   C582 7176   3.901   2.842   4.115  0.0150  0.4891  0.3920
    8MOL   C583 7177   3.958   2.972   4.084  0.4726 -0.3310 -0.8870
    8MOL   C584 7178   4.020   2.996   3.951 -0.2501  0.3174 -0.8163
    8MOL   O585 7179   3.974   2.955   3.846 -0.4600 -0.4507 -0.6110
    8MOL   O586 7180   4.147   3.047   3.964 -0.0729 -0.8924 -0.3186
    8MOL   C587 7181   3.960   3.062   4.191  0.2337 -0.2087 -0.0951
    8MOL   C588 7182   3.893   3.038   4.315 -0.0866 -0.0732 -0.1926
    8MOL   H589 7183   3.660   1.587   4.189 -0.0659  0.4968 -0.3468
    8MOL   H590 7184   3.511   1.639   4.122 -1.1729  0.7457  1.5665
    8MOL   H591 7185   3.555   1.871   4.197  1.1579  2.8589  0.3051
    8MOL   H592 7186   3.682   1.814   4.101  1.5857 -1.6563  0.8715
    8MOL   H593 7187   3.712   1.798   4.412 -0.5664 -0.5198 -0.1361
    8MOL   H594 7188   3.832   1.754   4.294 -1.1777 -1.2520 -1.0927
    8MOL   H595 7189   3.828   2.010   4.221  0.2552  1.3097  0.5643
    8MOL   H596 7190   3.898   1.957   4.386  0.5357  0.8212  0.7830
    8MOL   H597 7191   3.621   2.082   4.332  1.3378 -2.6209 -2.4322
    8MOL   H598 7192   3.681   2.021   4.480 -2.1014  1.6034  0.0722
    8MOL   H599 7193   3.845   2.197   4.494 -0.0435 -1.3912 -1.0446
    8MOL   H600 7194   3.829   2.234   4.329 -1.4463  0.0020 -1.1206
    8MOL   H601 7195   3.605   2.324   4.348  1.0660 -0.0468 -0.4476
    8MOL   H602 7196   3.601   2.282   4.527  1.8256  1.1151  1.3486
    8MOL   H603 7197   3.794   2.439   4.563  2.0734  0.2653 -1.3830
    8MOL   H604 7198   3.777   2.481   4.407  0.2756  0.5167  0.3187
    8MOL   H605 7199   3.540   2.511   4.589 -1.2604  2.4204  0.1634
    8MOL   H606 7200   3.548   2.581   4.425  0.2999 -1.7807 -1.3343
    8MOL   H607 7201   3.744   2.664   4.647 -1.0683 -1.9446 -0.4937
    8MOL   H608 7202   3.580   2.738   4.606 -0.4584 -0.9831  1.2005
    8MOL   H609 7203   3.819   2.708   4.256 -2.0710  0.9268 -1.0325
    8MOL   H610 7204   3.913   2.761   4.044 -0.7405  2.7588 -2.4217
    8MOL   H611 7205   4.014   3.155   4.183 -0.7615  0.3113 -0.8239
    8MOL   H612 7206   3.895   3.107   4.398  2.3395  1.5756 -1.5667
    8MOL   O613 7207   4.230   3.028   3.838 -0.3510 -0.1511 -0.2647
    8MOL   C614 7208   4.350   2.971   3.882 -0.3940 -0.0486 -0.1716
    8MOL   C615 7209   4.438   2.908   3.773  0.2972 -0.0133 -0.7730
    8MOL   C616 7210   4.572   2.861   3.836 -1.2125 -0.0779 -0.0046
    8MOL   C617 7211   4.664   2.974   3.884  0.1613  0.0431 -0.6134
    8MOL   C618 7212   4.791   2.911   3.939 -0.6935 -0.1151  0.4638
    8MOL   C619 7213   4.873   3.014   4.017  0.4828 -0.2650  0.0180
    8MOL   C620 7214   5.022   3.008   3.982  0.0839  0.2366  0.1119
    8MOL   C621 7215   5.054   3.065   3.841  0.0831  0.0353  0.1757
    8MOL   C622 7216   5.201   3.101   3.813  0.3537 -0.3221  0.0911
    8MOL   C623 7217   5.303   2.989   3.844  0.3354  0.3171  0.2525
    8MOL   O624 7218   5.311   2.948   3.980 -0.0571 -0.5372  0.4694
    8MOL   C625 7219   5.393   3.020   4.061  0.3404  0.6427  0.5190
    8MOL   O626 7220   5.478   3.103   4.022 -0.1628  0.7095  0.3037
    8MOL   C627 7221   5.364   3.000   4.207  0.1083  0.0838  0.0418
    8MOL   C628 7222   5.420   3.089   4.304  0.4775  0.6068  0.0948
    8MOL   C629 7223   5.375   3.090   4.435 -0.0679  0.4406 -0.0470
    8MOL   C630 7224   5.276   2.999   4.475  0.0141 -0.0917 -0.2314
    8MOL   C631 7225   5.248   2.981   4.623 -0.1317 -0.1750 -1.1140
    8MOL   O632 7226   5.172   2.892   4.660 -0.0877 -0.4249  0.5016
    8MOL   O633 7227   5.316   3.068   4.705 -0.6428  0.1898 -0.0570
    8MOL   C634 7228   5.227   2.907   4.382 -0.3228 -0.1426  0.4954
    8MOL   C635 7229   5.275   2.906   4.249 -0.3898 -0.0907  0.3903
    8MOL   H636 7230   4.406   3.053   3.926  1.1158 -0.8203 -0.6022
    8MOL   H637 7231   4.323   2.892   3.953 -1.1853  1.4929  1.2701
    8MOL   H638 7232   4.444   2.984   3.696  0.3908 -0.0118 -0.7649
    8MOL   H639 7233   4.382   2.825   3.730 -1.8342  0.7180  0.5184
    8MOL   H640 7234   4.568   2.793   3.920  0.1240  3.6854  3.2892
    8MOL   H641 7235   4.632   2.810   3.761 -0.8429  0.7915 -0.3141
    8MOL   H642 7236   4.619   3.022   3.971  0.9223  1.3605 -0.9349
    8MOL   H643 7237   4.691   3.055   3.817 -0.8598  0.1944 -0.8522
    8MOL   H644 7238   4.764   2.823   3.997  0.1867  0.2645  1.4604
    8MOL   H645 7239   4.854   2.880   3.856 -1.5152  1.5053 -0.8136
    8MOL   H646 7240   4.837   3.114   3.990 -0.4014 -1.0901 -1.9663
    8MOL   H647 7241   4.864   3.001   4.125  0.2545  0.9026  0.1478
    8MOL   H648 7242   5.079   3.061   4.059  0.9054  0.4882 -0.6612
    8MOL   H649 7243   5.059   2.905   3.991 -0.2521 -0.0242 -1.4648
    8MOL   H650 7244   5.031   2.998   3.759 -0.4822 -1.0038  1.1650
    8MOL   H651 7245   5.002   3.160   3.830  0.2097  0.1047  0.1673
    8MOL   H652 7246   5.228   3.193   3.866 -0.4600  0.5342 -0.9723
    8MOL   H653 7247   5.218   3.131   3.710  0.6584  1.0330  0.5240
    8MOL   H654 7248   5.396   3.032   3.805 -0.3787  2.7244  1.1047
    8MOL   H655 7249   5.263   2.903   3.790  0.5112 -0.3481  1.1689
    8MOL   H656 7250   5.487   3.164   4.265 -0.8561  1.6194 -0.2681
    8MOL   H657 7251   5.419   3.157   4.507  1.0952  1.7827 -1.9294
    8MOL   H658 7252   5.157   2.831   4.412 -0.7306 -0.4603 -1.2245
    8MOL   H659 7253   5.221   2.837   4.186  0.3176 -0.9542  0.7176
    8MOL   O660 7254   5.292   3.047   4.844 -0.2657  0.0799 -0.0698
    8MOL   C661 7255   5.391   2.963   4.889  0.9678  0.0789  0.1549
    8MOL   C662 7256   5.407   2.991   5.039 -0.7919  0.3910 -1.0116
    8MOL   C663 7257   5.515   2.906   5.103 -0.1185 -0.0450 -0.1786
    8MOL   C664 7258   5.566   2.974   5.235  0.0253  0.2884 -0.3398
    8MOL   C665 7259   5.690   3.068   5.221  0.4320  0.6218 -0.5668
    8MOL   C666 7260   5.731   3.109   5.367 -0.6666 -0.6520 -0.4588
    8MOL   C667 7261   5.863   3.188   5.357 -0.0525 -0.5931  0.4069
    8MOL   C668 7262   5.878   3.264   5.482  0.6897  0.4668 -0.0164
    8MOL   C669 7263   5.996   3.371   5.474  0.3092 -0.0931  0.1586
    8MOL   C670 7264   6.011   3.451   5.606  0.9469 -0.1021  0.0763
    8MOL   O671 7265   6.090   3.566   5.589 -0.5972 -0.0248 -0.0677
    8MOL   C672 7266   6.225   3.565   5.625  0.0719  0.2348 -0.8438
    8MOL   O673 7267   6.289   3.462   5.660  0.1675 -0.1137 -0.1644
    8MOL   C674 7268   6.281   3.696   5.628  0.0822  0.0220  0.0774
    8MOL   C675 7269   6.222   3.811   5.565 -0.8921 -0.3815 -0.0367
    8MOL   C676 7270   6.286   3.938   5.572  0.4549  0.1625 -0.0721
    8MOL   C677 7271   6.405   3.953   5.653  0.7354 -0.1430 -0.0523
    8MOL   C678 7272   6.467   4.078   5.659 -0.6265  0.1275 -0.0941
    8MOL   O679 7273   6.593   4.091   5.673 -0.1187 -1.0630  0.2298
    8MOL   O680 7274   6.380   4.181   5.637 -0.3665  0.9648 -0.0147
    8MOL   C681 7275   6.457   3.838   5.719  0.5983 -0.3434 -0.4331
    8MOL   C682 7276   6.394   3.717   5.711  0.5608 -0.9021  0.6577
    8MOL   H683 7277   5.363   2.858   4.876 -1.6237  0.7516 -0.0672
    8MOL   H684 7278   5.486   2.973   4.837  0.9409 -0.0222  0.0862
    8MOL   H685 7279   5.317   2.970   5.097  0.3013 -1.3521  0.1223
    8MOL   H686 7280   5.442   3.094   5.043  1.0625 -0.2872  2.0264
    8MOL   H687 7281   5.475   2.809   5.131  0.5405 -0.4887 -0.7648
    8MOL   H688 7282   5.602   2.904   5.038  1.0011  3.0748  1.1024
    8MOL   H689 7283   5.600   2.895   5.302 -1.3390 -0.4300 -0.4858
    8MOL   H690 7284   5.498   3.038   5.291  0.3351 -0.0108  0.3944
    8MOL   H691 7285   5.775   3.020   5.173  1.1497  0.0133  1.2851
    8MOL   H692 7286   5.659   3.154   5.161  1.1199  0.7368 -0.7618
    8MOL   H693 7287   5.656   3.176   5.408 -2.3031 -2.1958 -0.8545
    8MOL   H694 7288   5.755   3.024   5.432 -0.1151 -0.1359  0.0101
    8MOL   H695 7289   5.948   3.120   5.348 -0.5353 -1.0266 -1.0305
    8MOL   H696 7290   5.859   3.269   5.285  1.0724 -0.2787  0.6825
    8MOL   H697 7291   5.789   3.319   5.510 -0.1414 -0.4862 -0.7566
    8MOL   H698 7292   5.905   3.193   5.561 -3.0614  1.8442  2.6415
    8MOL   H699 7293   5.975   3.437   5.390  3.1385 -1.7624 -1.9358
    8MOL   H700 7294   6.087   3.318   5.446  0.3208 -0.5015  0.9576
    8MOL   H701 7295   6.057   3.379   5.674  1.1590 -2.0486 -2.0478
    8MOL   H702 7296   5.911   3.470   5.646  1.5898  0.2193  1.5522
    8MOL   H703 7297   6.126   3.798   5.517 -3.1807 -1.0809  4.4569
    8MOL   H704 7298   6.257   4.017   5.504 -0.0515 -2.4071 -2.9243
    8MOL   H705 7299   6.546   3.843   5.780  0.4644  1.5643 -0.3739
    8MOL   H706 7300   6.433   3.642   5.779  1.2020 -0.2162  1.0512
    8MOL   O707 7301   6.432   4.312   5.628  0.0229  0.0494 -0.0874
    8MOL   C708 7302   6.404   4.377   5.751 -0.2741  0.6492  0.0305
    8MOL   C709 7303   6.536   4.452   5.785 -0.5473 -0.1127 -0.0930
    8MOL   C710 7304   6.558   4.472   5.941  0.4441  0.5607 -0.0034
    8MOL   C711 7305   6.702   4.524   5.974 -0.0486  0.1720  0.0280
    8MOL   C712 7306   6.742   4.479   6.110  0.0313  0.2670 -0.4220
    8MOL   C713 7307   6.867   4.555   6.158 -0.4864  0.2353  0.6065
    8MOL   C714 7308   6.909   4.518   6.295 -0.2637  0.1285 -0.3977
    8MOL   C715 7309   6.953   4.369   6.310  0.0313  1.0258  0.3980
    8MOL   C716 7310   6.983   4.325   6.460 -0.1797  0.0836 -0.5595
    8MOL   C717 7311   6.993   4.173   6.469 -0.3410 -0.2829 -0.1128
    8MOL   O718 7312   6.984   4.137   6.607 -0.3997  0.1262  0.3875
    8MOL   C719 7313   6.946   4.013   6.655  0.1755 -0.0229 -0.5417
    8MOL   O720 7314   6.934   3.918   6.579  0.1441 -0.3781  0.1556
    8MOL   C721 7315   6.943   4.000   6.807 -0.3763  0.1939 -0.1531
    8MOL   C722 7316   6.936   3.871   6.865 -0.5095  0.1905  0.2958
    8MOL   C723 7317   6.945   3.853   7.004 -0.6706  0.2242 -0.3844
    8MOL   C724 7318   6.957   3.969   7.092  0.3718 -0.0004  0.1534
    8MOL   C725 7319   6.968   3.966   7.237  0.5188 -0.2209 -0.4806
    8MOL   O726 7320   6.973   4.071   7.311 -0.4040 -0.5338 -0.2911
    8MOL   O727 7321   6.950   3.846   7.286 -0.3557  0.2044  0.1524
    8MOL   C728 7322   6.957   4.093   7.026  0.2356  0.4001 -0.6017
    8MOL   C729 7323   6.940   4.112   6.886 -0.1889 -0.1325  0.1802
    8MOL   H730 7324   6.316   4.440   5.744 -0.9637 -0.3196 -0.0847
    8MOL   H731 7325   6.388   4.319   5.841  0.4065  3.1357  1.8120
    8MOL   H732 7326   6.546   4.546   5.731  0.3544 -1.0731 -1.6200
    8MOL   H733 7327   6.623   4.396   5.751  2.0478  3.6421  0.0815
    8MOL   H734 7328   6.475   4.531   5.982  0.8977  1.1875  0.0217
    8MOL   H735 7329   6.548   4.372   5.983  2.3043  1.0630  1.6615
    8MOL   H736 7330   6.705   4.632   5.956  0.1872  0.4116  1.4012
    8MOL   H737 7331   6.769   4.472   5.906 -0.7145  0.4808 -0.8825
    8MOL   H738 7332   6.663   4.501   6.181 -1.2835 -3.2269 -0.6863
    8MOL   H739 7333   6.757   4.371   6.099  2.1378  0.3218  1.6610
    8MOL   H740 7334   6.955   4.541   6.096 -0.7116  0.3320  0.2696
    8MOL   H741 7335   6.848   4.662   6.150 -0.2010  0.1543 -1.3426
    8MOL   H742 7336   6.985   4.588   6.331 -1.0024  0.5207  0.4029
    8MOL   H743 7337   6.824   4.519   6.363 -0.0616  0.0971 -0.1426
    8MOL   H744 7338   6.870   4.306   6.277  0.9591 -0.6719  1.2524
    8MOL   H745 7339   7.044   4.352   6.252 -0.4057 -1.4353  0.3584
    8MOL   H746 7340   6.904   4.368   6.521 -0.0893  1.2257 -1.2287
    8MOL   H747 7341   7.080   4.362   6.494  0.2660  0.1191 -1.8225
    8MOL   H748 7342   7.085   4.130   6.429 -0.4606 -0.9270  0.2917
    8MOL   H749 7343   6.912   4.126   6.414 -1.1863  0.6945  0.2961
    8MOL   H750 7344   6.930   3.782   6.804  3.7858 -1.3611  1.9425
    8MOL   H751 7345   6.945   3.759   7.057  0.3912  1.5904  2.0915
    8MOL   H752 7346   6.983   4.175   7.091  0.0032 -0.7415  0.9744
    8MOL   H753 7347   6.956   4.215   6.855  0.1095 -0.2361 -0.0177
    8MOL   O754 7348   6.943   3.832   7.441  0.3910  0.2680  0.0857
    8MOL   C755 7349   6.811   3.789   7.481  0.2939  0.4878  0.2372
    8MOL   C756 7350   6.786   3.823   7.629 -0.2008 -0.1384  0.0364
    8MOL   C757 7351   6.649   3.798   7.676  0.7798  0.2737 -0.1837
    8MOL   C758 7352   6.629   3.814   7.833 -0.0889  0.8626  1.0054
    8MOL   C759 7353   6.476   3.805   7.868  0.1321  0.4997 -0.2816
    8MOL   C760 7354   6.438   3.662   7.851 -0.2792  0.0360  0.1111
    8MOL   C761 7355   6.309   3.618   7.918 -0.3519 -0.3627 -1.2621
    8MOL   C762 7356   6.252   3.500   7.841  0.2290 -0.8925  0.1343
    8MOL   C763 7357   6.337   3.370   7.862  0.3006 -0.5499  0.3908
    8MOL   C764 7358   6.318   3.261   7.752 -0.6225  0.8342  0.2826
    8MOL   O765 7359   6.393   3.309   7.634  0.1875  0.5507  0.4728
    8MOL   C766 7360   6.464   3.218   7.561  0.6939 -1.0036  0.1748
    8MOL   O767 7361   6.465   3.092   7.577 -0.6790  0.3732 -0.3631
    8MOL   C768 7362   6.531   3.288   7.446 -0.1047  0.3410 -0.5834
    8MOL   C769 7363   6.600   3.208   7.345  0.3266 -0.0063 -0.1431
    8MOL   C770 7364   6.666   3.267   7.238 -0.0010 -0.2925  0.1156
    8MOL   C771 7365   6.662   3.410   7.217  0.3601  0.2741  0.5888
    8MOL   C772 7366   6.731   3.480   7.106 -0.3959  0.4342 -0.3933
    8MOL   O773 7367   6.764   3.600   7.108  0.1612 -0.5254 -0.2575
    8MOL   O774 7368   6.749   3.397   7.000  0.2905  0.1688  0.2865
    8MOL   C775 7369   6.580   3.485   7.310 -0.4467 -0.7555 -0.2209
    8MOL   C776 7370   6.530   3.430   7.431  0.5721 -0.1207 -0.5407
    8MOL   H777 7371   6.748   3.833   7.404 -0.0433 -0.7721 -0.2175
    8MOL   H778 7372   6.814   3.681   7.466 -1.3268  0.5822 -0.9102
    8MOL   H779 7373   6.801   3.931   7.634 -0.4873 -0.0788 -0.3852
    8MOL   H780 7374   6.862   3.776   7.691 -0.1846 -0.2995 -0.1085
    8MOL   H781 7375   6.579   3.869   7.630 -0.5963 -1.7328 -1.2669
    8MOL   H782 7376   6.604   3.702   7.648 -0.4949  0.4729  1.1099
    8MOL   H783 7377   6.669   3.908   7.870  1.2285  0.8667 -0.3958
    8MOL   H784 7378   6.695   3.743   7.882  0.8928 -0.1791 -1.7563
    8MOL   H785 7379   6.473   3.841   7.971  0.7410  1.2202 -0.5052
    8MOL   H786 7380   6.415   3.868   7.805  1.5361  0.2673 -1.9123
    8MOL   H787 7381   6.434   3.635   7.745  0.2656  1.6177 -0.3359
    8MOL   H788 7382   6.515   3.599   7.894  0.7850  1.5211  0.4209
    8MOL   H789 7383   6.314   3.599   0.048  1.6569  1.6431 -0.9859
    8MOL   H790 7384   6.244   3.705   7.921  0.0941 -0.0520 -0.2930
    8MOL   H791 7385   6.145   3.489   7.859  0.4781  0.3963  2.5202
    8MOL   H792 7386   6.250   3.525   7.734  2.0898 -0.3954  0.2000
    8MOL   H793 7387   6.317   3.314   7.953 -0.0735 -0.1851  0.5351
    8MOL   H794 7388   6.442   3.391   7.885  0.1814  0.1161  0.3495
    8MOL   H795 7389   6.215   3.243   7.721 -0.6904 -0.0265  0.9686
    8MOL   H796 7390   6.365   3.168   7.785  2.9598  1.8914 -1.6940
    8MOL   H797 7391   6.606   3.102   7.362  1.0613  0.0788  0.1459
    8MOL   H798 7392   6.724   3.206   7.170  0.1516 -0.7691  0.6704
    8MOL   H799 7393   6.576   3.592   7.303  0.0154 -0.7053  0.2649
    8MOL   H800 7394   6.492   3.502   7.502 -1.2951 -0.2609 -1.3626
    8MOL   O801 7395   6.863   3.445   6.914  0.4335 -0.1779  0.2167
    8MOL   C802 7396   6.975   3.369   6.957  0.2819 -0.0585 -0.3111
    8MOL   C803 7397   7.087   3.399   6.857  0.3736  0.1380 -0.4548
    8MOL   C804 7398   7.124   3.551   6.868 -0.1282  0.2814 -0.2739
    8MOL   C805 7399   7.242   3.587   6.771 -0.0654  0.6519 -0.8963
    8MOL   C806 7400   7.291   3.728   6.806  0.2491  0.0819  0.1846
    8MOL   C807 7401   7.359   3.798   6.692 -0.3217 -0.3987 -0.2410
    8MOL   C808 7402   7.412   3.936   6.717  0.2035 -0.4438  0.5249
    8MOL   C809 7403   7.308   4.039   6.722 -0.6794  0.2260 -0.7324
    8MOL   C810 7404   7.368   4.178   6.737 -0.4876 -0.4505 -0.0152
    8MOL   C811 7405   7.260   4.278   6.792 -0.0927 -0.1870 -0.4868
    8MOL   O812 7406   7.315   4.410   6.801  0.5244  0.0110 -0.2804
    8MOL   C813 7407   7.246   4.495   6.890 -0.0606 -0.0527  0.0824
    8MOL   O814 7408   7.138   4.468   6.941 -0.4342 -0.0757 -0.1933
    8MOL   C815 7409   7.317   4.624   6.904  0.3462  0.1303 -0.1544
    8MOL   C816 7410   7.398   4.681   6.805 -0.5746  0.4878 -0.1658
    8MOL   C817 7411   7.454   4.810   6.815 -0.1846  0.2666 -0.3441
    8MOL   C818 7412   7.415   4.892   6.922  0.0541  0.6196 -0.2088
    8MOL   C819 7413   7.461   5.037   6.935  0.0943 -0.1010 -0.5296
    8MOL   O820 7414   7.533   5.093   6.855 -0.3755  0.3473 -0.0555
    8MOL   O821 7415   7.407   5.107   7.053  0.6182  0.0426 -0.0617
    8MOL   C822 7416   7.341   4.830   7.023 -0.1619  0.6250  0.1705
    8MOL   C823 7417   7.289   4.701   7.016  0.2329 -0.3041 -0.1870
    8MOL   H824 7418   7.013   3.398   7.055  0.6426  0.4397 -0.5934
    8MOL   H825 7419   6.964   3.261   6.964 -1.3145  0.0416 -1.0309
    8MOL   H826 7420   7.064   3.373   6.753  0.9268  0.9703 -0.7894
    8MOL   H827 7421   7.174   3.339   6.884  0.0567  0.2369  0.8140
    8MOL   H828 7422   7.033   3.605   6.840 -0.8846  0.0044  1.5746
    8MOL   H829 7423   7.159   3.564   6.970 -0.0562 -0.7878 -0.1595
    8MOL   H830 7424   7.219   3.573   6.665  0.3887 -1.2158 -0.7686
    8MOL   H831 7425   7.318   3.511   6.788 -0.6967 -0.0062 -1.0164
    8MOL   H832 7426   7.202   3.785   6.833  0.8056  1.3576 -0.6854
    8MOL   H833 7427   7.353   3.724   6.896 -0.0419 -1.3643  0.3505
    8MOL   H834 7428   7.443   3.735   6.662 -0.6007 -0.7578 -0.2806
    8MOL   H835 7429   7.294   3.802   6.604 -1.6287 -0.2816  0.7051
    8MOL   H836 7430   7.464   3.934   6.812 -0.0291  0.4399  0.6764
    8MOL   H837 7431   7.482   3.953   6.634  1.4051 -3.5629  0.8283
    8MOL   H838 7432   7.256   4.042   6.627  0.3242  3.0403 -1.2450
    8MOL   H839 7433   7.242   4.029   6.808  0.4109  0.3911  0.1336
    8MOL   H840 7434   7.407   4.199   6.638  2.5043 -2.6846  0.6259
    8MOL   H841 7435   7.463   4.182   6.789 -0.3069 -0.3933 -0.3520
    8MOL   H842 7436   7.219   4.247   6.888 -1.0020 -0.4379 -0.9496
    8MOL   H843 7437   7.183   4.286   6.715 -1.5917 -1.3012  0.8596
    8MOL   H844 7438   7.422   4.629   6.714  2.5716  0.8271  0.4312
    8MOL   H845 7439   7.511   4.848   6.731 -1.4992 -0.3901 -1.5547
    8MOL   H846 7440   7.320   4.892   7.109 -1.6631  0.8776 -0.3615
    8MOL   H847 7441   7.233   4.655   7.096  0.5758 -0.9456 -0.3087
    8MOL   O848 7442   7.436   5.254   7.053 -0.4209 -0.5127 -0.1422
    8MOL   C849 7443   7.311   5.323   7.075  0.4639 -0.6504 -0.6488
    8MOL   C850 7444   7.327   5.479   7.057  0.8795  0.3964 -0.2411
    8MOL   C851 7445   7.194   5.555   7.050 -0.5743  0.4901 -0.0544
    8MOL   C852 7446   7.206   5.704   7.018 -0.2923 -0.0585  0.5698
    8MOL   C853 7447   7.244   5.734   6.878 -0.7815  0.2969 -0.0540
    8MOL   C854 7448   7.250   5.883   6.857 -0.3891 -0.5091  0.1404
    8MOL   C855 7449   7.365   5.945   6.934 -0.1079  0.1271 -0.5556
    8MOL   C856 7450   7.420   6.064   6.860 -0.2038  0.7039 -1.1442
    8MOL   C857 7451   7.534   6.137   6.943 -0.0690 -0.1582 -1.1087
    8MOL   C858 7452   7.601   6.254   6.864 -0.1779 -0.1323  1.2084
    8MOL   O859 7453   7.690   6.321   6.950  0.6768 -0.4290 -0.1424
    8MOL   C860 7454   7.764   6.428   6.917  0.3788 -0.4144  0.3060
    8MOL   O861 7455   7.740   6.484   6.808 -0.3280 -0.1561 -0.6451
    8MOL   C862 7456   7.856   6.482   7.021 -1.2535 -0.8468 -0.5578
    8MOL   C863 7457   7.963   6.575   6.987 -0.1974  0.1153  0.8122
    8MOL   C864 7458   0.068   6.616   7.093  0.5000  0.1516  0.0550
    8MOL   C865 7459   0.051   6.591   7.228  0.3422 -0.0486  0.5050
    8MOL   C866 7460   0.141   6.636   7.335  0.3725 -0.5056 -0.2020
    8MOL   O867 7461   0.107   6.618   7.453  0.1055 -0.1039  0.4523
    8MOL   O868 7462   0.259   6.683   7.292 -0.3876  0.1306  0.2126
    8MOL   C869 7463   7.916   6.514   7.253  0.4972  0.1032 -0.2877
    8MOL   C870 7464   7.832   6.456   7.156 -0.5732 -0.3254  0.2792
    8MOL   H871 7465   7.229   5.292   7.011  1.8672 -2.1186 -1.7521
    8MOL   H872 7466   7.282   5.307   7.179 -0.3742 -0.3594 -0.8296
    8MOL   H873 7467   7.392   5.500   6.972  0.5649 -0.5895 -0.7303
    8MOL   H874 7468   7.373   5.525   7.145  0.2552 -0.5252  0.5828
    8MOL   H875 7469   7.131   5.501   6.979 -1.1837  0.1197  0.7643
    8MOL   H876 7470   7.147   5.542   7.147 -0.7511 -0.4492 -0.2527
    8MOL   H877 7471   7.275   5.742   7.093  0.7477  1.1873 -0.9912
    8MOL   H878 7472   7.105   5.742   7.036  0.0573  1.0399  0.2455
    8MOL   H879 7473   7.341   5.690   6.854 -1.5606 -0.5054 -1.8309
    8MOL   H880 7474   7.173   5.689   6.808 -1.3840  2.0184 -0.5812
    8MOL   H881 7475   7.243   5.921   6.755 -0.8451 -1.6570 -0.2715
    8MOL   H882 7476   7.155   5.924   6.892  0.4296  0.6483  0.9969
    8MOL   H883 7477   7.338   5.970   7.037 -1.7433 -2.0491 -0.4097
    8MOL   H884 7478   7.440   5.867   6.948 -0.3402  0.0371  0.2213
    8MOL   H885 7479   7.458   6.037   6.762 -2.7947  0.4302 -2.0846
    8MOL   H886 7480   7.336   6.133   6.854 -0.7539  0.0883 -0.5544
    8MOL   H887 7481   7.620   6.080   6.979 -0.9413 -0.2274  0.9138
    8MOL   H888 7482   7.487   6.173   7.034 -1.8274 -1.1816 -1.5792
    8MOL   H889 7483   7.533   6.325   6.817 -0.9958 -1.2144  0.7357
    8MOL   H890 7484   7.653   6.222   6.774  0.2827 -0.3521  1.5518
    8MOL   H891 7485   7.969   6.618   6.888  0.2266  1.3607  1.3665
    8MOL   H892 7486   0.150   6.673   7.052  1.0087 -1.7426 -1.6326
    8MOL   H893 7487   7.880   6.488   7.351 -1.1089  3.6800  0.1655
    8MOL   H894 7488   7.742   6.402   7.182 -0.3145  0.1503  2.1968
    8MOL   O895 7489   0.331   6.745   7.404 -0.4635 -0.0786 -0.4521
    8MOL   C896 7490   0.440   6.666   7.432 -0.6618  1.0642 -0.5582
    8MOL   C897 7491   0.417   6.636   7.585  0.0322 -0.0372  0.2955
    8MOL   C898 7492   0.540   6.589   7.668  0.4313  0.1719  0.0479
    8MOL   C899 7493   0.506   6.576   7.821  0.5880  0.8946 -0.5727
    8MOL   C900 7494   0.388   6.487   7.855  0.0664 -0.0175  0.0713
    8MOL   C901 7495   0.364   6.495   0.022  0.3391 -0.0841  0.2892
    8MOL   C902 7496   0.240   6.419   0.071  0.0856  0.5341 -0.0023
    8MOL   C903 7497   0.246   6.362   0.213  0.6509 -0.2340 -0.3498
    8MOL   C904 7498   0.229   6.472   0.325 -0.7009 -0.6035 -0.2145
    8MOL   C905 7499   0.207   6.414   0.468  0.1928  0.4580  0.7285
    8MOL   O906 7500   0.075   6.359   0.477  0.4420  0.4988 -0.1108
    8MOL   C907 7501   0.046   6.266   0.574  0.5273  0.2599  0.3388
    8MOL   O908 7502   0.124   6.243   0.665 -0.0637  0.2167 -0.2135
    8MOL   C909 7503   7.891   6.198   0.554  0.3197 -0.5531 -0.7904
    8MOL   C910 7504   7.850   6.095   0.644 -0.2477  0.4398 -0.2757
    8MOL   C911 7505   7.726   6.027   0.619  0.0967  0.1313 -0.7481
    8MOL   C912 7506   7.646   6.064   0.516  0.0154 -1.4562  0.5961
    8MOL   C913 7507   7.518   5.988   0.482  0.3071  0.3084 -0.1784
    8MOL   O914 7508   7.421   6.039   0.430 -0.0866 -0.1134  0.4200
    8MOL   O915 7509   7.514   5.854   0.514  0.1573 -0.3359  0.6937
    8MOL   C916 7510   7.689   6.169   0.428 -0.0186  0.8304 -0.2277
    8MOL   C917 7511   7.807   6.234   0.444 -0.9744  0.1405 -0.4699
    8MOL   H918 7512   0.456   6.575   7.375 -0.2650 -1.2636  3.1274
    8MOL   H919 7513   0.536   6.716   7.421  0.4295 -0.7384  0.5573
    8MOL   H920 7514   0.339   6.561   7.595 -1.3498  0.8235 -3.4310
    8MOL   H921 7515   0.379   6.729   7.627  0.9561  1.1892 -1.5323
    8MOL   H922 7516   0.583   6.496   7.629 -0.6639 -0.0720 -0.6042
    8MOL   H923 7517   0.621   6.661   7.667  0.2288  0.4321  1.3827
    8MOL   H924 7518   0.483   6.679   7.848 -1.6333  0.4377 -0.5803
    8MOL   H925 7519   0.600   6.542   7.863 -0.3029  0.4651  1.1012
    8MOL   H926 7520   0.296   6.528   7.813  0.1214  1.7482  1.6306
    8MOL   H927 7521   0.416   6.390   7.816 -1.9558 -0.0115 -1.4778
    8MOL   H928 7522   0.454   6.463   0.074  0.4322 -0.8986 -0.3621
    8MOL   H929 7523   0.344   6.595   0.062 -1.5276  0.9784 -3.0829
    8MOL   H930 7524   0.150   6.480   0.058  0.5596  1.1204 -0.5358
    8MOL   H931 7525   0.230   6.326   0.015  2.1272  0.0152  0.4652
    8MOL   H932 7526   0.169   6.284   0.221 -0.3132  0.8073  0.6666
    8MOL   H933 7527   0.342   6.317   0.239  0.9812  0.9658  0.5335
    8MOL   H934 7528   0.137   6.527   0.306 -0.2232  0.2673 -0.0901
    8MOL   H935 7529   0.320   6.533   0.321 -0.8109 -0.4479 -0.3724
    8MOL   H936 7530   0.208   6.485   0.550 -0.4720  0.8002  0.4457
    8MOL   H937 7531   0.284   6.340   0.487 -2.7778 -3.3286 -1.2911
    8MOL   H938 7532   7.924   6.075   0.721 -0.2713  2.0456  0.1820
    8MOL   H939 7533   7.695   5.947   0.685 -0.5797  0.4674 -0.6587
    8MOL   H940 7534   7.621   6.196   0.348 -0.2473 -2.9839 -1.4412
    8MOL   H941 7535   7.838   6.308   0.372 -0.2049 -2.0309 -2.4367
    8MOL   H942 7536   7.429   5.816   0.496  0.4377 -0.6024 -0.0965
    9MOL     O1 7537   4.085   6.936   6.768 -0.4171  0.1950 -0.4136
    9MOL     C2 7538   4.230   6.927   6.781 -0.8691 -0.0551 -0.4905
    9MOL     C3 7539   4.264   6.973   6.922  0.0404 -0.9015  0.4439
    9MOL     C4 7540   4.248   7.126   6.943  0.2370  0.3304 -0.3009
    9MOL     C5 7541   4.359   7.212   6.872 -0.3087  0.1613 -0.1889
    9MOL     C6 7542   4.337   7.367   6.877  0.3063 -0.2529  0.8016
    9MOL     C7 7543   4.447   7.447   6.801 -0.6560  0.1324 -0.2399
    9MOL     C8 7544   4.535   7.532   6.900  0.6587  0.3166 -0.8363
    9MOL     C9 7545   4.635   7.447   6.978 -0.1914  0.2571 -0.1246
    9MOL    C10 7546   4.751   7.401   6.885 -0.2704 -0.2714  0.2809
    9MOL    C11 7547   4.840   7.290   6.944 -0.1454 -0.0135  0.6561
    9MOL    O12 7548   4.769   7.166   6.958  0.3010 -0.3582  0.2972
    9MOL    C13 7549   4.747   7.093   6.851 -0.5629 -0.3540 -0.1320
    9MOL    O14 7550   4.758   7.132   6.735  0.1678 -0.3954  0.3711
    9MOL    C15 7551   4.697   6.959   6.881 -0.2566  0.5245  0.5211
    9MOL    C16 7552   4.704   6.896   7.006  0.1517  1.0048 -0.5249
    9MOL    C17 7553   4.658   6.762   7.021  1.2747 -0.4202  0.6683
    9MOL    C18 7554   4.590   6.700   6.915  0.3681 -0.5702  0.3114
    9MOL    C19 7555   4.523   6.563   6.941  0.6840 -0.2761 -1.0567
    9MOL    O20 7556   4.523   6.504   7.047  0.2462 -0.2517 -0.1993
    9MOL    O21 7557   4.459   6.518   6.826 -0.3039  0.4221  0.1250
    9MOL    C22 7558   4.577   6.770   6.788 -0.0953  0.2102 -1.0746
    9MOL    C23 7559   4.631   6.896   6.774 -0.2807 -0.3828 -0.0240
    9MOL    H24 7560   4.252   6.822   6.763 -0.7942 -0.0581 -0.3856
    9MOL    H25 7561   4.278   6.989   6.706  0.4550  1.0523  1.2143
    9MOL    H26 7562   4.369   6.947   6.932 -0.2373 -2.4401 -0.4542
    9MOL    H27 7563   4.212   6.911   6.995  0.0279 -0.8006  0.5197
    9MOL    H28 7564   4.157   7.174   6.907 -0.0071  0.5578  0.6089
    9MOL    H29 7565   4.245   7.155   7.048 -3.0537  0.6923 -0.4310
    9MOL    H30 7566   4.377   7.181   6.770  1.5934  2.2323 -0.5235
    9MOL    H31 7567   4.455   7.188   6.918  0.4960  2.1082 -0.8225
    9MOL    H32 7568   4.232   7.381   6.849  0.8772  1.1983 -0.7174
    9MOL    H33 7569   4.341   7.385   6.985  0.5260 -1.1775  0.9478
    9MOL    H34 7570   4.500   7.378   6.736  1.4153  0.2089  1.3242
    9MOL    H35 7571   4.396   7.512   6.729 -1.3478  0.1210  0.2385
    9MOL    H36 7572   4.600   7.603   6.849  0.3725  0.5008 -0.9531
    9MOL    H37 7573   4.469   7.596   6.959 -0.5055 -0.4107 -1.3159
    9MOL    H38 7574   4.679   7.511   7.054  0.9234  1.1030 -1.4530
    9MOL    H39 7575   4.592   7.359   7.025  1.1224 -1.2018 -1.6033
    9MOL    H40 7576   4.810   7.488   6.857 -1.6341  1.0824  1.4809
    9MOL    H41 7577   4.713   7.370   6.788  3.1568  1.1708 -1.5958
    9MOL    H42 7578   4.876   7.318   7.043  0.2501 -0.1190  0.5435
    9MOL    H43 7579   4.931   7.269   6.888 -0.6797  1.5474 -0.8269
    9MOL    H44 7580   4.759   6.937   7.089  2.8325 -0.1856 -1.6443
    9MOL    H45 7581   4.664   6.711   7.116 -2.9320 -1.7516  0.3046
    9MOL    H46 7582   4.518   6.717   6.714 -0.5542 -0.7478 -0.0406
    9MOL    H47 7583   4.614   6.943   6.678  3.1544 -0.3866 -0.7208
    9MOL    H48 7584   4.055   6.924   6.679 -1.8937  0.5995  0.0181
    9MOL    O49 7585   4.371   6.399   6.858 -0.3217 -0.1390 -0.1991
    9MOL    C50 7586   4.434   6.285   6.801 -0.1231 -0.6907 -0.3336
    9MOL    C51 7587   4.397   6.158   6.875 -0.5110  0.0152  0.7150
    9MOL    C52 7588   4.398   6.184   7.025  0.6137 -0.2485  0.1302
    9MOL    C53 7589   4.334   6.071   7.098  0.2721  0.0521  0.4445
    9MOL    C54 7590   4.382   6.051   7.243 -0.0580  0.0142 -0.6320
    9MOL    C55 7591   4.320   5.930   7.317  0.1518  0.3597 -0.1722
    9MOL    C56 7592   4.406   5.876   7.429  0.1354 -0.3415 -0.2927
    9MOL    C57 7593   4.355   5.738   7.468  0.1528 -0.5864  0.2194
    9MOL    C58 7594   4.453   5.662   7.560 -0.6837  0.2156 -1.3320
    9MOL    C59 7595   4.380   5.546   7.625  0.4780  0.1526 -0.8583
    9MOL    O60 7596   4.283   5.601   7.709  0.2133 -0.5119 -0.3163
    9MOL    C61 7597   4.230   5.519   7.803  0.1165 -0.5260  0.1553
    9MOL    O62 7598   4.270   5.406   7.823  0.1916  0.0293  0.0984
    9MOL    C63 7599   4.104   5.580   7.868 -0.7343  0.2294  0.2076
    9MOL    C64 7600   4.055   5.545   0.012  0.5719 -0.2683 -0.0672
    9MOL    C65 7601   3.928   5.602   0.056 -0.4905 -0.4827  0.0893
    9MOL    C66 7602   3.854   5.692   7.954 -0.2264  1.0074  0.4889
    9MOL    C67 7603   3.729   5.750   0.032  0.2131 -0.1746 -1.1341
    9MOL    O68 7604   3.690   5.718   0.146 -0.6205  0.1167  0.1829
    9MOL    O69 7605   3.664   5.833   7.933 -0.2905 -0.0514  0.2486
    9MOL    C70 7606   3.911   5.729   7.835 -0.2941  0.8810  0.3508
    9MOL    C71 7607   4.030   5.673   7.790  0.0518 -0.0124  0.3045
    9MOL    H72 7608   4.414   6.270   6.695 -0.9811 -0.0238 -0.2737
    9MOL    H73 7609   4.541   6.307   6.802 -0.4357  0.8652 -0.4070
    9MOL    H74 7610   4.451   6.066   6.854 -0.2623 -0.1141  1.8621
    9MOL    H75 7611   4.293   6.140   6.851  0.5847 -1.6598 -3.0979
    9MOL    H76 7612   4.502   6.202   7.053  0.7610 -0.8139 -0.0505
    9MOL    H77 7613   4.368   6.281   7.066  1.3658  0.7949 -1.7243
    9MOL    H78 7614   4.353   5.986   7.032  0.7404  2.5451 -2.7806
    9MOL    H79 7615   4.226   6.085   7.102  0.4185  2.0195 -1.4026
    9MOL    H80 7616   4.490   6.037   7.240 -0.0945  0.0201 -5.3182
    9MOL    H81 7617   4.351   6.143   7.292 -0.0914 -1.0218  1.3452
    9MOL    H82 7618   4.226   5.971   7.355 -0.5805 -1.1126 -0.3399
    9MOL    H83 7619   4.304   5.856   7.238  1.4683  1.2591 -1.2869
    9MOL    H84 7620   4.505   5.874   7.383 -0.0482  2.5468 -0.9510
    9MOL    H85 7621   4.407   5.944   7.514 -0.6418 -1.6847  0.8214
    9MOL    H86 7622   4.253   5.753   7.505  0.3715  0.0178  0.5631
    9MOL    H87 7623   4.352   5.665   7.386  0.1976 -0.0626 -0.2529
    9MOL    H88 7624   4.488   5.736   7.632 -1.1633 -1.5232  0.7497
    9MOL    H89 7625   4.536   5.636   7.495  1.0661  2.5224 -0.1038
    9MOL    H90 7626   4.456   5.488   7.678 -0.3099 -1.7304 -1.7470
    9MOL    H91 7627   4.332   5.490   7.545  0.7424  2.0026 -2.3281
    9MOL    H92 7628   4.101   5.465   0.068  0.7895 -0.4514 -0.5000
    9MOL    H93 7629   3.894   5.576   0.155  0.9547  0.9798  0.9947
    9MOL    H94 7630   3.859   5.798   7.772  0.9133 -0.8416 -2.6282
    9MOL    H95 7631   4.074   5.715   7.701 -0.5412 -0.6257 -0.2805
    9MOL    O96 7632   3.512   5.864   7.962  0.4898  0.0156  0.2035
    9MOL    C97 7633   3.427   5.765   7.904  0.3592 -0.6392  0.0638
    9MOL    C98 7634   3.428   5.780   7.745 -0.0632  1.5183 -0.8030
    9MOL    C99 7635   3.408   5.921   7.691  0.7963  0.2744  0.3657
    9MOL   C100 7636   3.477   5.949   7.557 -0.9153 -0.1790 -0.4526
    9MOL   C101 7637   3.464   6.087   7.509  0.3487 -0.3274 -0.0601
    9MOL   C102 7638   3.525   6.122   7.373  0.2337 -0.3812 -0.1274
    9MOL   C103 7639   3.499   6.269   7.335 -0.5291 -0.1379 -0.3768
    9MOL   C104 7640   3.555   6.301   7.193  0.1645 -0.4491  0.3094
    9MOL   C105 7641   3.469   6.248   7.072 -0.3831  0.3930 -0.3278
    9MOL   C106 7642   3.514   6.295   6.929  0.3131 -0.9182 -0.6155
    9MOL   O107 7643   3.454   6.418   6.903  0.3124 -0.0702  0.7377
    9MOL   C108 7644   3.496   6.501   6.811  1.5101  0.2329 -0.2418
    9MOL   O109 7645   3.583   6.468   6.737 -0.3326 -0.6920 -0.5750
    9MOL   C110 7646   3.423   6.628   6.805  0.3118 -0.1805  0.4685
    9MOL   C111 7647   3.331   6.669   6.901  0.1412  0.1351  0.2106
    9MOL   C112 7648   3.260   6.785   6.893  0.1253 -0.4334  1.3439
    9MOL   C113 7649   3.283   6.876   6.783  0.1292 -0.0324  0.5203
    9MOL   C114 7650   3.198   6.990   6.759  0.1652 -1.2017 -0.3650
    9MOL   O115 7651   3.198   7.054   6.651 -0.1710  0.2444  0.6130
    9MOL   O116 7652   3.130   7.025   6.868  0.0847  0.7982 -0.1003
    9MOL   C117 7653   3.376   6.834   6.682  0.0507 -0.0954 -0.2576
    9MOL   C118 7654   3.441   6.713   6.693  0.5654 -0.7096  0.0464
    9MOL   H119 7655   3.435   5.659   7.925  1.3138 -0.5323  0.2505
    9MOL   H120 7656   3.324   5.790   7.932  0.9586  1.4741  0.5257
    9MOL   H121 7657   3.352   5.709   7.710 -0.3137  0.8255  1.0991
    9MOL   H122 7658   3.525   5.748   7.709  0.2869  0.7342  0.7805
    9MOL   H123 7659   3.300   5.939   7.686  0.7372 -0.2339 -0.2077
    9MOL   H124 7660   3.454   5.991   7.760 -0.3257  0.1876  1.2064
    9MOL   H125 7661   3.447   5.872   7.486  0.8258 -2.3859  1.1258
    9MOL   H126 7662   3.580   5.913   7.563 -1.1150 -0.2912  3.6159
    9MOL   H127 7663   3.362   6.123   7.520  0.2532  0.6596 -3.6247
    9MOL   H128 7664   3.511   6.152   7.583  1.2275 -0.2122 -0.7097
    9MOL   H129 7665   3.631   6.097   7.382 -0.0456 -1.0623  1.2837
    9MOL   H130 7666   3.466   6.064   7.302  0.2551  0.0763 -0.5228
    9MOL   H131 7667   3.393   6.295   7.328 -0.6223  0.1308  1.7071
    9MOL   H132 7668   3.548   6.338   7.404  0.3610 -0.7084 -0.4332
    9MOL   H133 7669   3.547   6.409   7.176 -2.0627 -0.8844 -1.7652
    9MOL   H134 7670   3.662   6.282   7.186 -0.0746 -1.6008 -0.3344
    9MOL   H135 7671   3.362   6.261   7.087 -0.3584 -0.1858  0.3318
    9MOL   H136 7672   3.485   6.141   7.075 -0.5531  0.3915  0.4370
    9MOL   H137 7673   3.472   6.227   6.855 -0.0051 -2.2503  0.7615
    9MOL   H138 7674   3.621   6.300   6.913  0.7436  2.2190  2.6114
    9MOL   H139 7675   3.307   6.602   6.982  0.6978 -1.5742 -1.0063
    9MOL   H140 7676   3.181   6.801   6.965 -0.4557 -0.6892  0.7684
    9MOL   H141 7677   3.402   6.902   6.603 -0.8646 -4.0315 -4.1020
    9MOL   H142 7678   3.521   6.690   6.623  0.0251 -1.2992 -0.3861
    9MOL   O143 7679   3.050   7.144   6.861  0.4477  0.3018 -0.0099
    9MOL   C144 7680   2.922   7.102   6.818 -0.2310  0.3201  1.0495
    9MOL   C145 7681   2.848   7.026   6.929 -0.2603  0.7443 -0.7397
    9MOL   C146 7682   2.695   7.058   6.920  0.0298 -0.5226  0.6180
    9MOL   C147 7683   2.610   7.002   7.036 -0.3241  0.7444 -0.8855
    9MOL   C148 7684   2.617   7.077   7.170  0.3512 -1.4965 -0.0464
    9MOL   C149 7685   2.512   7.187   7.172  0.2954 -0.3910  0.2532
    9MOL   C150 7686   2.546   7.297   7.274  0.0164  0.2477  1.0689
    9MOL   C151 7687   2.499   7.277   7.415  0.7653  0.2691 -0.1141
    9MOL   C152 7688   2.344   7.295   7.432  0.2088 -0.0667 -0.2727
    9MOL   C153 7689   2.300   7.447   7.439  0.2271 -0.3248 -0.9227
    9MOL   O154 7690   2.289   7.499   7.312 -0.1213 -0.0435  0.2645
    9MOL   C155 7691   2.252   7.628   7.294  0.3922 -0.3849  0.1923
    9MOL   O156 7692   2.192   7.693   7.382  0.0248  0.3270  0.1746
    9MOL   C157 7693   2.304   7.686   7.165  0.2980  1.1970 -0.0015
    9MOL   C158 7694   2.342   7.612   7.053 -0.6972 -0.0458  0.1274
    9MOL   C159 7695   2.378   7.668   6.932 -0.1959  0.5932 -0.0452
    9MOL   C160 7696   2.377   7.808   6.921  0.4218 -0.6846  0.3097
    9MOL   C161 7697   2.402   7.875   6.789  0.0065 -0.1135  0.0497
    9MOL   O162 7698   2.401   0.019   6.779  0.5982 -0.4073  0.8224
    9MOL   O163 7699   2.433   7.780   6.688  0.1895 -0.5002  0.0102
    9MOL   C164 7700   2.343   7.884   7.036  0.0837 -0.4031 -0.0303
    9MOL   C165 7701   2.298   7.830   7.156 -0.2434  0.1223  0.7044
    9MOL   H166 7702   2.871   7.196   6.798 -0.7744 -0.2564 -0.3832
    9MOL   H167 7703   2.938   7.043   6.728  1.7699  0.8636  1.0357
    9MOL   H168 7704   2.871   7.052   7.033  1.3374  2.8548 -1.5870
    9MOL   H169 7705   2.868   6.920   6.914  1.6464  1.0191 -0.3385
    9MOL   H170 7706   2.677   7.165   6.928  0.5254 -0.4718  1.0747
    9MOL   H171 7707   2.649   7.037   6.823  0.2538  0.6966  0.2347
    9MOL   H172 7708   2.641   6.899   7.052  0.2280  1.0752  0.2660
    9MOL   H173 7709   2.503   6.997   7.019 -0.3949  0.4994 -0.3909
    9MOL   H174 7710   2.604   7.014   7.258 -0.2000 -3.5859 -1.5509
    9MOL   H175 7711   2.709   7.132   7.189 -1.0819  0.7661  0.5372
    9MOL   H176 7712   2.508   7.247   7.081  0.4207  0.4532  0.7939
    9MOL   H177 7713   2.413   7.149   7.198 -0.4535  0.7590 -0.7996
    9MOL   H178 7714   2.653   7.315   7.268  0.1861 -0.4544  1.9320
    9MOL   H179 7715   2.510   7.389   7.228 -0.7001 -3.0041 -5.6362
    9MOL   H180 7716   2.537   7.179   7.445 -0.6991 -0.0099  0.9358
    9MOL   H181 7717   2.556   7.349   7.473  1.2233  0.5786 -0.9511
    9MOL   H182 7718   2.310   7.241   7.521 -1.5231 -1.0869 -1.5208
    9MOL   H183 7719   2.305   7.249   7.342 -0.4887  2.6022 -1.3967
    9MOL   H184 7720   2.369   7.516   7.487 -1.2402 -0.3739  1.3317
    9MOL   H185 7721   2.201   7.460   7.484  1.1085  1.8042  0.4853
    9MOL   H186 7722   2.341   7.505   7.065  1.0129 -0.0053  0.6804
    9MOL   H187 7723   2.399   7.600   6.851  1.3760  2.5642 -1.3746
    9MOL   H188 7724   2.347   0.013   7.032 -1.8681 -0.2754  0.9237
    9MOL   H189 7725   2.268   7.895   7.237 -0.9202  0.6288  0.0610
    9MOL   O190 7726   2.484   7.837   6.559 -0.4125 -0.0764  0.9784
    9MOL   C191 7727   2.389   7.830   6.452 -0.3300  0.2843  0.3247
    9MOL   C192 7728   2.460   7.807   6.315 -0.0410 -0.1749 -0.1033
    9MOL   C193 7729   2.546   7.675   6.299 -0.6645  0.1545  0.1389
    9MOL   C194 7730   2.599   7.641   6.158 -0.1231  0.5396 -0.0933
    9MOL   C195 7731   2.717   7.530   6.159  0.4033  0.2405  0.7868
    9MOL   C196 7732   2.743   7.472   6.020 -0.3582 -0.2250 -0.1465
    9MOL   C197 7733   2.864   7.381   6.024 -0.4194  0.8421 -0.2164
    9MOL   C198 7734   2.905   7.328   5.884 -0.0122 -0.6118  0.3784
    9MOL   C199 7735   2.991   7.196   5.881  0.5101 -0.4342 -0.0677
    9MOL   C200 7736   3.017   7.160   5.739 -0.4379  0.5073  0.2282
    9MOL   O201 7737   3.120   7.059   5.720 -0.0140  0.0596  0.3808
    9MOL   C202 7738   3.095   6.957   5.625  0.0177 -0.8328 -0.0314
    9MOL   O203 7739   2.986   6.944   5.571  0.2960  0.2439  0.0771
    9MOL   C204 7740   3.209   6.863   5.597  0.3499 -0.1821 -0.3814
    9MOL   C205 7741   3.183   6.764   5.499 -0.4225 -0.2717  0.1994
    9MOL   C206 7742   3.285   6.669   5.477  0.0560 -0.2886 -0.4717
    9MOL   C207 7743   3.415   6.680   5.537 -0.0753 -0.0071 -0.5779
    9MOL   C208 7744   3.515   6.579   5.499  0.3549 -0.3316 -0.1839
    9MOL   O209 7745   3.512   6.504   5.405  0.4297 -0.8017 -0.0166
    9MOL   O210 7746   3.612   6.562   5.596 -0.2886  0.2964 -0.3631
    9MOL   C211 7747   3.433   6.783   5.633 -0.2271 -0.4516 -0.1363
    9MOL   C212 7748   3.334   6.874   5.661 -0.2510 -0.7890  0.2063
    9MOL   H213 7749   2.312   7.758   6.479 -0.9459  0.6621 -0.3693
    9MOL   H214 7750   2.340   7.927   6.466  2.5936  2.5177 -3.7938
    9MOL   H215 7751   2.526   7.892   6.300 -2.0793  1.5600  0.5457
    9MOL   H216 7752   2.380   7.810   6.241  1.8013 -0.8651 -2.1953
    9MOL   H217 7753   2.633   7.669   6.365 -0.9903 -1.6623  0.4384
    9MOL   H218 7754   2.479   7.598   6.337 -1.2255 -0.1458 -1.4472
    9MOL   H219 7755   2.651   7.727   6.115 -1.9627  2.3952  1.2858
    9MOL   H220 7756   2.514   7.611   6.098  0.9551 -2.8560 -0.0349
    9MOL   H221 7757   2.805   7.577   6.203  0.7055 -0.4381  0.9054
    9MOL   H222 7758   2.692   7.449   6.227  0.1175  1.9918  2.8255
    9MOL   H223 7759   2.655   7.423   5.979 -0.4565  0.5624 -0.8900
    9MOL   H224 7760   2.759   7.555   5.951  0.0957 -1.5181 -1.6332
    9MOL   H225 7761   2.952   7.433   6.061 -0.3896  1.6822 -1.4643
    9MOL   H226 7762   2.842   7.295   6.088  0.7592 -1.0164 -2.2525
    9MOL   H227 7763   2.817   7.302   5.826  1.1521 -0.8059 -1.3424
    9MOL   H228 7764   2.950   7.414   5.835 -2.0599  1.0864  1.3944
    9MOL   H229 7765   2.940   7.120   5.939 -1.0898  2.3406  2.2867
    9MOL   H230 7766   3.089   7.205   5.928 -0.3984  0.9055  1.6064
    9MOL   H231 7767   3.042   7.255   5.692 -1.1067  0.3509 -0.4564
    9MOL   H232 7768   2.921   7.134   5.693  0.6313 -1.9893 -0.7156
    9MOL   H233 7769   3.090   6.741   5.449 -0.0042 -1.2951 -0.1119
    9MOL   H234 7770   3.270   6.586   5.410  1.1013 -1.9753  1.3039
    9MOL   H235 7771   3.529   6.785   5.682  0.1736  0.3217 -0.9412
    9MOL   H236 7772   3.349   6.940   5.745  0.9464  0.3017 -0.8475
    9MOL   O237 7773   3.660   6.418   5.605  0.0044  0.5270 -0.2061
    9MOL   C238 7774   3.599   6.348   5.708 -0.1982  0.5120  0.4086
    9MOL   C239 7775   3.648   6.390   5.843 -0.3959 -0.8985 -0.1261
    9MOL   C240 7776   3.793   6.348   5.878 -0.0796 -0.2287 -0.3181
    9MOL   C241 7777   3.836   6.406   6.011  0.5355 -0.6096 -0.2484
    9MOL   C242 7778   3.971   6.341   6.049 -0.0217 -0.0375 -0.4133
    9MOL   C243 7779   4.017   6.405   6.188 -0.6448 -0.3492  0.7317
    9MOL   C244 7780   4.132   6.516   6.164  0.4409  0.5798  0.3938
    9MOL   C245 7781   4.095   6.645   6.095 -0.4149 -0.0534  0.7892
    9MOL   C246 7782   4.222   6.733   6.058  0.1070  0.3456  0.1913
    9MOL   C247 7783   4.296   6.692   5.934 -0.5635  0.4462 -0.0377
    9MOL   O248 7784   4.406   6.777   5.913  0.6108  0.0840 -0.1361
    9MOL   C249 7785   4.481   6.753   5.807  0.5729 -0.1907 -0.2454
    9MOL   O250 7786   4.452   6.675   5.711 -0.2399 -0.0226 -0.5151
    9MOL   C251 7787   4.612   6.831   5.808  0.6588 -0.6810 -0.0818
    9MOL   C252 7788   4.729   6.784   5.750  0.2351  0.1304 -0.1583
    9MOL   C253 7789   4.851   6.845   5.764  0.0027 -0.3970  0.3708
    9MOL   C254 7790   4.859   6.973   5.824  0.3622  0.5853  0.0763
    9MOL   C255 7791   4.983   7.055   5.802  0.6001  0.0543 -0.0735
    9MOL   O256 7792   4.988   7.174   5.830  0.1954 -0.0508 -0.2001
    9MOL   O257 7793   5.082   6.991   5.750  0.6414  0.5696  0.0733
    9MOL   C258 7794   4.741   7.023   5.884  0.2999 -0.2308  0.0953
    9MOL   C259 7795   4.626   6.948   5.889  0.2533  0.0602 -0.5252
    9MOL   H260 7796   3.492   6.362   5.694 -0.2047  1.9992  1.7197
    9MOL   H261 7797   3.632   6.244   5.702 -1.3396  0.1975 -0.4026
    9MOL   H262 7798   3.581   6.337   5.910  0.6007 -1.6125  0.3153
    9MOL   H263 7799   3.645   6.499   5.854 -0.0580 -0.9996  1.0614
    9MOL   H264 7800   3.794   6.241   5.898 -0.4039 -0.0252  0.8554
    9MOL   H265 7801   3.866   6.372   5.801  1.1200  0.0827  0.8928
    9MOL   H266 7802   3.763   6.373   6.085 -0.4163  1.4542 -0.2284
    9MOL   H267 7803   3.837   6.515   6.020 -0.7651 -0.6797  0.9140
    9MOL   H268 7804   3.966   6.234   6.069 -0.2017  0.4060  2.0938
    9MOL   H269 7805   4.053   6.338   5.977  0.6475  1.0968  0.2754
    9MOL   H270 7806   3.939   6.442   6.255 -1.4729 -0.8925  0.0785
    9MOL   H271 7807   4.049   6.317   6.243  0.2177 -0.0471  0.7099
    9MOL   H272 7808   4.169   6.540   6.263  2.0230 -0.1098 -0.0197
    9MOL   H273 7809   4.211   6.471   6.104 -1.0727 -1.3038 -0.2494
    9MOL   H274 7810   4.040   6.620   6.005 -0.6189 -0.5506  1.0510
    9MOL   H275 7811   4.019   6.697   6.154  0.8613  2.3766  0.3686
    9MOL   H276 7812   4.284   6.729   6.148  0.4238 -1.5294 -0.0870
    9MOL   H277 7813   4.194   6.838   6.056 -0.0403  0.3367  1.2166
    9MOL   H278 7814   4.218   6.698   5.857 -0.4710  0.8341 -0.1021
    9MOL   H279 7815   4.343   6.595   5.951  0.7589  1.0768 -0.0825
    9MOL   H280 7816   4.727   6.686   5.703  2.6794  0.3963 -0.8742
    9MOL   H281 7817   4.945   6.808   5.726  0.3141  1.4526 -0.6836
    9MOL   H282 7818   4.751   7.124   5.922  2.1691 -0.9046  1.4778
    9MOL   H283 7819   4.537   6.984   5.937  0.5028 -1.0735  0.8271
    9MOL   O284 7820   5.192   7.079   5.708 -0.2562 -0.5763 -0.3269
    9MOL   C285 7821   5.183   7.089   5.570  0.5249 -0.4970  0.1116
    9MOL   C286 7822   5.296   7.168   5.509 -0.6196  0.1980 -0.4883
    9MOL   C287 7823   5.273   7.319   5.529 -0.2451  0.1976 -0.7813
    9MOL   C288 7824   5.392   7.398   5.476  0.2948 -0.2867  0.0999
    9MOL   C289 7825   5.396   7.541   5.511 -0.1289  0.0615  0.1805
    9MOL   C290 7826   5.523   7.610   5.473  0.4341 -0.2071 -0.3518
    9MOL   C291 7827   5.544   7.761   5.498  0.2305  0.2876  0.4415
    9MOL   C292 7828   5.536   7.805   5.642  0.1361  0.1124 -0.3214
    9MOL   C293 7829   5.402   7.843   5.704  1.0082  0.3882  0.3308
    9MOL   C294 7830   5.353   0.006   5.695 -0.0238  0.1328 -0.0480
    9MOL   O295 7831   5.248   0.041   5.792  0.2231 -0.4678  0.1575
    9MOL   C296 7832   5.121   7.962   5.776  0.1742  0.3490 -0.1902
    9MOL   O297 7833   5.104   7.850   5.724  0.2894  0.0023 -0.3636
    9MOL   C298 7834   5.002   0.062   5.839  1.0298  0.1785  0.1503
    9MOL   C299 7835   5.025   0.179   5.915 -0.8870 -0.3605  0.2652
    9MOL   C300 7836   4.917   0.254   5.971  0.4184  0.6080 -0.1211
    9MOL   C301 7837   4.788   0.197   5.968  0.5188  0.0954  0.4285
    9MOL   C302 7838   4.675   0.271   6.027 -0.1226  0.6437 -0.2533
    9MOL   O303 7839   4.693   0.356   6.113 -0.1947  0.0358 -0.0114
    9MOL   O304 7840   4.558   0.247   5.968  0.1264  0.3393 -0.0726
    9MOL   C305 7841   4.768   0.065   5.914 -0.2786  1.0524 -0.1137
    9MOL   C306 7842   4.869   0.006   5.837 -0.8046 -0.9132 -0.3740
    9MOL   H307 7843   5.196   6.985   5.541 -0.7511  0.1580 -2.9845
    9MOL   H308 7844   5.086   7.131   5.544  0.5620 -0.1393  0.5415
    9MOL   H309 7845   5.308   7.147   5.403  2.0740  4.1892 -1.0861
    9MOL   H310 7846   5.386   7.124   5.553 -0.0769  1.5463 -0.2118
    9MOL   H311 7847   5.176   7.358   5.500 -0.8348  0.6274  1.6527
    9MOL   H312 7848   5.268   7.339   5.636  1.7959 -1.5801 -0.3095
    9MOL   H313 7849   5.402   7.379   5.369 -1.0677  0.2595 -0.1289
    9MOL   H314 7850   5.474   7.349   5.529  0.8189  1.6762  1.1230
    9MOL   H315 7851   5.311   7.590   5.464 -0.6791  1.3341  2.4209
    9MOL   H316 7852   5.378   7.556   5.617  0.1931  0.4289  0.1846
    9MOL   H317 7853   5.606   7.555   5.516  0.9482  1.4866  0.8770
    9MOL   H318 7854   5.543   7.603   5.366 -1.5955 -1.3658 -0.6757
    9MOL   H319 7855   5.647   7.787   5.473  0.5661 -2.2657 -0.9219
    9MOL   H320 7856   5.469   7.815   5.439  1.0727  2.0379  0.9307
    9MOL   H321 7857   5.587   7.728   5.701 -0.6381 -0.2137 -0.0697
    9MOL   H322 7858   5.603   7.890   5.646 -0.5583  0.6813 -0.6950
    9MOL   H323 7859   5.417   7.827   5.811  0.4741  0.3350  0.4003
    9MOL   H324 7860   5.327   7.768   5.678  2.9261 -0.8432 -1.8304
    9MOL   H325 7861   5.308   0.036   5.600 -0.6804 -0.6597  0.0125
    9MOL   H326 7862   5.431   0.081   5.706 -0.5550  0.5006  1.2740
    9MOL   H327 7863   5.125   0.215   5.932 -0.3783  0.1526 -3.4265
    9MOL   H328 7864   4.935   0.347   6.024  0.7564  0.4279  0.0842
    9MOL   H329 7865   4.670   0.021   5.922  0.0384 -0.1926 -2.6253
    9MOL   H330 7866   4.852   7.888   5.791 -1.1524 -0.8843 -0.3112
    9MOL   O331 7867   4.433   0.293   6.047 -0.2719 -0.4748  0.4288
    9MOL   C332 7868   4.380   0.410   5.989 -0.7120 -0.8154  0.7096
    9MOL   C333 7869   4.251   0.375   5.925 -0.2980  0.1271  0.0955
    9MOL   C334 7870   4.256   0.264   5.813 -0.3335  0.2163  0.3031
    9MOL   C335 7871   4.327   0.305   5.683 -0.6716  0.0018 -0.1128
    9MOL   C336 7872   4.377   0.192   5.600 -0.3372 -0.0380  0.4262
    9MOL   C337 7873   4.448   0.230   5.470 -0.5943 -0.1688  0.3996
    9MOL   C338 7874   4.579   0.311   5.490  0.4571  0.6045 -0.8747
    9MOL   C339 7875   4.700   0.227   5.540  0.1665  0.1138 -0.5522
    9MOL   C340 7876   4.835   0.308   5.553 -0.1108  0.1862  0.9861
    9MOL   C341 7877   4.829   0.412   5.670 -0.3251  0.2198  0.2755
    9MOL   O342 7878   4.954   0.462   5.687 -0.0728  0.3747  0.6397
    9MOL   C343 7879   4.976   0.558   5.773 -0.4331  0.3606 -0.6057
    9MOL   O344 7880   4.891   0.613   5.841 -0.2188 -0.3390  0.1674
    9MOL   C345 7881   5.114   0.604   5.766  0.7309 -0.3783 -0.2239
    9MOL   C346 7882   5.208   0.544   5.671  0.0305  0.2579 -0.8574
    9MOL   C347 7883   5.343   0.561   5.687  0.1440 -0.1018 -0.2601
    9MOL   C348 7884   5.393   0.664   5.774 -0.1504  0.2950 -0.2608
    9MOL   C349 7885   5.538   0.707   5.778  0.6199 -0.5998 -0.3163
    9MOL   O350 7886   5.575   0.789   5.863  0.1397  0.2481 -0.4598
    9MOL   O351 7887   5.623   0.637   5.699 -0.1820 -0.0429 -0.2456
    9MOL   C352 7888   5.297   0.743   5.845  0.1633  0.2147  0.2849
    9MOL   C353 7889   5.159   0.708   5.849 -0.0892 -0.3163  0.0473
    9MOL   H354 7890   4.370   0.479   6.073 -0.2298  0.0284  0.0813
    9MOL   H355 7891   4.459   0.457   5.931  0.2858 -2.1549  0.9493
    9MOL   H356 7892   4.225   0.458   5.860  0.5168  0.0668 -0.3138
    9MOL   H357 7893   4.165   0.365   5.992 -0.2648  0.9032  0.2541
    9MOL   H358 7894   4.302   0.176   5.859  1.6974 -0.3612 -2.7080
    9MOL   H359 7895   4.155   0.228   5.795 -0.2745  0.3699 -0.3450
    9MOL   H360 7896   4.411   0.367   5.718 -0.3629 -1.2217  1.3729
    9MOL   H361 7897   4.269   0.380   5.630 -0.9824  0.6227  1.0791
    9MOL   H362 7898   4.458   0.150   5.660  1.1816  1.5536 -0.5114
    9MOL   H363 7899   4.295   0.121   5.586  0.5747 -0.7086 -1.6671
    9MOL   H364 7900   4.469   0.139   5.413 -0.5146  0.7913 -1.1346
    9MOL   H365 7901   4.389   0.292   5.403 -0.0953 -0.5140 -0.3745
    9MOL   H366 7902   4.609   0.362   5.398 -1.0607 -0.4066 -1.9632
    9MOL   H367 7903   4.564   0.386   5.568 -0.6657 -0.7681  0.2413
    9MOL   H368 7904   4.690   0.171   5.633  1.9373  0.0883 -0.3624
    9MOL   H369 7905   4.714   0.151   5.464 -0.2956 -2.7690  2.1349
    9MOL   H370 7906   4.853   0.354   5.456  2.2527 -0.3542  1.1147
    9MOL   H371 7907   4.917   0.237   5.566  1.6669  2.0564  0.2375
    9MOL   H372 7908   4.797   0.368   5.765 -1.4518 -0.9865 -0.6518
    9MOL   H373 7909   4.769   0.501   5.650 -1.2162  0.0273  1.9684
    9MOL   H374 7910   5.183   0.455   5.615  0.1342  1.5297 -2.9794
    9MOL   H375 7911   5.408   0.520   5.612 -1.1359 -0.0193 -1.4273
    9MOL   H376 7912   5.327   0.830   5.901 -0.4186 -0.6537  2.0053
    9MOL   H377 7913   5.083   0.758   5.908  1.6163 -0.7915  2.7290
    9MOL   O378 7914   5.761   0.661   5.736  0.1450 -0.2002  0.4065
    9MOL   C379 7915   5.803   0.561   5.822  0.2329  0.2849 -0.3778
    9MOL   C380 7916   5.896   0.609   5.928 -0.2826 -0.3954  0.4870
    9MOL   C381 7917   5.904   0.526   6.056 -0.2593  0.4013  0.0248
    9MOL   C382 7918   5.985   0.589   6.171 -0.2609 -0.1740 -0.3650
    9MOL   C383 7919   5.976   0.738   6.206  0.8604  0.2498  0.0410
    9MOL   C384 7920   5.830   0.783   6.236  0.1408  0.0721 -1.1036
    9MOL   C385 7921   5.819   0.927   6.285 -0.5036  0.0133 -0.8127
    9MOL   C386 7922   5.857   1.033   6.182 -0.5330  0.2006 -0.1560
    9MOL   C387 7923   5.754   1.031   6.062  0.1853 -0.0540  0.6428
    9MOL   C388 7924   5.611   1.060   6.102  0.3163  0.4191  0.4418
    9MOL   O389 7925   5.550   0.948   6.149 -0.2603 -0.2020  0.2870
    9MOL   C390 7926   5.430   0.955   6.193 -0.3050 -0.1182 -0.9909
    9MOL   O391 7927   5.368   1.057   6.201 -0.5372  0.0951  0.4232
    9MOL   C392 7928   5.368   0.815   6.238  0.2056 -0.2771 -0.4440
    9MOL   C393 7929   5.235   0.803   6.278 -0.0378  0.2755 -0.3377
    9MOL   C394 7930   5.169   0.681   6.304  0.5286 -0.4793 -0.3498
    9MOL   C395 7931   5.249   0.565   6.291  0.3314 -0.6120 -0.1513
    9MOL   C396 7932   5.186   0.424   6.288  0.6170 -0.8945  0.2798
    9MOL   O397 7933   5.250   0.322   6.276  0.8470  0.0158 -0.1470
    9MOL   O398 7934   5.051   0.423   6.290 -0.6186  0.5364  0.0061
    9MOL   C399 7935   5.391   0.580   6.252  0.0301 -0.3188 -0.1016
    9MOL   C400 7936   5.453   0.706   6.240  0.1618 -0.2479 -0.1178
    9MOL   H401 7937   5.721   0.507   5.868  0.8168  0.1349  0.4881
    9MOL   H402 7938   5.852   0.484   5.762 -0.3904 -0.0594 -0.4498
    9MOL   H403 7939   5.854   0.704   5.962  0.0664  0.0700 -0.3723
    9MOL   H404 7940   5.999   0.628   5.898  0.0664 -2.3136  0.3897
    9MOL   H405 7941   5.802   0.509   6.091  0.7308 -3.9699  1.1079
    9MOL   H406 7942   5.949   0.427   6.047 -0.8091  0.1043  0.5333
    9MOL   H407 7943   6.089   0.576   6.139  0.2851  2.9439  0.0344
    9MOL   H408 7944   5.976   0.529   6.262  0.4463  1.5843  0.8990
    9MOL   H409 7945   6.025   0.746   6.303  1.9624 -1.3071 -0.3703
    9MOL   H410 7946   6.019   0.804   6.131  3.4215 -0.4191  0.8713
    9MOL   H411 7947   5.767   0.767   6.149  0.3565  1.0070 -1.4351
    9MOL   H412 7948   5.785   0.727   6.319  1.5130  2.8717  1.6269
    9MOL   H413 7949   5.724   0.948   6.335  0.8163  1.7278  1.0992
    9MOL   H414 7950   5.889   0.942   6.368 -1.6069 -1.7291  0.4761
    9MOL   H415 7951   5.871   1.121   6.245  1.5768 -0.7556  0.7820
    9MOL   H416 7952   5.956   1.011   6.141 -0.5710  1.3567 -0.8877
    9MOL   H417 7953   5.761   0.942   6.000 -0.5167  0.3303  0.0111
    9MOL   H418 7954   5.790   1.115   6.002 -0.4157 -1.6879 -2.0483
    9MOL   H419 7955   5.555   1.102   6.018  2.0596 -0.2770 -1.1086
    9MOL   H420 7956   5.600   1.129   6.185 -2.0283 -0.4377  0.8632
    9MOL   H421 7957   5.182   0.897   6.265 -1.7215 -0.2938  2.1242
    9MOL   H422 7958   5.064   0.670   6.326  0.3527  1.5466 -0.0126
    9MOL   H423 7959   5.446   0.488   6.244  2.1237  0.9218 -0.5880
    9MOL   H424 7960   5.555   0.706   6.205  0.2851  0.5249  0.2319
    9MOL   O425 7961   4.978   0.292   6.266  0.1584  0.2022 -0.1195
    9MOL   C426 7962   4.962   0.237   6.398 -0.8154 -0.3388 -0.6261
    9MOL   C427 7963   4.878   0.114   6.389  0.3730 -0.2407 -0.1028
    9MOL   C428 7964   4.894   0.021   6.269  0.4373 -0.1466 -0.0759
    9MOL   C429 7965   5.031   7.932   6.260  0.0605  0.1095 -0.7122
    9MOL   C430 7966   5.021   7.823   6.150  0.2005  0.5074  0.0597
    9MOL   C431 7967   5.159   7.797   6.095  0.5421  0.0360  0.8812
    9MOL   C432 7968   5.267   7.759   6.198  0.6761 -0.5870  0.6108
    9MOL   C433 7969   5.395   7.703   6.142 -0.9946 -0.1011 -0.9514
    9MOL   C434 7970   5.526   7.733   6.222  0.3832  0.0953  0.2274
    9MOL   C435 7971   5.640   7.643   6.168 -0.0770  0.3207 -0.0551
    9MOL   O436 7972   5.768   7.687   6.220  0.2690 -0.0441  0.5018
    9MOL   C437 7973   5.834   7.794   6.178 -0.5421  0.5976 -0.8097
    9MOL   O438 7974   5.780   7.859   6.083  0.1377  0.4908 -0.0008
    9MOL   C439 7975   5.967   7.808   6.237 -0.2775  0.4477  0.3490
    9MOL   C440 7976   6.047   7.917   6.198  0.5117  0.4147  0.1967
    9MOL   C441 7977   6.175   7.928   6.255 -0.5703 -0.5566 -0.6129
    9MOL   C442 7978   6.219   7.838   6.351  0.2656 -0.0586 -0.2566
    9MOL   C443 7979   6.357   7.865   6.404 -0.2031  0.2454  0.2611
    9MOL   O444 7980   6.383   7.974   6.458 -0.3358 -0.2833  0.3152
    9MOL   O445 7981   6.439   7.760   6.402 -0.4130  0.1959 -0.5256
    9MOL   C446 7982   6.143   7.727   6.386 -0.6279 -0.2541 -0.0036
    9MOL   C447 7983   6.018   7.711   6.325  0.5116  0.3218  0.0877
    9MOL   H448 7984   5.053   0.206   6.450 -1.3170 -1.2273 -0.2711
    9MOL   H449 7985   4.919   0.305   6.471 -1.2010 -0.1772 -1.0004
    9MOL   H450 7986   4.775   0.147   6.389 -0.2441 -2.1403 -0.4298
    9MOL   H451 7987   4.888   0.056   6.480  3.3695  0.7645  0.2855
    9MOL   H452 7988   4.812   7.928   6.280 -0.3624  0.6635 -0.7405
    9MOL   H453 7989   4.874   0.070   6.173  0.5523 -0.0791 -0.0654
    9MOL   H454 7990   5.056   7.879   6.352  3.8842 -1.4675 -2.5497
    9MOL   H455 7991   5.102   0.034   6.239 -1.8114  2.0278  0.0960
    9MOL   H456 7992   4.977   7.743   6.209 -2.3302  1.6043 -0.2668
    9MOL   H457 7993   4.947   7.846   6.073 -1.7512 -2.1013  1.0915
    9MOL   H458 7994   5.146   7.716   6.023  1.3976 -1.5669  2.4750
    9MOL   H459 7995   5.185   7.887   6.039 -0.1979 -1.2334 -1.5645
    9MOL   H460 7996   5.286   7.849   6.257 -1.8639  1.3149 -1.3566
    9MOL   H461 7997   5.228   7.683   6.266  0.3293 -1.2298 -0.3118
    9MOL   H462 7998   5.377   7.595   6.143 -2.7050  0.1728  0.6851
    9MOL   H463 7999   5.409   7.718   6.035  0.7695  0.0989 -0.7008
    9MOL   H464 8000   5.508   7.712   6.327 -0.6523  1.9212  0.4256
    9MOL   H465 8001   5.545   7.840   6.212 -0.1775 -0.0581 -3.2324
    9MOL   H466 8002   5.651   7.651   6.060  2.6728  1.9771  0.2912
    9MOL   H467 8003   5.617   7.539   6.194 -0.1007  0.1540 -0.7271
    9MOL   H468 8004   6.013   0.017   6.132  1.1256  0.9924  0.5624
    9MOL   H469 8005   6.234   0.034   6.220  0.5538 -1.3095 -0.5407
    9MOL   H470 8006   6.179   7.647   6.448  1.6886  2.1816  1.9603
    9MOL   H471 8007   5.956   7.626   6.351  1.3927 -0.9834 -1.9579
    9MOL   O472 8008   6.575   7.794   6.445  0.2690 -0.3507 -1.0283
    9MOL   C473 8009   6.583   7.739   6.583 -0.4072  0.1427  0.2978
    9MOL   C474 8010   6.735   7.746   6.620 -0.2039 -0.6364 -0.2455
    9MOL   C475 8011   6.768   7.704   6.768 -0.4369  0.3933 -0.0097
    9MOL   C476 8012   6.909   7.709   6.800  0.5114 -0.5093 -0.0643
    9MOL   C477 8013   6.945   7.649   6.935 -0.8471  0.1141 -0.1428
    9MOL   C478 8014   7.089   7.636   6.973  0.1656 -1.1233 -0.2010
    9MOL   C479 8015   7.170   7.543   6.882 -0.2279 -0.4113  0.1663
    9MOL   C480 8016   7.310   7.512   6.942  0.0839  0.3421  0.3850
    9MOL   C481 8017   7.381   7.419   6.836  0.0199  0.0499 -0.0547
    9MOL   C482 8018   7.536   7.425   6.858 -0.3814 -0.2256 -0.2550
    9MOL   O483 8019   7.560   7.379   6.993 -0.3548  0.2081  0.1919
    9MOL   C484 8020   7.680   7.403   7.051 -0.5197  0.2590  0.1892
    9MOL   O485 8021   7.775   7.460   6.993 -0.4652 -0.1829  0.0474
    9MOL   C486 8022   7.701   7.332   7.181  0.0733 -0.5199  0.0535
    9MOL   C487 8023   7.619   7.230   7.228  0.4788 -0.3829 -0.5596
    9MOL   C488 8024   7.658   7.151   7.336 -0.2333  0.2206 -0.0128
    9MOL   C489 8025   7.773   7.182   7.411 -0.2397 -0.5273  0.4890
    9MOL   C490 8026   7.800   7.104   7.536 -0.6398  0.2524 -0.1187
    9MOL   O491 8027   7.727   7.018   7.589 -0.2219 -0.2920  0.5699
    9MOL   O492 8028   7.914   7.149   7.588 -0.2376  0.4946 -0.1686
    9MOL   C493 8029   7.855   7.282   7.368 -0.0037  0.3120  0.5678
    9MOL   C494 8030   7.808   7.362   7.260  0.2485  0.8002 -0.3333
    9MOL   H495 8031   6.526   7.801   6.652 -1.0731  0.7942 -0.8127
    9MOL   H496 8032   6.552   7.635   6.581  0.2329 -0.0640  1.0647
    9MOL   H497 8033   6.754   7.854   6.617 -1.7826 -0.2613  2.0329
    9MOL   H498 8034   6.798   7.693   6.549 -1.8579 -1.3690 -1.2056
    9MOL   H499 8035   6.709   7.764   6.837 -0.1632 -1.4044  1.8416
    9MOL   H500 8036   6.732   7.601   6.770 -1.0993  0.5172 -3.0572
    9MOL   H501 8037   6.946   7.811   6.795 -2.4661  0.5989 -0.0715
    9MOL   H502 8038   6.972   7.663   6.723  3.2170  2.8084  0.0368
    9MOL   H503 8039   6.882   7.696   7.011  0.0511 -2.5227  2.3113
    9MOL   H504 8040   6.910   7.546   6.938 -2.4509  0.6226 -0.7881
    9MOL   H505 8041   7.135   7.734   6.985 -0.9698 -0.5628 -0.3382
    9MOL   H506 8042   7.089   7.586   7.070  2.8706 -2.4291 -0.8210
    9MOL   H507 8043   7.118   7.449   6.861  1.4312 -1.3468  0.2109
    9MOL   H508 8044   7.178   7.596   6.786 -0.2811  2.6169  1.7631
    9MOL   H509 8045   7.365   7.600   6.976  1.1039 -0.5019  0.9486
    9MOL   H510 8046   7.301   7.453   7.033  0.2301 -1.3530 -0.6844
    9MOL   H511 8047   7.349   7.450   6.737  0.0388 -1.7737 -0.6498
    9MOL   H512 8048   7.338   7.323   6.864 -1.1818  0.6766  0.3074
    9MOL   H513 8049   7.582   7.521   6.835 -3.2370  1.1353 -0.5562
    9MOL   H514 8050   7.574   7.350   6.789 -3.9136 -3.0613  0.7655
    9MOL   H515 8051   7.521   7.207   7.189 -0.1761  2.0173 -0.4244
    9MOL   H516 8052   7.603   7.066   7.374  1.8256 -0.8019  0.7695
    9MOL   H517 8053   7.938   7.315   7.428 -1.2299  1.4019  1.7212
    9MOL   H518 8054   7.879   7.439   7.233 -1.4747  1.8436 -1.9838
    9MOL   O519 8055   7.959   7.091   7.717 -0.2300  0.0700 -0.3608
    9MOL   C520 8056   0.059   6.978   7.688 -0.8734  0.4651  0.1669
    9MOL   C521 8057   0.151   6.942   7.805  0.1795  0.0686  0.8124
    9MOL   C522 8058   0.075   6.879   7.918  0.5223  0.4669  0.3452
    9MOL   C523 8059   0.148   6.863   0.077 -0.2126  0.5758  0.0279
    9MOL   C524 8060   0.077   6.773   0.185  0.0293 -0.5558  0.4092
    9MOL   C525 8061   7.941   6.840   0.258  0.7891 -0.1325 -0.1251
    9MOL   C526 8062   7.894   6.752   0.384 -0.5810 -0.2199 -0.0404
    9MOL   C527 8063   7.753   6.786   0.440  0.9524  0.7342 -0.1129
    9MOL   C528 8064   7.743   6.875   0.564  0.1288  0.1228 -0.3995
    9MOL   C529 8065   7.609   6.880   0.629 -0.3998 -0.2325  0.0657
    9MOL   O530 8066   7.596   6.995   0.708 -0.6144 -0.2336 -0.4967
    9MOL   C531 8067   7.536   6.977   0.829  0.2381 -0.1680  0.4488
    9MOL   O532 8068   7.482   6.872   0.861 -0.5831  0.0079 -0.3539
    9MOL   C533 8069   7.540   7.105   0.905 -0.1349  0.5052 -0.5004
    9MOL   C534 8070   7.462   7.113   1.018 -0.0012 -0.2469  0.4037
    9MOL   C535 8071   7.464   7.217   1.107  0.6353  0.1533  0.1899
    9MOL   C536 8072   7.559   7.326   1.087  0.7889 -0.2203  0.0271
    9MOL   C537 8073   7.573   7.439   1.182 -0.5642 -0.4470 -0.2911
    9MOL   O538 8074   7.662   7.523   1.170  0.2586 -0.1227  0.0216
    9MOL   O539 8075   7.491   7.444   1.280  0.7106  0.0730  0.2503
    9MOL   C540 8076   7.628   7.330   0.964  0.0980 -0.3386  0.7318
    9MOL   C541 8077   7.619   7.216   0.879 -0.4963 -1.0436  0.2771
    9MOL   H542 8078   0.004   6.887   7.667 -2.2002  1.6559 -1.7442
    9MOL   H543 8079   0.115   6.979   7.594 -0.9362 -1.3629  0.0882
    9MOL   H544 8080   0.206   7.026   7.847  0.3065  0.4638 -0.1322
    9MOL   H545 8081   0.229   6.875   7.768  1.0476  0.7154  1.4585
    9MOL   H546 8082   7.958   6.934   7.921  0.4372  0.3528 -0.1643
    9MOL   H547 8083   0.058   6.773   7.897  2.7032  0.2247 -0.3304
    9MOL   H548 8084   0.164   6.963   0.119 -0.0724  0.7795 -0.5098
    9MOL   H549 8085   0.245   6.817   0.055 -0.0013  0.3694  1.3289
    9MOL   H550 8086   0.040   6.681   0.141 -1.1382 -1.1208  2.4658
    9MOL   H551 8087   0.156   6.751   0.257 -0.1672  0.3121  0.9053
    9MOL   H552 8088   7.961   6.941   0.295  1.1456 -0.4424  0.5395
    9MOL   H553 8089   7.856   6.851   0.191  0.1515 -1.4992  0.4461
    9MOL   H554 8090   7.896   6.645   0.365  0.4349 -0.4631  1.3862
    9MOL   H555 8091   7.973   6.760   0.459  0.1312 -0.3974 -0.7614
    9MOL   H556 8092   7.702   6.833   0.356  1.2556  3.6250  1.2730
    9MOL   H557 8093   7.690   6.697   0.450  1.2732  0.5229  0.0405
    9MOL   H558 8094   7.764   6.975   0.525 -1.0910 -0.2631 -2.1263
    9MOL   H559 8095   7.818   6.852   0.639  1.0629  0.7231 -1.1340
    9MOL   H560 8096   7.603   6.793   0.693  0.4734 -0.1783  0.2208
    9MOL   H561 8097   7.521   6.875   0.564 -0.5318  0.8555  0.1426
    9MOL   H562 8098   7.395   7.031   1.041 -0.2358 -0.8697 -2.2882
    9MOL   H563 8099   7.398   7.221   1.192 -0.9043  0.3981 -1.0045
    9MOL   H564 8100   7.704   7.403   0.944  0.1049 -0.0008  1.9689
    9MOL   H565 8101   7.680   7.218   0.790 -0.3809  0.4882  0.3805
    9MOL   O566 8102   7.499   7.558   1.381 -0.8941  0.8315  0.0807
    9MOL   C567 8103   7.391   7.646   1.361 -0.6579 -0.8364 -0.4541
    9MOL   C568 8104   7.407   7.776   1.440 -0.2062 -1.2782  0.5843
    9MOL   C569 8105   7.426   7.756   1.597 -0.5091  0.0913 -0.0748
    9MOL   C570 8106   7.399   7.881   1.688 -0.1005 -0.7928 -0.0456
    9MOL   C571 8107   7.429   7.851   1.839  0.1038  0.9407  0.6746
    9MOL   C572 8108   7.503   7.956   1.920 -0.4307 -0.3656 -0.2097
    9MOL   C573 8109   7.652   7.970   1.882  0.5473  0.5154 -0.0682
    9MOL   C574 8110   7.739   0.085   1.974 -0.0707  0.2134  0.2930
    9MOL   C575 8111   7.887   0.055   1.963  0.6418  0.1000 -0.6478
    9MOL   C576 8112   0.004   0.164   2.020 -0.1212  0.1094 -0.4202
    9MOL   O577 8113   0.139   0.147   1.975  0.0445 -0.6352  0.1052
    9MOL   C578 8114   0.221   0.262   1.969 -0.1511 -0.2378  0.4170
    9MOL   O579 8115   0.182   0.375   1.999  0.0903 -0.0762 -0.6557
    9MOL   C580 8116   0.362   0.229   1.921  0.0415  0.1325  0.1121
    9MOL   C581 8117   0.454   0.329   1.895 -0.2414  0.2925  0.2845
    9MOL   C582 8118   0.583   0.300   1.863 -0.4650  0.7088  0.0097
    9MOL   C583 8119   0.631   0.162   1.856  0.3658  0.2371  0.1410
    9MOL   C584 8120   0.770   0.142   1.826 -0.1910 -0.9223 -0.1154
    9MOL   O585 8121   0.852   0.232   1.827  0.0572  0.0201 -0.0076
    9MOL   O586 8122   0.794   0.012   1.805 -0.6683 -0.1373  0.2040
    9MOL   C587 8123   0.536   0.065   1.870  0.6284  0.2075  0.2587
    9MOL   C588 8124   0.398   0.092   1.900  0.7672 -0.3162 -1.2074
    9MOL   H589 8125   7.388   7.664   1.254 -0.5557 -0.5227 -0.4048
    9MOL   H590 8126   7.299   7.596   1.392 -0.3023 -0.7622  0.7421
    9MOL   H591 8127   7.314   7.828   1.417 -0.8991 -1.6094  2.5299
    9MOL   H592 8128   7.493   7.829   1.398  0.3524 -2.5524  0.0740
    9MOL   H593 8129   7.352   7.678   1.619 -0.3292 -0.5550 -1.6817
    9MOL   H594 8130   7.523   7.709   1.613 -0.0664  1.8546  2.6673
    9MOL   H595 8131   7.295   7.912   1.679 -0.2174 -1.3754 -0.6777
    9MOL   H596 8132   7.450   7.971   1.654  2.1981 -2.3088 -0.6776
    9MOL   H597 8133   7.331   7.837   1.885  0.3563 -4.6586 -0.1320
    9MOL   H598 8134   7.487   7.759   1.845  1.5958  1.9381  2.0000
    9MOL   H599 8135   7.460   0.077   1.906  1.0208  0.0872 -1.5069
    9MOL   H600 8136   7.490   7.936   2.026  0.1098 -0.3222 -0.1364
    9MOL   H601 8137   7.696   7.871   1.890  2.6495  1.4305  0.1290
    9MOL   H602 8138   7.654   0.024   1.778 -0.6585 -0.6742 -0.4757
    9MOL   H603 8139   7.714   0.188   1.949 -2.3606  0.0447  1.7115
    9MOL   H604 8140   7.722   0.071   2.081  0.8994 -0.9755  0.3026
    9MOL   H605 8141   7.910   0.042   1.858  0.6000  1.1823 -0.8040
    9MOL   H606 8142   7.906   7.931   1.996 -0.6197 -0.4255 -1.5499
    9MOL   H607 8143   0.017   0.154   2.127  1.2496 -0.2636 -0.6198
    9MOL   H608 8144   7.945   0.263   1.990 -0.6683  0.4581  1.3739
    9MOL   H609 8145   0.416   0.429   1.915 -0.0609  0.3859  0.1589
    9MOL   H610 8146   0.648   0.387   1.867 -1.1066  1.1314  2.2407
    9MOL   H611 8147   0.554   7.937   1.874 -0.8226 -0.1890 -2.4711
    9MOL   H612 8148   0.326   0.012   1.909  1.7277 -0.8839  1.9913
    9MOL   O613 8149   0.938   7.957   1.755  0.6758 -0.8327  0.1898
    9MOL   C614 8150   0.930   7.928   1.614 -0.4000  0.2342 -0.4314
    9MOL   C615 8151   0.967   0.076   1.538  0.6458 -0.0403  0.0708
    9MOL   C616 8152   0.941   0.064   1.388  0.6052  0.0190  0.1172
    9MOL   C617 8153   0.967   0.203   1.314 -0.1494 -0.0141  0.1091
    9MOL   C618 8154   0.923   0.204   1.170 -0.4447 -0.2713 -0.4172
    9MOL   C619 8155   0.974   0.336   1.089 -0.4386 -0.4369 -0.0571
    9MOL   C620 8156   0.971   0.467   1.169  0.0273  0.2417  0.1249
    9MOL   C621 8157   1.024   0.589   1.098  0.6046  0.3702 -0.4983
    9MOL   C622 8158   1.073   0.694   1.198 -0.2138 -0.0912 -0.2180
    9MOL   C623 8159   1.155   0.801   1.119  0.1159 -0.5368  0.5133
    9MOL   O624 8160   1.060   0.866   1.039 -0.9568  0.2469  0.6023
    9MOL   C625 8161   1.084   0.992   1.000  0.5743  0.0895 -0.1599
    9MOL   O626 8162   1.193   1.047   1.016 -0.2656 -0.4902 -0.2936
    9MOL   C627 8163   0.970   1.048   0.931 -0.4156  0.9145  0.1638
    9MOL   C628 8164   0.990   1.165   0.860 -0.5162 -0.1470 -0.0103
    9MOL   C629 8165   0.888   1.230   0.789 -0.1494 -0.5596  0.1694
    9MOL   C630 8166   0.755   1.178   0.801 -0.1431 -0.8975 -0.5672
    9MOL   C631 8167   0.639   1.255   0.738 -0.1673  0.7056 -0.4732
    9MOL   O632 8168   0.524   1.236   0.756  0.0144  0.1236 -0.2151
    9MOL   O633 8169   0.677   1.353   0.657  0.2248 -0.2429 -0.1234
    9MOL   C634 8170   0.724   1.060   0.872 -0.1217 -0.3802  0.3608
    9MOL   C635 8171   0.836   0.993   0.928  0.2210  0.3533 -0.5133
    9MOL   H636 8172   1.007   7.853   1.595  0.4937  1.2865 -1.0242
    9MOL   H637 8173   0.826   7.899   1.596 -1.0646  1.5872  1.0865
    9MOL   H638 8174   1.070   0.105   1.560  0.1729  2.9302 -1.3616
    9MOL   H639 8175   0.907   0.159   1.575  2.2930  0.0387  2.7183
    9MOL   H640 8176   1.002   7.964   1.342 -0.2552 -0.1492 -0.7510
    9MOL   H641 8177   0.839   0.042   1.358  0.7818 -0.2556 -0.2967
    9MOL   H642 8178   1.075   0.219   1.311 -0.0116 -1.1710 -1.4450
    9MOL   H643 8179   0.932   0.286   1.375  0.1827 -0.4526  0.9161
    9MOL   H644 8180   0.968   0.123   1.112  2.2333  0.7381  0.2139
    9MOL   H645 8181   0.814   0.208   1.162 -0.4561 -0.4746 -0.3682
    9MOL   H646 8182   1.079   0.323   1.065 -0.3006 -0.9341  0.7900
    9MOL   H647 8183   0.916   0.345   0.997  1.4236 -2.0481 -1.4267
    9MOL   H648 8184   0.866   0.474   1.197 -0.9479 -3.0919 -2.4137
    9MOL   H649 8185   1.035   0.446   1.254  0.6527 -1.1877 -0.6749
    9MOL   H650 8186   1.116   0.560   1.048  0.5835 -0.9829  0.1989
    9MOL   H651 8187   0.953   0.631   1.027 -1.2938 -1.3725  0.2918
    9MOL   H652 8188   1.128   0.644   1.278  2.1963  2.7813  0.0280
    9MOL   H653 8189   0.987   0.734   1.252  0.6450 -0.7577  1.7010
    9MOL   H654 8190   1.230   0.759   1.052  0.2536 -0.5949  0.7023
    9MOL   H655 8191   1.197   0.876   1.186  1.2447 -0.2211 -0.5280
    9MOL   H656 8192   1.086   1.216   0.858 -0.3315 -0.4930 -0.0504
    9MOL   H657 8193   0.903   1.312   0.720  1.6439 -0.3489  0.7743
    9MOL   H658 8194   0.628   1.012   0.858 -0.6889  1.0152 -0.6257
    9MOL   H659 8195   0.826   0.899   0.980  1.6794  0.5944  0.2240
    9MOL   O660 8196   0.563   1.450   0.614 -0.3656  0.4263  0.1291
    9MOL   C661 8197   0.527   1.427   0.480 -0.6778 -0.0888  0.0658
    9MOL   C662 8198   0.640   1.447   0.377 -0.1950 -0.2580  0.0382
    9MOL   C663 8199   0.585   1.418   0.230  0.1371 -0.3889 -0.0127
    9MOL   C664 8200   0.684   1.442   0.112 -0.3740 -0.2172  0.0903
    9MOL   C665 8201   0.646   1.353   7.975 -0.5582 -0.0840 -0.2542
    9MOL   C666 8202   0.755   1.366   7.866  0.1994  0.7166  0.5183
    9MOL   C667 8203   0.760   1.505   7.795  0.2342 -0.0400 -0.0538
    9MOL   C668 8204   0.666   1.512   7.672 -0.4023  0.0158 -0.0329
    9MOL   C669 8205   0.674   1.652   7.609 -0.1227  0.2339 -0.1681
    9MOL   C670 8206   0.618   1.651   7.461  0.6064 -0.4100 -0.3110
    9MOL   O671 8207   0.488   1.599   7.463  0.0785  0.2145 -0.3274
    9MOL   C672 8208   0.410   1.600   7.356  0.0641 -0.1228  0.7449
    9MOL   O673 8209   0.453   1.631   7.247 -0.1317 -0.4864  0.4964
    9MOL   C674 8210   0.273   1.560   7.385 -0.3961  0.6144  0.1053
    9MOL   C675 8211   0.236   1.512   7.514  0.4937 -0.0727 -0.7890
    9MOL   C676 8212   0.105   1.482   7.538 -0.4813  0.4909  0.1278
    9MOL   C677 8213   0.005   1.510   7.446 -0.6175 -0.7430 -0.2479
    9MOL   C678 8214   7.842   1.496   7.495 -0.0137  0.0863 -0.1058
    9MOL   O679 8215   7.807   1.472   7.612 -0.5816 -0.3230 -0.2101
    9MOL   O680 8216   7.749   1.495   7.397  0.0864  0.3098 -0.2314
    9MOL   C681 8217   0.036   1.563   7.317  0.7733 -0.3709  0.3166
    9MOL   C682 8218   0.171   1.584   7.286  0.4722 -0.4170  0.4436
    9MOL   H683 8219   0.493   1.324   0.482 -2.6479  0.4926 -1.4468
    9MOL   H684 8220   0.439   1.488   0.458 -0.7276  0.2430  1.1756
    9MOL   H685 8221   0.724   1.386   0.409 -0.6743 -1.3299 -0.7052
    9MOL   H686 8222   0.680   1.548   0.376 -0.9054  0.0192 -0.9682
    9MOL   H687 8223   0.573   1.310   0.238  2.1875 -0.6724 -0.5737
    9MOL   H688 8224   0.487   1.460   0.207  1.3427  2.9290  0.5507
    9MOL   H689 8225   0.783   1.413   0.148 -0.2573  0.3701  0.2534
    9MOL   H690 8226   0.692   1.549   0.090 -0.9973 -0.6848 -2.6978
    9MOL   H691 8227   0.645   1.252   0.036 -2.2138 -0.2862 -0.7647
    9MOL   H692 8228   0.542   1.380   7.952 -1.1951 -1.0638  1.4352
    9MOL   H693 8229   0.852   1.349   7.912  1.0267 -1.9044 -2.0257
    9MOL   H694 8230   0.754   1.283   7.795  0.1178 -0.0577  1.4272
    9MOL   H695 8231   0.733   1.587   7.861  1.1736  1.1710 -1.1461
    9MOL   H696 8232   0.862   1.518   7.760 -0.4242  0.1584 -2.0106
    9MOL   H697 8233   0.707   1.432   7.609 -0.5340 -0.8132  0.9182
    9MOL   H698 8234   0.562   1.495   7.697 -0.3819  0.2124  0.1834
    9MOL   H699 8235   0.775   1.692   7.615  0.2809 -0.8285  0.2276
    9MOL   H700 8236   0.608   1.722   7.661  0.1521  0.9667 -0.7891
    9MOL   H701 8237   0.678   1.588   7.396 -0.8094 -1.9262 -0.1964
    9MOL   H702 8238   0.623   1.752   7.420 -0.5967 -0.0862  0.2871
    9MOL   H703 8239   0.308   1.493   7.592  0.5537 -1.1569 -1.0953
    9MOL   H704 8240   0.078   1.426   7.626  1.9776  0.2908  0.7990
    9MOL   H705 8241   7.943   1.604   7.247  1.0178 -1.0851 -0.3526
    9MOL   H706 8242   0.193   1.620   7.186 -1.8766 -0.0018  0.0563
    9MOL   O707 8243   7.612   1.451   7.441  0.8228  0.2283  0.5189
    9MOL   C708 8244   7.568   1.341   7.356  0.4917 -0.6370  0.2121
    9MOL   C709 8245   7.481   1.238   7.437  0.2540 -0.2315 -0.1809
    9MOL   C710 8246   7.549   1.188   7.567  0.4031 -0.5211 -0.0693
    9MOL   C711 8247   7.442   1.140   7.659 -0.3324  0.3144  0.3513
    9MOL   C712 8248   7.504   1.087   7.795  0.7579 -0.0657 -0.2803
    9MOL   C713 8249   7.398   1.055   7.903 -0.5788 -0.1614 -0.4611
    9MOL   C714 8250   7.455   1.037   0.066  0.4511 -0.0272 -0.5962
    9MOL   C715 8251   7.559   0.925   0.078  0.2871  0.4652 -0.0821
    9MOL   C716 8252   7.652   0.953   0.191  0.6248  0.8616 -0.5469
    9MOL   C717 8253   7.758   0.837   0.205 -0.4737 -0.0293 -0.3863
    9MOL   O718 8254   7.705   0.706   0.191  0.3728 -0.4441  0.6267
    9MOL   C719 8255   7.671   0.629   0.290 -0.1850 -0.4137  0.1869
    9MOL   O720 8256   7.680   0.668   0.404  0.1309  0.1510  0.2126
    9MOL   C721 8257   7.617   0.500   0.241  0.4067 -0.0479 -0.2054
    9MOL   C722 8258   7.576   0.405   0.340  0.3027 -1.0107 -0.5861
    9MOL   C723 8259   7.532   0.276   0.295  0.2606 -0.3292 -0.3499
    9MOL   C724 8260   7.532   0.234   0.167  0.2188 -0.5152  0.1763
    9MOL   C725 8261   7.484   0.098   0.130  0.1650 -0.4350 -0.2430
    9MOL   O726 8262   7.418   0.021   0.200 -0.1921  0.4176 -0.4132
    9MOL   O727 8263   7.525   0.063   0.008  0.5878  0.5720 -0.2816
    9MOL   C728 8264   7.570   0.331   0.072 -0.0704 -0.5473  0.4283
    9MOL   C729 8265   7.603   0.465   0.110 -0.0139 -0.0428  0.0053
    9MOL   H730 8266   7.516   1.370   7.265 -2.1065 -0.5235  1.6821
    9MOL   H731 8267   7.661   1.293   7.324  0.2418 -0.5405 -0.6743
    9MOL   H732 8268   7.456   1.144   7.388 -0.5029  0.2224 -0.6652
    9MOL   H733 8269   7.403   1.302   7.477  0.5782  0.1810 -0.1978
    9MOL   H734 8270   7.614   1.105   7.539  0.4109 -0.5896  0.1484
    9MOL   H735 8271   7.608   1.267   7.612 -0.2897 -0.1319  0.1615
    9MOL   H736 8272   7.394   1.049   7.622  1.8135 -0.9025  0.5294
    9MOL   H737 8273   7.360   1.212   7.673 -1.7384 -1.1245 -0.2953
    9MOL   H738 8274   7.570   1.003   7.774  0.4400  0.2947 -2.9039
    9MOL   H739 8275   7.568   1.165   7.838  0.7649  0.2116 -0.7948
    9MOL   H740 8276   7.320   1.131   7.901  0.8888  1.4144  1.1568
    9MOL   H741 8277   7.348   0.963   7.874 -0.3024 -0.4514 -0.0178
    9MOL   H742 8278   7.507   1.126   0.101  1.7218 -1.1651  0.5014
    9MOL   H743 8279   7.374   1.036   0.140 -0.0878  2.3716 -1.1397
    9MOL   H744 8280   7.515   0.826   0.081 -1.2019  1.1476  4.0497
    9MOL   H745 8281   7.622   0.923   7.967 -0.2058 -0.5625 -0.4120
    9MOL   H746 8282   7.600   0.964   0.287  0.1198 -0.1269 -0.6989
    9MOL   H747 8283   7.695   1.053   0.185  0.6073  0.9529  0.6753
    9MOL   H748 8284   7.807   0.852   0.301 -0.5839  0.4813 -0.4035
    9MOL   H749 8285   7.831   0.848   0.124 -0.5702  0.6528 -0.3849
    9MOL   H750 8286   7.588   0.425   0.445 -1.6700 -1.9609 -0.1576
    9MOL   H751 8287   7.499   0.207   0.372 -1.4545 -0.8890 -1.5684
    9MOL   H752 8288   7.567   0.304   7.946 -1.8968 -0.0942  0.3390
    9MOL   H753 8289   7.635   0.524   0.026 -0.0780 -2.3285 -1.6762
    9MOL   O754 8290   7.504   7.883   7.958 -0.3978 -0.2251 -0.4420
    9MOL   C755 8291   7.386   7.864   7.884 -0.3673  0.7055  0.0183
    9MOL   C756 8292   7.380   7.717   7.835  0.3354 -0.7790  0.2900
    9MOL   C757 8293   7.268   7.693   7.733  0.0905 -0.1337 -0.2340
    9MOL   C758 8294   7.120   7.663   7.790 -0.6814 -0.2758  0.8818
    9MOL   C759 8295   7.034   7.777   7.820 -0.3545 -0.7118  0.2518
    9MOL   C760 8296   6.887   7.732   7.858  0.4868  0.3252  0.0790
    9MOL   C761 8297   6.811   7.841   7.935  1.0665 -0.0219  0.3825
    9MOL   C762 8298   6.755   7.958   7.859  0.4745  0.0166 -0.3389
    9MOL   C763 8299   6.707   0.101   7.943  1.4978 -0.6823 -0.2515
    9MOL   C764 8300   6.823   0.176   0.025  0.1298 -0.4420 -0.6265
    9MOL   O765 8301   6.915   0.190   7.914  0.1225 -0.4922 -0.2595
    9MOL   C766 8302   7.043   0.165   7.946 -0.5895 -0.2948  0.3639
    9MOL   O767 8303   7.084   0.133   0.080  0.6717 -0.0665  0.0707
    9MOL   C768 8304   7.130   0.188   7.822 -0.0642  0.7210 -0.0546
    9MOL   C769 8305   7.100   0.140   7.690  0.6023  0.0524  0.3730
    9MOL   C770 8306   7.188   0.171   7.582 -0.4863 -0.0431  0.0032
    9MOL   C771 8307   7.320   0.233   7.607  0.0028 -0.3582 -0.2567
    9MOL   C772 8308   7.409   0.275   7.491  0.0265  0.0641  0.5015
    9MOL   O773 8309   7.526   0.298   7.500  0.2688 -0.0107 -0.3409
    9MOL   O774 8310   7.348   0.268   7.367  0.2519 -0.0433 -0.0730
    9MOL   C775 8311   7.350   0.265   7.743 -0.6836 -0.6255  0.0032
    9MOL   C776 8312   7.260   0.252   7.849 -0.1727  0.4864 -0.3409
    9MOL   H777 8313   7.306   7.893   7.952 -1.6212 -0.1960 -1.0404
    9MOL   H778 8314   7.397   7.938   7.805 -0.3058  0.8823  0.1938
    9MOL   H779 8315   7.379   7.654   7.924 -0.1543 -0.2264  0.6804
    9MOL   H780 8316   7.475   7.705   7.783  1.5096  2.0873  1.6415
    9MOL   H781 8317   7.266   7.775   7.661 -1.7665  1.7799  1.9338
    9MOL   H782 8318   7.306   7.601   7.688 -1.4435 -0.1108 -1.6178
    9MOL   H783 8319   7.118   7.592   7.873 -0.7339 -0.8875  0.3547
    9MOL   H784 8320   7.059   7.610   7.717  1.5587 -1.1658 -0.3676
    9MOL   H785 8321   7.081   7.834   7.900 -0.3449 -0.8722  0.3594
    9MOL   H786 8322   7.028   7.843   7.733  1.5270  0.9671  1.3427
    9MOL   H787 8323   6.829   7.704   7.770 -1.2482  2.4056  0.5209
    9MOL   H788 8324   6.908   7.648   7.924 -0.1732 -0.1637 -0.3264
    9MOL   H789 8325   6.725   7.802   0.011  1.3751 -0.8153  0.3079
    9MOL   H790 8326   6.888   7.882   0.022  2.0781  0.8164 -1.3044
    9MOL   H791 8327   6.824   0.007   7.778 -0.0922 -5.0273 -2.6936
    9MOL   H792 8328   6.671   7.915   7.806 -1.8137  1.0844  2.3258
    9MOL   H793 8329   6.643   0.066   0.046  0.6298 -0.1235 -0.6866
    9MOL   H794 8330   6.644   0.168   7.885  2.2345  0.3913  0.1828
    9MOL   H795 8331   6.832   0.098   0.101  2.8411 -1.3197 -1.7663
    9MOL   H796 8332   6.817   0.265   0.087  2.2309  1.1413 -2.5854
    9MOL   H797 8333   7.005   0.092   7.673  0.1170  0.1804  2.5355
    9MOL   H798 8334   7.158   0.147   7.481 -2.5755  0.5503  0.4659
    9MOL   H799 8335   7.446   0.308   7.768 -0.9737 -0.9484  1.8132
    9MOL   H800 8336   7.284   0.288   7.948 -3.0025 -0.5116  0.7656
    9MOL   O801 8337   7.430   0.306   7.245 -0.0315  0.2186  0.1351
    9MOL   C802 8338   7.507   0.190   7.206 -0.8814 -0.0214 -0.2887
    9MOL   C803 8339   7.534   0.189   7.054  0.5191  0.2005  0.1451
    9MOL   C804 8340   7.609   0.309   6.992 -0.5265 -0.9636 -0.2619
    9MOL   C805 8341   7.580   0.333   6.842 -0.3234 -0.4642  0.9342
    9MOL   C806 8342   7.659   0.449   6.778  0.3284  0.7826 -0.4232
    9MOL   C807 8343   7.593   0.499   6.646 -0.0963  0.1389 -0.0948
    9MOL   C808 8344   7.679   0.615   6.588 -0.8180 -0.9320  0.1256
    9MOL   C809 8345   7.627   0.683   6.457 -0.0959  0.4627  0.5117
    9MOL   C810 8346   7.471   0.707   6.455  0.4956 -0.0906  0.0292
    9MOL   C811 8347   7.425   0.803   6.565 -0.4267 -0.9193  0.2657
    9MOL   O812 8348   7.497   0.922   6.565 -1.0661 -0.1403 -0.0186
    9MOL   C813 8349   7.483   1.000   6.668 -0.2527 -0.7445  0.5948
    9MOL   O814 8350   7.398   0.989   6.756 -0.3894 -0.9275 -0.0749
    9MOL   C815 8351   7.577   1.113   6.679 -0.1642 -0.0575 -0.0430
    9MOL   C816 8352   7.689   1.128   6.595 -0.0421 -0.3375 -0.2617
    9MOL   C817 8353   7.791   1.225   6.611 -0.3288 -0.4569  0.5503
    9MOL   C818 8354   7.791   1.307   6.728 -1.0101 -0.6535 -0.0331
    9MOL   C819 8355   7.901   1.396   6.762  0.0176  0.1177  1.2127
    9MOL   O820 8356   7.910   1.446   6.872 -0.0838 -0.3958  0.2994
    9MOL   O821 8357   0.024   1.393   6.672 -0.1243 -0.1900  0.2093
    9MOL   C822 8358   7.680   1.292   6.819 -0.7239  0.1139 -0.1419
    9MOL   C823 8359   7.574   1.201   6.789  0.2899  0.2187 -0.3788
    9MOL   H824 8360   7.599   0.186   7.265  0.4373 -0.1429 -2.3011
    9MOL   H825 8361   7.456   0.097   7.228  0.0967  0.0544  2.5295
    9MOL   H826 8362   7.443   0.164   6.999  0.9122 -0.8231 -0.0560
    9MOL   H827 8363   7.586   0.094   7.039 -1.1800 -0.5727 -0.9736
    9MOL   H828 8364   7.575   0.400   7.041 -0.4084 -1.3785  0.6107
    9MOL   H829 8365   7.716   0.310   7.017 -0.7364 -1.1631  0.6938
    9MOL   H830 8366   7.473   0.355   6.837  0.2865  2.4020 -0.2604
    9MOL   H831 8367   7.606   0.246   6.782  0.1152 -0.6989  1.4672
    9MOL   H832 8368   7.668   0.525   6.855 -0.7374  0.6290 -0.1341
    9MOL   H833 8369   7.756   0.403   6.761  0.1977  0.5872 -0.6401
    9MOL   H834 8370   7.580   0.418   6.573 -2.6261  0.8693 -0.5209
    9MOL   H835 8371   7.492   0.531   6.671 -0.9264 -1.8828 -0.7305
    9MOL   H836 8372   7.694   0.689   6.667 -2.9893  1.8428 -1.9813
    9MOL   H837 8373   7.778   0.577   6.563  0.3477  0.7939  1.9403
    9MOL   H838 8374   7.681   0.774   6.431 -0.3496  0.6009  0.4685
    9MOL   H839 8375   7.646   0.619   6.371 -0.0521  0.3097  0.6341
    9MOL   H840 8376   7.422   0.613   6.480  0.5150 -0.2768 -0.6233
    9MOL   H841 8377   7.439   0.729   6.354  0.5987 -0.2141 -0.0312
    9MOL   H842 8378   7.455   0.756   6.658  1.8592  3.0759  1.6390
    9MOL   H843 8379   7.318   0.822   6.559 -0.1882  1.0281  1.5697
    9MOL   H844 8380   7.706   1.061   6.512  2.0164 -0.0952 -0.0592
    9MOL   H845 8381   7.881   1.216   6.551 -0.3371  3.6435 -0.2570
    9MOL   H846 8382   7.668   1.366   6.897  0.5363 -0.2748  0.4427
    9MOL   H847 8383   7.488   1.205   6.854  0.8967  2.2717  0.3237
    9MOL   O848 8384   0.150   1.455   6.727  0.1427 -0.0502  0.2460
    9MOL   C849 8385   0.142   1.593   6.682  0.6069 -0.5211 -0.3276
    9MOL   C850 8386   0.268   1.675   6.711 -0.5611 -0.6252 -0.0425
    9MOL   C851 8387   0.274   1.712   6.858 -0.2312  0.3128  0.7689
    9MOL   C852 8388   0.381   1.818   6.895 -0.1095 -0.0509  0.0079
    9MOL   C853 8389   0.376   1.874   7.039  0.5137  0.6803  0.4951
    9MOL   C854 8390   0.482   1.971   7.078 -0.7984  0.0837 -0.0877
    9MOL   C855 8391   0.600   1.912   7.141 -0.3197  0.5045  0.3135
    9MOL   C856 8392   0.709   1.846   7.053 -0.4092  0.1315 -0.3311
    9MOL   C857 8393   0.845   1.809   7.120 -0.1383  0.1614  0.0649
    9MOL   C858 8394   0.927   1.938   7.141 -0.3811 -0.5793 -0.0319
    9MOL   O859 8395   0.991   1.965   7.014 -0.1762  0.3164  0.2536
    9MOL   C860 8396   1.077   2.072   7.016 -0.7188  0.1574  0.7849
    9MOL   O861 8397   1.070   2.161   7.108 -0.6299 -0.1297 -0.0944
    9MOL   C862 8398   1.164   2.085   6.897  0.0857 -0.9105  0.0499
    9MOL   C863 8399   1.246   2.201   6.879 -0.2130 -0.6054 -0.2302
    9MOL   C864 8400   1.313   2.218   6.757 -0.4584  0.1227 -0.3424
    9MOL   C865 8401   1.318   2.116   6.661  0.4552 -0.2536  0.9714
    9MOL   C866 8402   1.396   2.132   6.536 -0.2197 -0.2348 -0.1162
    9MOL   O867 8403   1.409   2.043   6.454 -0.6091  0.5976  0.4527
    9MOL   O868 8404   1.424   2.265   6.501 -0.2474 -0.0416  0.1016
    9MOL   C869 8405   1.237   2.002   6.677  0.0900  0.3175 -0.0897
    9MOL   C870 8406   1.158   1.993   6.791  0.4323  0.6588  0.2764
    9MOL   H871 8407   0.133   1.599   6.574 -0.4701  1.3418 -0.1594
    9MOL   H872 8408   0.054   1.639   6.729  2.1305  0.1178  2.0240
    9MOL   H873 8409   0.269   1.767   6.653  0.0665  0.3889  1.5695
    9MOL   H874 8410   0.358   1.621   6.681 -0.3678  0.3208 -1.2159
    9MOL   H875 8411   0.175   1.754   6.874  0.5146  1.9695  1.0832
    9MOL   H876 8412   0.270   1.624   6.922 -0.3286 -0.5039 -0.3478
    9MOL   H877 8413   0.385   1.902   6.826  3.4965  0.7290  1.0505
    9MOL   H878 8414   0.479   1.771   6.879  0.6483  1.7246 -0.6314
    9MOL   H879 8415   0.275   1.914   7.048  0.3371  0.5164 -0.7320
    9MOL   H880 8416   0.382   1.796   7.114  0.4830  1.7239  1.6023
    9MOL   H881 8417   0.507   2.024   6.987  0.2971 -2.0401 -1.0603
    9MOL   H882 8418   0.439   2.045   7.146  0.2412  2.2169 -1.7097
    9MOL   H883 8419   0.654   1.995   7.187 -0.9616  2.0751 -1.6952
    9MOL   H884 8420   0.568   1.852   7.227 -2.0369  0.3478 -0.4029
    9MOL   H885 8421   0.670   1.753   7.013  0.9573 -0.1581 -0.9959
    9MOL   H886 8422   0.727   1.908   6.966  2.6048  0.2111  0.2876
    9MOL   H887 8423   0.906   1.730   7.076  0.1332 -0.4476  1.4931
    9MOL   H888 8424   0.825   1.772   7.221 -1.3040  2.2199  0.6165
    9MOL   H889 8425   0.995   1.924   7.225  1.1790  0.8219 -1.0375
    9MOL   H890 8426   0.860   2.016   7.175 -1.7522 -0.4780 -2.8158
    9MOL   H891 8427   1.243   2.279   6.953 -3.5551 -0.5133 -0.3787
    9MOL   H892 8428   1.386   2.298   6.756 -0.3492  0.0331  0.0753
    9MOL   H893 8429   1.221   1.934   6.594  3.1212 -2.1925  1.2785
    9MOL   H894 8430   1.086   1.914   6.779  0.6883  0.6533 -1.2516
    9MOL   O895 8431   1.477   2.285   6.357  0.5978  0.2675 -0.0901
    9MOL   C896 8432   1.362   2.296   6.275 -0.1151  0.0740  0.3279
    9MOL   C897 8433   1.330   2.441   6.267  0.2072 -0.0855  0.1994
    9MOL   C898 8434   1.242   2.481   6.147 -0.8050 -0.6262  0.4477
    9MOL   C899 8435   1.194   2.625   6.158  0.0364  0.6870  0.0710
    9MOL   C900 8436   1.051   2.637   6.118 -0.8187 -0.6467 -0.0950
    9MOL   C901 8437   0.953   2.602   6.234  0.7941  0.1298 -0.0911
    9MOL   C902 8438   0.904   2.458   6.235 -0.2430 -0.5713 -0.2284
    9MOL   C903 8439   0.791   2.447   6.339 -0.1781 -0.0976  0.0869
    9MOL   C904 8440   0.730   2.301   6.351 -0.2799 -0.2280  0.9146
    9MOL   C905 8441   0.645   2.263   6.233  0.0643  0.1586  0.7414
    9MOL   O906 8442   0.528   2.348   6.234  0.3680  0.2561  0.0854
    9MOL   C907 8443   0.454   2.364   6.121 -0.3043  1.0918  0.2543
    9MOL   O908 8444   0.473   2.297   6.022  0.3567  0.1009 -0.1830
    9MOL   C909 8445   0.345   2.464   6.131  0.6337  0.1619  0.0740
    9MOL   C910 8446   0.290   2.501   6.256 -0.4745  0.2598 -0.5247
    9MOL   C911 8447   0.198   2.604   6.264 -0.2196 -0.4011 -0.3352
    9MOL   C912 8448   0.144   2.660   6.150 -0.2160 -0.2827 -0.0783
    9MOL   C913 8449   0.026   2.755   6.153  0.3287  0.3532  0.0271
    9MOL   O914 8450   7.953   2.792   6.043  0.4516  0.4311 -0.4399
    9MOL   O915 8451   0.000   2.810   6.278 -0.3379  0.5874 -0.0873
    9MOL   C916 8452   0.191   2.613   6.025  0.4675 -0.2142  0.2020
    9MOL   C917 8453   0.297   2.523   6.010 -0.3304 -0.0822 -0.5545
    9MOL   H918 8454   1.397   2.271   6.175  0.6635 -0.4089  0.7102
    9MOL   H919 8455   1.273   2.236   6.295 -0.3808  0.3778  0.0454
    9MOL   H920 8456   1.423   2.499   6.267  1.0271 -1.3803  0.2142
    9MOL   H921 8457   1.282   2.475   6.359 -0.8117  0.0322 -0.3706
    9MOL   H922 8458   1.295   2.472   6.052 -2.1721 -1.2100 -0.2565
    9MOL   H923 8459   1.157   2.414   6.142  0.8108 -2.6683 -0.7274
    9MOL   H924 8460   1.250   2.693   6.095  0.5743 -0.4386 -0.6791
    9MOL   H925 8461   1.208   2.659   6.261  5.1983  1.3792 -0.7288
    9MOL   H926 8462   1.043   2.745   6.111  2.8853 -0.3892 -1.5245
    9MOL   H927 8463   1.033   2.595   6.019  1.3319  0.1152 -0.8392
    9MOL   H928 8464   0.989   2.632   6.332  2.9326 -2.1111 -0.1465
    9MOL   H929 8465   0.867   2.666   6.215  0.7114 -0.0857 -0.4658
    9MOL   H930 8466   0.872   2.431   6.135 -1.6919 -2.3755  0.7040
    9MOL   H931 8467   0.990   2.392   6.251  0.4253 -0.1563 -1.9958
    9MOL   H932 8468   0.826   2.469   6.440  2.5136 -0.4454 -0.7603
    9MOL   H933 8469   0.720   2.528   6.319  1.0153  1.0593  0.4208
    9MOL   H934 8470   0.665   2.286   6.438 -1.3317  0.3531  0.2390
    9MOL   H935 8471   0.806   2.223   6.360 -0.9251 -0.8016  1.5139
    9MOL   H936 8472   0.609   2.160   6.240  1.4011 -0.4848 -1.3030
    9MOL   H937 8473   0.704   2.274   6.143  0.8913  4.4323  1.7022
    9MOL   H938 8474   0.332   2.457   6.345 -1.6097  0.9445  0.3636
    9MOL   H939 8475   0.174   2.638   6.364  2.7720 -0.8495  0.5937
    9MOL   H940 8476   0.146   2.637   5.930  2.0205 -0.6986 -0.6687
    9MOL   H941 8477   0.327   2.496   5.910  0.4734  0.8800 -0.5835
    9MOL   H942 8478   7.949   2.895   6.252 -0.6385  0.6121  0.3197
   10MOL     O1 8479   6.722   5.262   3.480  0.1561 -0.3313  0.1215
   10MOL     C2 8480   6.593   5.251   3.535  0.1804 -0.2007  0.2600
   10MOL     C3 8481   6.482   5.198   3.436 -0.0249 -0.4428 -0.5597
   10MOL     C4 8482   6.337   5.203   3.491 -0.4788  0.8243  0.5559
   10MOL     C5 8483   6.235   5.166   3.386  0.1370 -0.2739 -0.0384
   10MOL     C6 8484   6.096   5.156   3.443  0.5987 -0.3944 -0.5279
   10MOL     C7 8485   5.995   5.111   3.341  0.1746  0.3774 -0.3649
   10MOL     C8 8486   5.846   5.098   3.388  0.3701  0.0594  0.8408
   10MOL     C9 8487   5.766   5.003   3.302 -0.5448 -0.8701  0.4992
   10MOL    C10 8488   5.618   5.016   3.328 -0.0639  0.4739  1.5538
   10MOL    C11 8489   5.546   4.933   3.222  0.0800  0.0750 -1.1885
   10MOL    O12 8490   5.416   4.986   3.211  0.3286  0.3082 -0.0646
   10MOL    C13 8491   5.330   4.899   3.142  0.4770 -0.3380  0.5451
   10MOL    O14 8492   5.359   4.803   3.072 -1.1568  0.0832  0.2027
   10MOL    C15 8493   5.193   4.952   3.148  0.0502 -0.7768 -0.2823
   10MOL    C16 8494   5.085   4.886   3.071 -0.3427 -0.4289  0.4427
   10MOL    C17 8495   4.949   4.921   3.096  0.2436 -0.3833 -0.1630
   10MOL    C18 8496   4.917   5.035   3.169 -0.3393 -0.9772 -0.1268
   10MOL    C19 8497   4.777   5.069   3.188  0.0661 -0.4360 -0.7721
   10MOL    O20 8498   4.684   4.998   3.157 -0.1595 -0.2299 -0.2422
   10MOL    O21 8499   4.760   5.191   3.240 -0.1231  0.1381  0.3287
   10MOL    C22 8500   5.025   5.111   3.228 -0.9839 -0.8335  0.4236
   10MOL    C23 8501   5.161   5.067   3.222 -0.2920  0.4037  1.0250
   10MOL    H24 8502   6.585   5.186   3.622 -1.8099 -1.7635 -1.0519
   10MOL    H25 8503   6.563   5.349   3.573  0.7306 -0.8337  2.4080
   10MOL    H26 8504   6.508   5.096   3.408 -2.0096 -0.5017 -2.2732
   10MOL    H27 8505   6.496   5.256   3.345  1.2779 -1.5370 -1.0776
   10MOL    H28 8506   6.330   5.136   3.577  1.7930  0.0629  0.1618
   10MOL    H29 8507   6.316   5.306   3.522 -0.0896  0.6081  1.5427
   10MOL    H30 8508   6.263   5.068   3.348 -0.0967 -0.3335 -0.0582
   10MOL    H31 8509   6.239   5.247   3.313  1.8762 -0.4765 -0.2069
   10MOL    H32 8510   6.087   5.093   3.532 -0.5864 -0.0845 -0.4196
   10MOL    H33 8511   6.078   5.255   3.486  1.8369 -0.4310  0.1005
   10MOL    H34 8512   5.995   5.181   3.257  0.9256  1.6008  0.6377
   10MOL    H35 8513   6.034   5.021   3.293 -1.7078  0.1030 -1.4799
   10MOL    H36 8514   5.836   5.053   3.487  1.3518  1.2687  1.5004
   10MOL    H37 8515   5.800   5.197   3.388  0.9374  0.3204  0.2822
   10MOL    H38 8516   5.797   5.017   3.199 -1.0128  3.6363  0.8975
   10MOL    H39 8517   5.787   4.896   3.309  2.7204 -0.3367 -0.4229
   10MOL    H40 8518   5.607   5.124   3.318  0.5118  0.4024  0.0303
   10MOL    H41 8519   5.579   4.981   3.423 -0.0069 -1.9154  0.7359
   10MOL    H42 8520   5.547   4.826   3.238 -1.6479  0.3232  0.7851
   10MOL    H43 8521   5.584   4.934   3.120 -1.6476 -0.3031 -1.8680
   10MOL    H44 8522   5.121   4.807   3.006 -0.4491 -0.5971  0.5865
   10MOL    H45 8523   4.874   4.854   3.056 -0.7739  1.4221 -1.3406
   10MOL    H46 8524   4.992   5.195   3.287 -0.3040  0.7266 -1.3899
   10MOL    H47 8525   5.234   5.121   3.280  1.0513 -2.2658  1.9409
   10MOL    H48 8526   6.750   5.182   3.438  0.9925 -0.0335  0.1153
   10MOL    O49 8527   4.617   5.235   3.256  0.0962 -0.1575 -0.0815
   10MOL    C50 8528   4.590   5.249   3.395 -0.2506 -0.2117 -0.2317
   10MOL    C51 8529   4.463   5.328   3.412 -0.3360 -0.4991 -1.1169
   10MOL    C52 8530   4.397   5.301   3.551 -0.5910  0.6653  0.0023
   10MOL    C53 8531   4.261   5.361   3.574  0.3367 -0.6647  0.4664
   10MOL    C54 8532   4.199   5.327   3.704  0.0695  0.2129  0.2435
   10MOL    C55 8533   4.045   5.346   3.703  0.3686 -0.2429  0.2670
   10MOL    C56 8534   3.991   5.492   3.682 -1.0217  0.0111  0.0272
   10MOL    C57 8535   3.844   5.521   3.695 -0.1023  0.8467  0.6833
   10MOL    C58 8536   3.763   5.498   3.827  0.0038  0.1484  0.0254
   10MOL    C59 8537   3.612   5.545   3.833 -0.2241  0.6382  0.2001
   10MOL    O60 8538   3.589   5.678   3.790 -0.0888  0.1437 -0.0296
   10MOL    C61 8539   3.460   5.733   3.802 -0.2205 -0.1039  0.2822
   10MOL    O62 8540   3.370   5.670   3.855  0.3313 -0.0662 -0.3439
   10MOL    C63 8541   3.458   5.874   3.760 -0.5305  0.0531 -0.4173
   10MOL    C64 8542   3.578   5.930   3.710  0.5723 -0.0450  0.5421
   10MOL    C65 8543   3.580   6.063   3.666  0.2214  0.3035 -0.2266
   10MOL    C66 8544   3.464   6.140   3.663  0.9270 -0.2412  0.3288
   10MOL    C67 8545   3.471   6.285   3.611 -0.4227  0.2313  1.2156
   10MOL    O68 8546   3.577   6.338   3.579 -0.3107  0.1105  0.0111
   10MOL    O69 8547   3.362   6.348   3.611 -0.0870  0.0853  0.2290
   10MOL    C70 8548   3.347   6.087   3.722 -0.2959 -0.5074 -0.3394
   10MOL    C71 8549   3.349   5.955   3.779  1.0978 -0.0887  0.5606
   10MOL    H72 8550   4.575   5.153   3.444 -1.1072 -1.2427 -2.4603
   10MOL    H73 8551   4.666   5.297   3.457 -0.1520 -1.8137  0.8967
   10MOL    H74 8552   4.399   5.299   3.329 -0.0035 -0.3930 -1.4095
   10MOL    H75 8553   4.491   5.433   3.401 -0.0794 -0.4062  0.2633
   10MOL    H76 8554   4.398   5.195   3.577 -0.0760  0.6172 -0.2123
   10MOL    H77 8555   4.465   5.341   3.626  1.9471  0.6995 -2.2329
   10MOL    H78 8556   4.196   5.318   3.497  0.9587 -2.3479  0.8414
   10MOL    H79 8557   4.248   5.462   3.537 -1.4337 -0.8860  0.4203
   10MOL    H80 8558   4.210   5.226   3.741  2.1273  0.5036  0.4686
   10MOL    H81 8559   4.257   5.382   3.777  1.5464 -1.1564  0.1252
   10MOL    H82 8560   3.994   5.283   3.630  1.0484 -0.3795 -0.0913
   10MOL    H83 8561   3.995   5.317   3.796  0.3366 -0.6798  0.1173
   10MOL    H84 8562   4.051   5.558   3.745  0.4235  0.7167 -2.0455
   10MOL    H85 8563   4.017   5.518   3.579 -1.8699  0.8215  0.0188
   10MOL    H86 8564   3.829   5.623   3.662 -1.9123  0.3256 -0.1756
   10MOL    H87 8565   3.805   5.473   3.605 -0.6076  1.5443  0.5299
   10MOL    H88 8566   3.819   5.560   3.896  0.4440  1.5338 -1.5541
   10MOL    H89 8567   3.766   5.397   3.867  0.1881  0.2963  0.3845
   10MOL    H90 8568   3.568   5.520   3.930 -3.4400 -0.9048 -1.5631
   10MOL    H91 8569   3.559   5.482   3.761 -0.9610 -1.7973  2.7820
   10MOL    H92 8570   3.674   5.880   3.714  0.1379 -0.9045  0.1941
   10MOL    H93 8571   3.679   6.097   3.639  1.1783 -0.0420  2.6939
   10MOL    H94 8572   3.263   6.154   3.708 -0.4778 -0.6540  0.0640
   10MOL    H95 8573   3.264   5.916   3.833  1.6376 -0.2886  1.2791
   10MOL    O96 8574   3.370   6.489   3.627  0.0230 -0.3788 -0.1615
   10MOL    C97 8575   3.323   6.559   3.508  0.9057 -0.7047 -0.3693
   10MOL    C98 8576   3.387   6.699   3.493 -0.5213  0.2588 -0.2522
   10MOL    C99 8577   3.538   6.690   3.495 -0.3592 -0.0724  0.5841
   10MOL   C100 8578   3.607   6.825   3.466  0.0934  0.1099 -0.1230
   10MOL   C101 8579   3.753   6.803   3.446 -0.3615 -0.4904  0.3619
   10MOL   C102 8580   3.837   6.934   3.426  0.0415  0.0445 -1.0691
   10MOL   C103 8581   3.965   6.902   3.343  0.0268  0.6358  0.6123
   10MOL   C104 8582   4.066   7.018   3.324  0.6263 -0.0272 -0.5386
   10MOL   C105 8583   4.158   6.990   3.210  1.1618 -0.0821 -0.0728
   10MOL   C106 8584   4.286   7.082   3.205  0.5303 -0.2370 -0.2867
   10MOL   O107 8585   4.264   7.173   3.098 -0.1141 -0.2971  0.7269
   10MOL   C108 8586   4.372   7.252   3.070 -0.5070  0.0276 -0.2214
   10MOL   O109 8587   4.479   7.242   3.132  0.3289 -0.2649 -0.2186
   10MOL   C110 8588   4.339   7.354   2.961  0.8095  0.1816 -0.5735
   10MOL   C111 8589   4.446   7.427   2.903  0.1096 -0.3045 -0.6586
   10MOL   C112 8590   4.423   7.542   2.828 -0.3202  0.0802  0.1209
   10MOL   C113 8591   4.291   7.579   2.787 -0.1362 -0.1253 -0.2144
   10MOL   C114 8592   4.267   7.696   2.696  0.6347 -0.1540 -0.3763
   10MOL   O115 8593   4.157   7.731   2.655 -0.1288  0.1535 -0.4519
   10MOL   O116 8594   4.377   7.764   2.658  0.2066  0.1943  0.2169
   10MOL   C117 8595   4.182   7.503   2.833 -0.1586  0.2311 -0.0389
   10MOL   C118 8596   4.206   7.399   2.930  0.1901  0.1450 -0.0363
   10MOL   H119 8597   3.345   6.494   3.424 -1.4843 -0.8672 -0.9199
   10MOL   H120 8598   3.215   6.568   3.520  0.9585 -1.3135  0.6908
   10MOL   H121 8599   3.351   6.771   3.567  2.1893 -0.4339  1.8131
   10MOL   H122 8600   3.371   6.737   3.392  2.5070 -1.4116 -1.4139
   10MOL   H123 8601   3.571   6.648   3.590  1.3697 -2.4278 -0.9917
   10MOL   H124 8602   3.577   6.614   3.427  2.3881 -0.1469  2.1890
   10MOL   H125 8603   3.595   6.892   3.551 -1.3533  0.0418 -0.2548
   10MOL   H126 8604   3.561   6.873   3.379 -3.0284 -1.1970  0.7600
   10MOL   H127 8605   3.804   6.752   3.528  1.9962 -1.3112 -1.5699
   10MOL   H128 8606   3.768   6.736   3.362 -0.3148 -0.7636  0.5873
   10MOL   H129 8607   3.786   7.007   3.363 -1.4098 -0.5184 -0.5613
   10MOL   H130 8608   3.859   6.980   3.522 -0.7657 -0.1944 -0.7696
   10MOL   H131 8609   4.028   6.823   3.385  0.8691 -0.3057 -2.3019
   10MOL   H132 8610   3.937   6.875   3.242 -0.2142 -1.9220  1.3268
   10MOL   H133 8611   4.021   7.115   3.303  0.8191  0.5947  1.7353
   10MOL   H134 8612   4.121   7.028   3.418 -0.1750  0.6834 -0.1338
   10MOL   H135 8613   4.103   7.005   3.117  3.5053  0.1387 -1.4521
   10MOL   H136 8614   4.183   6.884   3.200 -1.5285 -0.5658 -2.2124
   10MOL   H137 8615   4.372   7.017   3.188  0.2868 -1.1809  1.9284
   10MOL   H138 8616   4.309   7.136   3.297 -0.0277 -0.6694  0.1009
   10MOL   H139 8617   4.548   7.405   2.931  0.5379  1.7385 -0.5417
   10MOL   H140 8618   4.507   7.607   2.811 -0.9225  0.2682 -2.2045
   10MOL   H141 8619   4.079   7.527   2.808 -0.1480  1.1982  0.8426
   10MOL   H142 8620   4.127   7.357   2.991  1.5797 -0.7116  1.2233
   10MOL   O143 8621   4.355   7.881   2.566  0.6251  0.8855 -0.9017
   10MOL   C144 8622   4.389   7.840   2.431  0.2755 -0.3263  0.2691
   10MOL   C145 8623   4.312   7.928   2.330  0.0071 -0.2475  0.1519
   10MOL   C146 8624   4.159   7.921   2.353  0.1413 -0.2062  0.0497
   10MOL   C147 8625   4.076   7.959   2.230  0.1125  0.5540 -0.2128
   10MOL   C148 8626   3.933   7.899   2.233 -0.7182  0.3100  0.7436
   10MOL   C149 8627   3.863   7.910   2.096  1.1844  0.2133  1.2671
   10MOL   C150 8628   3.725   7.839   2.093  0.2814  0.6607  0.4573
   10MOL   C151 8629   3.634   7.838   2.218 -0.1795  0.0756 -0.2928
   10MOL   C152 8630   3.507   7.754   2.197  0.8154 -0.8871 -0.6590
   10MOL   C153 8631   3.425   7.746   2.318 -0.5694  0.2585  0.1357
   10MOL   O154 8632   3.357   7.868   2.330  0.3215  0.5653  0.4691
   10MOL   C155 8633   3.270   7.885   2.435 -0.4150 -0.2558 -0.0216
   10MOL   O156 8634   3.250   7.803   2.531  0.1462  0.5942  0.1261
   10MOL   C157 8635   3.194   0.033   2.429  0.5757 -0.2572  0.4944
   10MOL   C158 8636   3.119   0.075   2.535  0.0834 -0.3254  0.4809
   10MOL   C159 8637   3.055   0.201   2.521 -0.3753 -0.2105 -1.1433
   10MOL   C160 8638   3.052   0.276   2.399  0.0330 -0.7866  0.0291
   10MOL   C161 8639   2.986   0.414   2.398 -0.4278 -0.2216  0.2638
   10MOL   O162 8640   2.940   0.464   2.503  0.7302  0.2046 -0.1910
   10MOL   O163 8641   2.981   0.467   2.272 -0.1782  0.6270 -0.5349
   10MOL   C164 8642   3.123   0.226   2.288  0.6415  0.2787 -0.7119
   10MOL   C165 8643   3.201   0.104   2.306 -0.2253 -0.0450 -0.1242
   10MOL   H166 8644   4.492   7.872   2.409  0.9676 -3.1030 -0.6409
   10MOL   H167 8645   4.377   7.734   2.411  2.3313 -0.2888 -1.3975
   10MOL   H168 8646   4.332   7.881   2.234 -0.7972 -0.5339  0.1149
   10MOL   H169 8647   4.343   0.054   2.338 -0.7696 -0.0689  0.8880
   10MOL   H170 8648   4.130   7.824   2.394  0.7473 -0.0826  0.7743
   10MOL   H171 8649   4.132   0.014   2.431  0.3078  0.2209 -0.2795
   10MOL   H172 8650   4.102   7.919   2.131 -2.5252 -2.5040  0.2621
   10MOL   H173 8651   4.077   0.089   2.216 -1.0489  0.5065 -0.7116
   10MOL   H174 8652   3.946   7.792   2.252  3.5147  0.7111  0.6607
   10MOL   H175 8653   3.869   7.947   2.307 -2.0512  2.0163 -1.4550
   10MOL   H176 8654   3.838   0.036   2.077 -0.4968 -0.4658 -0.4176
   10MOL   H177 8655   3.925   7.879   2.011 -1.5242  1.0654 -1.1096
   10MOL   H178 8656   3.658   7.879   2.017  0.3228 -1.1042 -0.5296
   10MOL   H179 8657   3.733   7.733   2.067 -1.1335  1.2281 -2.4649
   10MOL   H180 8658   3.680   7.822   2.316  0.3968  1.2299 -0.3640
   10MOL   H181 8659   3.607   7.944   2.221  2.4313  0.8115 -1.1147
   10MOL   H182 8660   3.520   7.652   2.161  0.4946 -1.1888  0.0830
   10MOL   H183 8661   3.448   7.793   2.114  0.4857 -1.4530 -0.6911
   10MOL   H184 8662   3.490   7.735   2.404 -0.7412  0.9399  0.3591
   10MOL   H185 8663   3.358   7.661   2.306 -0.7389  0.5918 -1.3710
   10MOL   H186 8664   3.128   0.018   2.627  3.6044 -1.2327 -0.3561
   10MOL   H187 8665   3.013   0.237   2.614  1.1740 -0.2692 -0.4122
   10MOL   H188 8666   3.122   0.277   2.193 -3.2378  0.3759 -0.6960
   10MOL   H189 8667   3.259   0.073   2.221 -0.5559  0.0840 -0.3974
   10MOL   O190 8668   2.911   0.599   2.265 -0.0454  0.0975 -0.7139
   10MOL   C191 8669   2.781   0.583   2.210 -0.2193 -0.6557  0.4294
   10MOL   C192 8670   2.716   0.723   2.232 -1.2366 -0.7631 -0.6245
   10MOL   C193 8671   2.719   0.777   2.377  0.4922  0.0060  0.2562
   10MOL   C194 8672   2.624   0.890   2.411  0.1257 -0.1212  0.4044
   10MOL   C195 8673   2.479   0.844   2.421  0.4368 -0.6191 -0.7565
   10MOL   C196 8674   2.376   0.947   2.383 -0.7419  0.6904 -0.6931
   10MOL   C197 8675   2.236   0.893   2.363  0.4825 -0.1071 -0.4229
   10MOL   C198 8676   2.133   1.003   2.342  0.4840 -0.1702 -0.9113
   10MOL   C199 8677   2.104   1.105   2.457  0.2449  0.2251 -0.1817
   10MOL   C200 8678   2.031   1.043   2.577  0.2147 -1.0498  0.3556
   10MOL   O201 8679   2.120   0.973   2.667  0.4001 -0.3880 -0.3171
   10MOL   C202 8680   2.091   0.871   2.732 -0.4652 -0.2376  0.0896
   10MOL   O203 8681   1.989   0.805   2.729  0.0541 -0.1475 -0.5900
   10MOL   C204 8682   2.214   0.828   2.800 -0.8163 -0.5726 -0.2523
   10MOL   C205 8683   2.335   0.899   2.810 -0.2996 -0.5899  0.3505
   10MOL   C206 8684   2.451   0.862   2.877 -0.2065  0.1337 -0.6274
   10MOL   C207 8685   2.449   0.748   2.956 -0.3375 -0.0461 -0.5898
   10MOL   C208 8686   2.565   0.712   3.043  0.3140 -0.3340  0.9238
   10MOL   O209 8687   2.666   0.785   3.048 -0.3576 -0.6045  0.2711
   10MOL   O210 8688   2.557   0.591   3.100  0.1085 -0.2830  0.8323
   10MOL   C211 8689   2.332   0.667   2.946 -0.0258  0.0195  0.4640
   10MOL   C212 8690   2.219   0.704   2.860  0.2558 -0.7557 -0.3023
   10MOL   H213 8691   2.790   0.552   2.106 -0.9683 -1.6221  0.6464
   10MOL   H214 8692   2.731   0.497   2.255 -0.1782 -0.5810  0.6207
   10MOL   H215 8693   2.611   0.726   2.204 -1.0262 -0.5749 -1.4029
   10MOL   H216 8694   2.762   0.787   2.157 -0.1779 -2.6176 -1.6216
   10MOL   H217 8695   2.701   0.695   2.447  1.9918  0.9864  1.8318
   10MOL   H218 8696   2.823   0.807   2.393  1.2173 -0.8881 -2.4224
   10MOL   H219 8697   2.628   0.966   2.332 -2.2366 -0.5427 -0.1550
   10MOL   H220 8698   2.654   0.947   2.499  0.3496  0.5793 -0.1205
   10MOL   H221 8699   2.459   0.755   2.360  0.5375 -1.4379  0.3969
   10MOL   H222 8700   2.458   0.803   2.519 -0.2758  0.7153 -0.3412
   10MOL   H223 8701   2.370   1.017   2.466  3.3719  0.4714 -0.1214
   10MOL   H224 8702   2.399   1.014   2.301  0.9215 -0.7393 -1.4243
   10MOL   H225 8703   2.234   0.826   2.277 -0.3777 -1.2457  0.4854
   10MOL   H226 8704   2.213   0.830   2.448  1.6480 -0.5102 -0.3997
   10MOL   H227 8705   2.165   1.057   2.252  0.9795 -1.6935 -1.6805
   10MOL   H228 8706   2.037   0.965   2.308 -0.3276  0.0643  1.0863
   10MOL   H229 8707   2.041   1.183   2.414 -0.6337  0.0140  0.7021
   10MOL   H230 8708   2.194   1.155   2.492 -0.5314  1.0485  0.6589
   10MOL   H231 8709   1.949   0.981   2.541 -1.5369  1.0974  0.5546
   10MOL   H232 8710   1.996   1.127   2.637  0.1778  0.0481 -1.1746
   10MOL   H233 8711   2.343   0.995   2.761  0.5698 -0.1486  1.3181
   10MOL   H234 8712   2.538   0.926   2.872  0.3707 -0.7721 -2.7513
   10MOL   H235 8713   2.326   0.575   3.001 -0.2789 -0.6836 -0.7157
   10MOL   H236 8714   2.137   0.634   2.864  0.3088 -0.8101 -0.1466
   10MOL   O237 8715   2.654   0.576   3.210  0.1435  0.6854  0.2502
   10MOL   C238 8716   2.585   0.602   3.328 -0.3251 -0.1409  0.3981
   10MOL   C239 8717   2.474   0.500   3.351 -1.3318 -0.6233 -0.4999
   10MOL   C240 8718   2.421   0.499   3.493 -0.5166  1.0955 -0.1730
   10MOL   C241 8719   2.305   0.404   3.514 -0.1465  0.1188  0.1075
   10MOL   C242 8720   2.169   0.454   3.462  0.0529  0.0363  0.1102
   10MOL   C243 8721   2.046   0.373   3.496  0.6553 -0.5125 -0.1584
   10MOL   C244 8722   1.901   0.438   3.482 -0.2481 -0.1409 -0.1306
   10MOL   C245 8723   1.793   0.376   3.573  0.4764  0.4355  0.6541
   10MOL   C246 8724   1.644   0.393   3.535 -0.0953 -0.0225  0.0411
   10MOL   C247 8725   1.609   0.539   3.532 -0.1111  0.2887  0.3504
   10MOL   O248 8726   1.468   0.551   3.500 -0.7584 -0.2478  0.4517
   10MOL   C249 8727   1.427   0.571   3.365  0.1653  0.4844 -0.0360
   10MOL   O250 8728   1.505   0.580   3.273 -0.4183  0.4409 -0.0808
   10MOL   C251 8729   1.285   0.597   3.353  0.1731  0.2160  0.5687
   10MOL   C252 8730   1.201   0.591   3.468  0.5710  0.3157 -0.2554
   10MOL   C253 8731   1.063   0.610   3.459 -0.0594 -0.3832  0.0379
   10MOL   C254 8732   0.998   0.640   3.340 -0.0004 -0.5789  1.2171
   10MOL   C255 8733   0.856   0.662   3.341 -0.6250 -0.6738 -0.0420
   10MOL   O256 8734   0.781   0.630   3.434 -0.3545 -0.4685  0.4586
   10MOL   O257 8735   0.823   0.729   3.240 -0.1971 -0.2711  0.1685
   10MOL   C258 8736   1.085   0.654   3.223 -0.2268 -0.5117  0.5271
   10MOL   C259 8737   1.222   0.636   3.234 -0.8327 -0.4576  0.1827
   10MOL   H260 8738   2.658   0.614   3.409  0.8507  1.3947 -0.8582
   10MOL   H261 8739   2.545   0.702   3.317  1.6650  0.8328  1.6047
   10MOL   H262 8740   2.510   0.399   3.333 -0.5004 -0.0136 -2.3728
   10MOL   H263 8741   2.394   0.504   3.277 -0.9201  0.8001 -0.8760
   10MOL   H264 8742   2.501   0.471   3.563 -0.8003  2.2978  0.6486
   10MOL   H265 8743   2.399   0.599   3.529  0.4595  1.0565  0.5792
   10MOL   H266 8744   2.302   0.397   3.623  0.6252 -0.6112  0.0949
   10MOL   H267 8745   2.325   0.306   3.471  1.2079  0.5815 -0.3649
   10MOL   H268 8746   2.155   0.547   3.517 -2.7672  0.4409 -1.2074
   10MOL   H269 8747   2.165   0.472   3.354 -0.7332 -1.5992 -0.1527
   10MOL   H270 8748   2.044   0.285   3.432  0.3455 -2.2356  2.1417
   10MOL   H271 8749   2.055   0.327   3.594  0.6694 -1.5547 -0.6420
   10MOL   H272 8750   1.914   0.545   3.495  0.9897 -0.5536  2.4430
   10MOL   H273 8751   1.870   0.426   3.378 -0.9942  1.8887 -0.1678
   10MOL   H274 8752   1.821   0.272   3.588 -2.5877 -0.5268  0.0699
   10MOL   H275 8753   1.805   0.434   3.664 -2.6241  0.5909  1.0046
   10MOL   H276 8754   1.593   0.356   3.624  0.1211  1.5107  0.8275
   10MOL   H277 8755   1.618   0.345   3.441  0.7538 -0.7877  0.1867
   10MOL   H278 8756   1.668   0.591   3.457  1.7390 -1.9969  0.1891
   10MOL   H279 8757   1.627   0.588   3.628 -0.2687  0.6395  0.2023
   10MOL   H280 8758   1.240   0.557   3.562  0.0901 -1.0391 -0.5420
   10MOL   H281 8759   1.016   0.593   3.555  0.4891  0.9086  0.5408
   10MOL   H282 8760   1.047   0.696   3.131 -2.9984  1.3665  2.4383
   10MOL   H283 8761   1.281   0.647   3.144  0.3323  0.3498  1.0443
   10MOL   O284 8762   0.675   0.746   3.225 -0.5199  0.6265 -0.0857
   10MOL   C285 8763   0.614   0.644   3.147  0.5411 -0.5176 -0.8279
   10MOL   C286 8764   0.673   0.639   3.007  0.4753  0.2543 -0.4301
   10MOL   C287 8765   0.793   0.539   2.990  0.0220 -0.9224 -0.3206
   10MOL   C288 8766   0.852   0.537   2.851  0.5601 -0.5639 -0.3000
   10MOL   C289 8767   0.977   0.457   2.839 -0.4170 -0.0504 -0.5442
   10MOL   C290 8768   1.023   0.446   2.690 -0.8369  0.1677  0.0200
   10MOL   C291 8769   1.149   0.530   2.663 -0.4063 -0.1278 -0.2250
   10MOL   C292 8770   1.177   0.558   2.514 -0.3397  0.2992 -0.3693
   10MOL   C293 8771   1.282   0.670   2.494 -0.9969 -0.4754 -0.0249
   10MOL   C294 8772   1.384   0.642   2.378 -0.9335  0.4624  0.5682
   10MOL   O295 8773   1.317   0.649   2.248 -0.1496  0.2253  0.0234
   10MOL   C296 8774   1.286   0.537   2.181  0.0632 -0.1775  0.7373
   10MOL   O297 8775   1.305   0.426   2.225  0.1253  0.0454  0.3378
   10MOL   C298 8776   1.209   0.568   2.057 -0.0348  0.6041 -0.2464
   10MOL   C299 8777   1.173   0.702   2.027 -0.3223 -0.0437 -0.2649
   10MOL   C300 8778   1.108   0.739   1.910  0.4846 -0.3444  0.4069
   10MOL   C301 8779   1.073   0.637   1.821 -1.0812  0.3653 -0.1881
   10MOL   C302 8780   0.992   0.679   1.698 -0.0414 -0.2728 -0.7002
   10MOL   O303 8781   0.980   0.797   1.658 -0.5822  0.7439  0.0539
   10MOL   O304 8782   0.938   0.574   1.639  0.1874  0.3419  0.0640
   10MOL   C305 8783   1.087   0.500   1.851 -0.5080  0.2214 -0.4511
   10MOL   C306 8784   1.169   0.468   1.963 -0.1478  0.0424  0.3336
   10MOL   H307 8785   0.610   0.548   3.198  1.2889  0.4929  1.1871
   10MOL   H308 8786   0.508   0.672   3.143  0.5901  0.0249  1.2350
   10MOL   H309 8787   0.703   0.741   2.981  1.2303  0.0708 -0.2926
   10MOL   H310 8788   0.589   0.606   2.946  0.3493 -0.7757  0.2976
   10MOL   H311 8789   0.877   0.552   3.058  0.5842  0.7147 -1.2843
   10MOL   H312 8790   0.766   0.439   3.023  1.0314 -0.8982  0.6019
   10MOL   H313 8791   0.868   0.641   2.823 -0.2487 -0.4535 -0.3598
   10MOL   H314 8792   0.773   0.500   2.787  1.6921  0.2755 -2.2081
   10MOL   H315 8793   1.053   0.501   2.903  1.1593  0.3428 -2.6265
   10MOL   H316 8794   0.952   0.359   2.879  1.0213 -0.2088 -0.0062
   10MOL   H317 8795   1.035   0.338   2.679 -1.6595  0.0933 -0.1777
   10MOL   H318 8796   0.943   0.471   2.621 -0.0840 -0.2172 -1.0161
   10MOL   H319 8797   1.125   0.620   2.719  2.3460  0.6950 -0.2985
   10MOL   H320 8798   1.235   0.487   2.715 -0.4813 -1.5477 -1.2291
   10MOL   H321 8799   1.204   0.464   2.465  1.7993 -0.8797  2.8856
   10MOL   H322 8800   1.081   0.575   2.464 -1.1288 -1.9693  0.3248
   10MOL   H323 8801   1.336   0.665   2.588 -0.7747 -0.0305 -0.1253
   10MOL   H324 8802   1.248   0.774   2.500 -0.8187 -0.5254  2.1799
   10MOL   H325 8803   1.429   0.544   2.393  0.1180  0.4716 -2.2683
   10MOL   H326 8804   1.466   0.712   2.365  2.4007 -3.3890 -0.4591
   10MOL   H327 8805   1.204   0.776   2.100  0.2185 -0.4689 -0.0695
   10MOL   H328 8806   1.100   0.841   1.876 -0.9516  0.2762  2.5409
   10MOL   H329 8807   1.053   0.418   1.790  0.6199 -0.2540 -0.4545
   10MOL   H330 8808   1.194   0.367   1.992 -4.1326 -1.0995  0.0712
   10MOL   O331 8809   0.850   0.624   1.528  0.3107  0.6222  0.1324
   10MOL   C332 8810   0.719   0.618   1.565  0.1382 -0.4879  0.3524
   10MOL   C333 8811   0.646   0.487   1.544 -0.4908  0.2165 -0.1853
   10MOL   C334 8812   0.610   0.447   1.406  0.7182 -0.4505 -0.5699
   10MOL   C335 8813   0.470   0.394   1.389  0.2997  0.1630  0.4562
   10MOL   C336 8814   0.457   0.262   1.466  0.6215  0.6770 -0.1530
   10MOL   C337 8815   0.537   0.142   1.410  0.0405  0.4734  0.2620
   10MOL   C338 8816   0.492   0.016   1.479  0.5193  0.3983 -0.2641
   10MOL   C339 8817   0.544   7.868   1.424  0.2271 -0.1458 -0.0084
   10MOL   C340 8818   0.511   7.826   1.278  0.3120 -0.5579 -0.7496
   10MOL   C341 8819   0.553   7.685   1.248  0.8219  0.1651  0.2630
   10MOL   O342 8820   0.528   7.635   1.116 -0.0747 -0.5336 -0.0416
   10MOL   C343 8821   0.573   7.515   1.067  0.4995  0.5734 -0.5207
   10MOL   O344 8822   0.630   7.427   1.134  0.0954  0.0654  0.0989
   10MOL   C345 8823   0.549   7.495   0.917 -0.5064 -0.5649 -0.1551
   10MOL   C346 8824   0.475   7.592   0.837 -0.1737  0.0825  0.1666
   10MOL   C347 8825   0.445   7.562   0.706 -0.3548 -0.0211 -0.1898
   10MOL   C348 8826   0.495   7.448   0.643 -0.0315  0.8182  0.1852
   10MOL   C349 8827   0.477   7.435   0.499 -0.8114  0.4009  0.0264
   10MOL   O350 8828   0.449   7.327   0.447 -0.6042 -0.5407  0.1563
   10MOL   O351 8829   0.482   7.552   0.431 -0.3565 -0.3017 -0.0984
   10MOL   C352 8830   0.564   7.350   0.714 -0.1250  0.6082 -0.0583
   10MOL   C353 8831   0.591   7.377   0.853  0.1439 -0.5077  0.1353
   10MOL   H354 8832   0.699   0.653   1.666 -1.5461 -3.0758  0.9458
   10MOL   H355 8833   0.670   0.693   1.502 -2.4328 -1.0256  1.6323
   10MOL   H356 8834   0.556   0.479   1.605  0.9169 -1.3391  1.7823
   10MOL   H357 8835   0.707   0.405   1.581  0.5939  0.0442 -2.2936
   10MOL   H358 8836   0.603   0.535   1.342 -0.5168 -1.9234 -2.4840
   10MOL   H359 8837   0.687   0.382   1.364  1.1136  0.5297 -1.3747
   10MOL   H360 8838   0.446   0.385   1.283 -0.4364 -0.5733  0.6781
   10MOL   H361 8839   0.399   0.465   1.432  0.7659  1.7513 -1.3337
   10MOL   H362 8840   0.488   0.268   1.570  1.2579 -0.4005 -0.2727
   10MOL   H363 8841   0.351   0.240   1.471  1.3474 -3.1012  0.0294
   10MOL   H364 8842   0.535   0.130   1.301  1.4759  2.4164  0.0096
   10MOL   H365 8843   0.643   0.152   1.431  0.4126  0.1593 -1.4017
   10MOL   H366 8844   0.530   0.018   1.581 -0.2395 -0.3817  0.0435
   10MOL   H367 8845   0.384   7.978   1.482  0.6795 -0.5049  1.0156
   10MOL   H368 8846   0.651   7.854   1.437  0.4556  1.5079  0.0065
   10MOL   H369 8847   0.498   7.786   1.479  0.1688  0.5721  1.0237
   10MOL   H370 8848   0.558   7.891   1.204  0.5174 -1.1120 -1.1165
   10MOL   H371 8849   0.403   7.839   1.267  0.1500  0.4501  1.6899
   10MOL   H372 8850   0.517   7.611   1.319 -0.7013  0.7890  0.1462
   10MOL   H373 8851   0.662   7.685   1.252  0.9185  2.1717 -1.4484
   10MOL   H374 8852   0.445   7.689   0.874 -0.2467 -0.0987  0.5816
   10MOL   H375 8853   0.393   7.639   0.651  0.3897  0.6580  0.0353
   10MOL   H376 8854   0.602   7.254   0.682  1.8943  0.5315  2.3754
   10MOL   H377 8855   0.644   7.302   0.909  0.7593  0.5923  1.0455
   10MOL   O378 8856   0.415   7.542   0.294 -0.0934 -0.2453  0.0168
   10MOL   C379 8857   0.517   7.520   0.197  0.4639  1.0516 -0.2565
   10MOL   C380 8858   0.459   7.521   0.056 -0.1268 -0.3823 -0.1198
   10MOL   C381 8859   0.356   7.404   0.034  0.1208 -0.3148 -0.5352
   10MOL   C382 8860   0.305   7.395   7.871  0.5745  0.0364  0.6366
   10MOL   C383 8861   0.414   7.365   7.769  0.2527  0.9519  0.1250
   10MOL   C384 8862   0.352   7.348   7.635 -0.4963 -0.4141 -0.4512
   10MOL   C385 8863   0.332   7.481   7.557  0.9892  0.8501 -1.0129
   10MOL   C386 8864   0.256   7.465   7.427 -0.1882 -0.3075 -0.0604
   10MOL   C387 8865   0.234   7.595   7.346 -0.4298  0.0916 -0.2119
   10MOL   C388 8866   0.171   7.708   7.426  1.3827 -0.7032 -0.2454
   10MOL   O389 8867   0.256   7.779   7.511 -0.0564 -0.3015 -0.4066
   10MOL   C390 8868   0.214   7.895   7.562 -0.5300 -0.7573  0.0621
   10MOL   O391 8869   0.108   7.948   7.529  0.2926  0.5052  0.0593
   10MOL   C392 8870   0.308   7.953   7.669 -0.2014 -0.3320  0.0514
   10MOL   C393 8871   0.424   7.882   7.717 -0.2868 -0.0496 -0.5006
   10MOL   C394 8872   0.502   7.947   7.813  0.3712  0.5134  0.5147
   10MOL   C395 8873   0.479   0.099   7.860 -0.3333 -0.8074  0.3957
   10MOL   C396 8874   0.553   0.157   7.968  0.0198  0.1885  0.7328
   10MOL   O397 8875   0.659   0.105   0.026 -0.0615 -1.1652 -0.2337
   10MOL   O398 8876   0.505   0.267   0.055  0.6040  0.1130  0.5074
   10MOL   C399 8877   0.372   0.168   7.805  0.1638 -0.1886 -0.1879
   10MOL   C400 8878   0.288   0.107   7.710  0.4545  0.5759  0.4845
   10MOL   H401 8879   0.595   7.596   0.208  2.6443 -1.1581 -0.0073
   10MOL   H402 8880   0.569   7.426   0.214 -4.2179 -1.3919  1.4665
   10MOL   H403 8881   0.542   7.503   7.966 -2.6879 -0.1975 -3.4134
   10MOL   H404 8882   0.420   7.621   0.036 -0.7061 -0.3586  1.0598
   10MOL   H405 8883   0.387   7.308   0.076 -0.7559 -0.5293 -0.3494
   10MOL   H406 8884   0.271   7.434   0.096  1.5567 -1.4266  2.0298
   10MOL   H407 8885   0.262   7.489   7.837  1.2782  1.1485  2.6933
   10MOL   H408 8886   0.222   7.325   7.861  0.3446  0.3122  0.6104
   10MOL   H409 8887   0.496   7.437   7.777  0.8082  0.3134  0.2401
   10MOL   H410 8888   0.468   7.275   7.796  1.9810  1.6591 -0.8138
   10MOL   H411 8889   0.419   7.273   7.593 -1.0289 -0.7055 -0.7925
   10MOL   H412 8890   0.258   7.294   7.653  0.2421 -1.6015 -0.1081
   10MOL   H413 8891   0.266   7.537   7.623 -1.3308 -2.5705 -0.2483
   10MOL   H414 8892   0.423   7.537   7.537  2.1688  0.4586  2.8989
   10MOL   H415 8893   0.306   7.385   7.373  1.0159 -0.1685  0.8385
   10MOL   H416 8894   0.155   7.429   7.449 -0.6651  0.9324 -0.1530
   10MOL   H417 8895   0.176   7.574   7.257 -1.4905 -0.8031  0.6707
   10MOL   H418 8896   0.332   7.620   7.306 -0.6453  1.0483 -0.1441
   10MOL   H419 8897   0.079   7.679   7.476  1.9114 -0.8015  0.6757
   10MOL   H420 8898   0.137   7.778   7.349  2.7768 -0.8249 -0.9970
   10MOL   H421 8899   0.454   7.788   7.673 -1.1264 -1.3658  1.6933
   10MOL   H422 8900   0.587   7.891   7.848  2.5094  2.0109 -2.0110
   10MOL   H423 8901   0.339   0.267   7.834 -0.7942 -0.7195  0.5798
   10MOL   H424 8902   0.202   0.161   7.673  0.5833 -0.3942 -1.2516
   10MOL   O425 8903   0.603   0.320   0.159 -0.2520 -0.6073 -0.3151
   10MOL   C426 8904   0.562   0.301   0.291  0.4268 -0.1402  0.8382
   10MOL   C427 8905   0.679   0.331   0.379  0.4666 -0.0004 -0.0991
   10MOL   C428 8906   0.803   0.242   0.365  0.3863 -0.8954 -0.3080
   10MOL   C429 8907   0.926   0.268   0.455 -0.4635 -0.0755  0.3381
   10MOL   C430 8908   0.884   0.258   0.601 -0.2549  0.7333 -0.2243
   10MOL   C431 8909   0.992   0.269   0.706 -0.0672 -0.6634  0.1367
   10MOL   C432 8910   1.076   0.151   0.700  0.2662  0.3117 -1.0779
   10MOL   C433 8911   1.195   0.164   0.788  0.0594 -0.2481  0.6251
   10MOL   C434 8912   1.262   0.031   0.809 -0.4489 -0.2785  0.5996
   10MOL   C435 8913   1.410   0.048   0.873 -0.2848  0.2437 -0.2140
   10MOL   O436 8914   1.392   0.076   1.008  0.2257 -0.5175 -0.6430
   10MOL   C437 8915   1.402   0.200   1.053  0.3241 -0.5371 -0.5433
   10MOL   O438 8916   1.414   0.307   0.982 -0.4382  0.0963  0.5399
   10MOL   C439 8917   1.366   0.209   1.204  0.9464  0.2403  0.5011
   10MOL   C440 8918   1.303   0.324   1.252 -0.1712 -0.7619  0.1349
   10MOL   C441 8919   1.276   0.343   1.391  0.8093 -0.5368  0.0318
   10MOL   C442 8920   1.309   0.245   1.484  0.7770  0.2509  0.2823
   10MOL   C443 8921   1.314   0.278   1.633 -0.5556  1.2432  0.5532
   10MOL   O444 8922   1.292   0.386   1.671 -0.4111 -0.0949 -0.1019
   10MOL   O445 8923   1.326   0.160   1.708 -0.0501 -0.1654 -0.5058
   10MOL   C446 8924   1.362   0.121   1.434 -0.1072  0.5942 -0.8113
   10MOL   C447 8925   1.382   0.105   1.298  0.1594 -0.1368  1.1290
   10MOL   H448 8926   0.476   0.364   0.315  0.4579  0.0223  0.5273
   10MOL   H449 8927   0.525   0.198   0.296 -0.2650  0.0965  0.7063
   10MOL   H450 8928   0.641   0.311   0.479 -1.4412 -1.2958 -1.0453
   10MOL   H451 8929   0.716   0.433   0.384  0.9654 -0.0896 -1.7410
   10MOL   H452 8930   0.768   0.141   0.385  2.3143 -1.5498 -0.1697
   10MOL   H453 8931   0.837   0.251   0.262  1.1213 -0.2797 -0.0185
   10MOL   H454 8932   0.976   0.363   0.435  1.4338 -1.0984  0.1265
   10MOL   H455 8933   1.000   0.190   0.439 -2.5090 -2.1576  0.6235
   10MOL   H456 8934   0.817   0.342   0.618 -2.4297 -0.2996 -3.2790
   10MOL   H457 8935   0.829   0.166   0.622  1.1770 -0.2086 -0.5568
   10MOL   H458 8936   1.044   0.364   0.696 -0.9799 -0.1752 -0.0747
   10MOL   H459 8937   0.951   0.264   0.807  1.8836 -1.5809  0.9092
   10MOL   H460 8938   1.020   0.065   0.737  1.2495  0.5730  1.1272
   10MOL   H461 8939   1.117   0.135   0.601  0.8474  0.2272 -0.8247
   10MOL   H462 8940   1.264   0.240   0.752 -0.4181 -0.1140 -0.0074
   10MOL   H463 8941   1.177   0.206   0.887  0.3227  1.7006 -0.1312
   10MOL   H464 8942   1.270   7.959   0.713  1.5990 -0.5295  0.8771
   10MOL   H465 8943   1.208   7.944   0.878 -1.6583  0.1147  0.0382
   10MOL   H466 8944   1.461   0.126   0.817  0.9947 -0.5657 -0.2011
   10MOL   H467 8945   1.473   7.938   0.854  0.3952  0.7579 -0.3790
   10MOL   H468 8946   1.288   0.406   1.183 -0.5480  0.8286  2.0643
   10MOL   H469 8947   1.239   0.437   1.429  1.1700 -0.4032  0.0617
   10MOL   H470 8948   1.402   0.047   1.501 -1.2887 -0.1028 -0.8675
   10MOL   H471 8949   1.416   0.012   1.255  0.7694 -0.0618  1.4492
   10MOL   O472 8950   1.308   0.182   1.856 -0.0661 -0.0145  0.2272
   10MOL   C473 8951   1.192   0.116   1.902  0.5954 -0.4573 -0.2266
   10MOL   C474 8952   1.201   0.097   2.058  0.4697 -0.8586 -0.3696
   10MOL   C475 8953   1.071   0.073   2.135 -0.0836  0.6201  0.8410
   10MOL   C476 8954   0.999   7.912   2.138 -0.0988 -0.0712  0.2165
   10MOL   C477 8955   0.849   7.927   2.156 -0.5232 -0.0501  0.7921
   10MOL   C478 8956   0.783   7.798   2.113 -0.1038 -0.2795 -0.0769
   10MOL   C479 8957   0.637   7.799   2.139  0.3369 -0.3332 -0.0646
   10MOL   C480 8958   0.553   7.685   2.073  0.7693  0.8917  0.5524
   10MOL   C481 8959   0.582   7.548   2.136 -0.8786 -0.3731  0.8914
   10MOL   C482 8960   0.510   7.424   2.084  0.0144  0.3266  0.1263
   10MOL   O483 8961   0.370   7.449   2.099 -0.1622 -0.1161 -0.1162
   10MOL   C484 8962   0.300   7.413   2.207  0.0209 -0.0752 -0.0633
   10MOL   O485 8963   0.348   7.347   2.298 -0.1723  0.5002 -0.0763
   10MOL   C486 8964   0.163   7.471   2.210  0.0530 -0.5322 -0.1410
   10MOL   C487 8965   0.051   7.414   2.270  0.3038  0.0884  0.1323
   10MOL   C488 8966   7.911   7.485   2.277 -0.3768 -0.1290  0.6825
   10MOL   C489 8967   7.888   7.604   2.212  0.5574  0.0892 -0.0032
   10MOL   C490 8968   7.754   7.671   2.202 -0.3185 -0.5781 -0.3396
   10MOL   O491 8969   7.748   7.793   2.195 -0.0821 -0.7013 -0.7005
   10MOL   O492 8970   7.653   7.591   2.206 -0.2141  0.3160  0.3241
   10MOL   C493 8971   0.027   7.667   2.152 -0.0822  0.1467  0.1667
   10MOL   C494 8972   0.146   7.599   2.152  0.2096 -0.5229 -0.3607
   10MOL   H495 8973   1.100   0.171   1.883  1.0142  0.2233 -0.2790
   10MOL   H496 8974   1.173   0.027   1.842 -1.4656  0.3816 -0.8594
   10MOL   H497 8975   1.254   0.189   2.084  1.7535 -2.0446  1.3466
   10MOL   H498 8976   1.271   0.015   2.070  0.9393 -0.3125  0.6950
   10MOL   H499 8977   1.090   0.118   2.232 -0.2466  4.4860 -0.8042
   10MOL   H500 8978   1.000   0.147   2.097 -1.9700 -1.8987 -0.6791
   10MOL   H501 8979   1.035   7.840   2.211 -3.2096 -1.3047  0.6464
   10MOL   H502 8980   1.010   7.870   2.038 -0.8607  0.0571  0.0752
   10MOL   H503 8981   0.823   7.953   2.259 -2.0160  1.4072  0.0640
   10MOL   H504 8982   0.810   0.028   2.093 -1.1878 -0.4514  0.6909
   10MOL   H505 8983   0.810   7.780   2.009 -0.1905  2.3525 -0.5948
   10MOL   H506 8984   0.829   7.718   2.171 -1.6277  0.1092  1.7189
   10MOL   H507 8985   0.605   7.819   2.241  1.1785 -1.0530  0.3460
   10MOL   H508 8986   0.606   7.886   2.081  0.9281 -0.9222 -1.2722
   10MOL   H509 8987   0.449   7.713   2.090  0.9729  0.6670  2.2489
   10MOL   H510 8988   0.577   7.690   1.967  1.7401  1.5278  0.7931
   10MOL   H511 8989   0.560   7.561   2.242  2.9040  1.0451  1.5708
   10MOL   H512 8990   0.688   7.524   2.144 -0.3754  0.5139 -2.3274
   10MOL   H513 8991   0.555   7.342   2.141  0.6572  0.1966 -0.5609
   10MOL   H514 8992   0.517   7.401   1.978  1.3217  0.2115  0.2300
   10MOL   H515 8993   0.053   7.322   2.325 -1.0170 -0.6619 -1.0387
   10MOL   H516 8994   7.826   7.441   2.328 -2.0942  3.2991  0.9344
   10MOL   H517 8995   0.015   7.759   2.096  1.3584 -0.1418 -0.6505
   10MOL   H518 8996   0.230   7.657   2.116 -0.0683 -0.0805 -0.3051
   10MOL   O519 8997   7.513   7.644   2.171 -0.5949  0.6489 -0.5079
   10MOL   C520 8998   7.434   7.643   2.290  0.3728 -0.2145  0.1260
   10MOL   C521 8999   7.288   7.600   2.262 -0.2061  0.6117 -0.0253
   10MOL   C522 9000   7.195   7.696   2.183  0.1029 -0.7804  0.5387
   10MOL   C523 9001   7.138   7.807   2.273  0.0836  0.1624 -0.4347
   10MOL   C524 9002   7.075   7.915   2.182 -0.2226 -0.7560 -0.2603
   10MOL   C525 9003   7.173   0.044   2.134 -0.5662  0.3772 -0.0072
   10MOL   C526 9004   7.120   0.183   2.100 -0.0206 -0.2336  0.1810
   10MOL   C527 9005   7.230   0.282   2.059 -0.6769 -0.4648  0.7251
   10MOL   C528 9006   7.177   0.412   2.001  0.4573  0.4289  0.2856
   10MOL   C529 9007   7.280   0.520   1.985 -0.3292 -0.2886  0.6892
   10MOL   O530 9008   7.376   0.482   1.881  0.0717  0.1454 -0.0162
   10MOL   C531 9009   7.492   0.555   1.865  0.0961  0.0962  0.8856
   10MOL   O532 9010   7.494   0.666   1.912 -0.2791 -0.6304  0.0129
   10MOL   C533 9011   7.604   0.492   1.792  0.0011  0.4658 -0.5282
   10MOL   C534 9012   7.583   0.370   1.727 -1.2668  0.0483  0.4202
   10MOL   C535 9013   7.695   0.309   1.669  0.0315  0.1225 -0.2658
   10MOL   C536 9014   7.825   0.366   1.670 -0.5089  0.2739  0.0878
   10MOL   C537 9015   7.944   0.306   1.596  0.6651 -0.8159 -0.1067
   10MOL   O538 9016   0.081   0.344   1.612 -0.7327 -0.2074 -0.1655
   10MOL   O539 9017   7.909   0.207   1.511  0.1089  0.3050 -0.0721
   10MOL   C540 9018   7.841   0.491   1.735 -0.1114 -0.6570  0.4319
   10MOL   C541 9019   7.731   0.553   1.796 -0.0997  0.6606  0.0388
   10MOL   H542 9020   7.471   7.576   2.367 -0.6943 -1.3524 -0.3381
   10MOL   H543 9021   7.435   7.744   2.331  0.4918 -1.0266  2.1723
   10MOL   H544 9022   7.239   7.577   2.356 -2.2402  0.5712 -1.0613
   10MOL   H545 9023   7.302   7.516   2.194 -0.6171  0.4116  0.1386
   10MOL   H546 9024   7.248   7.736   2.096  1.1654 -1.7031  0.7476
   10MOL   H547 9025   7.111   7.648   2.134 -0.5590  0.3657  0.5485
   10MOL   H548 9026   7.217   7.838   2.341  0.3909  0.8978 -1.1151
   10MOL   H549 9027   7.057   7.759   2.329 -0.2746  0.3194 -0.8122
   10MOL   H550 9028   7.014   7.890   2.095  1.6399  0.3914 -1.9388
   10MOL   H551 9029   6.992   7.960   2.238  0.6087  0.0736  0.3231
   10MOL   H552 9030   7.253   0.060   2.206  0.5619  2.8701 -1.7420
   10MOL   H553 9031   7.225   0.002   2.048 -0.2496  1.6738 -0.4618
   10MOL   H554 9032   7.049   0.173   2.018  0.3462  1.4622 -0.3730
   10MOL   H555 9033   7.063   0.221   2.185  2.0370 -2.8378  2.8233
   10MOL   H556 9034   7.286   0.306   2.149  1.0260 -0.0548 -0.4150
   10MOL   H557 9035   7.301   0.233   1.992  0.8529 -0.0915  2.0398
   10MOL   H558 9036   7.099   0.439   2.073  0.5879  1.3972  0.0648
   10MOL   H559 9037   7.111   0.395   1.917 -2.6279 -0.4415  2.7749
   10MOL   H560 9038   7.334   0.551   2.075  0.3796 -1.5502  0.7058
   10MOL   H561 9039   7.231   0.609   1.945  0.9009 -0.3432 -1.0115
   10MOL   H562 9040   7.482   0.333   1.719 -0.9102 -0.7755 -0.3745
   10MOL   H563 9041   7.682   0.210   1.628  0.0153 -0.2491  0.6141
   10MOL   H564 9042   7.933   0.547   1.724 -0.1958 -0.7412 -0.7609
   10MOL   H565 9043   7.735   0.650   1.844  0.2467  0.2488  0.8539
   10MOL   O566 9044   0.049   0.139   1.446  0.0852  0.5656 -0.4668
   10MOL   C567 9045   0.079   0.014   1.514 -0.2911 -0.1859  0.1111
   10MOL   C568 9046   7.941   7.901   1.546  0.5553  0.2906  0.2611
   10MOL   C569 9047   7.861   7.836   1.434  0.4768  0.4408 -0.1737
   10MOL   C570 9048   7.773   7.932   1.348  0.6050 -0.2203 -0.6183
   10MOL   C571 9049   7.714   7.861   1.226 -0.4171 -0.0084 -0.1773
   10MOL   C572 9050   7.650   7.951   1.120  0.0540  0.5941  0.1156
   10MOL   C573 9051   7.570   7.865   1.024  0.9953 -0.3464 -0.4895
   10MOL   C574 9052   7.652   7.765   0.947  0.4416  0.5245  0.2059
   10MOL   C575 9053   7.579   7.678   0.841 -0.3721 -0.0204 -1.2492
   10MOL   C576 9054   7.670   7.618   0.738  0.5499  0.6889 -0.1927
   10MOL   O577 9055   7.597   7.512   0.675  0.3703  0.1802  0.0987
   10MOL   C578 9056   7.662   7.423   0.589  0.2713 -0.3033 -0.7518
   10MOL   O579 9057   7.784   7.432   0.567 -0.1279 -0.3425 -0.1984
   10MOL   C580 9058   7.571   7.321   0.522 -0.0571 -0.8666  0.0326
   10MOL   C581 9059   7.441   7.316   0.562  0.1667 -0.3127  0.1418
   10MOL   C582 9060   7.352   7.222   0.497  0.3665 -0.4157 -0.0421
   10MOL   C583 9061   7.389   7.156   0.378 -0.0353 -0.9954 -0.5551
   10MOL   C584 9062   7.288   7.078   0.309 -0.5889  0.9000  0.1475
   10MOL   O585 9063   7.164   7.086   0.331 -0.1092  0.2449  0.5220
   10MOL   O586 9064   7.333   6.997   0.218  0.6768 -0.3219 -0.2768
   10MOL   C587 9065   7.524   7.160   0.340 -0.4566  0.2907 -0.4149
   10MOL   C588 9066   7.614   7.240   0.413  0.0138 -0.3353 -0.5278
   10MOL   H589 9067   0.143   7.931   1.450  0.3752  2.3672 -1.7472
   10MOL   H590 9068   0.135   0.043   1.603 -2.2917 -1.3370  1.7737
   10MOL   H591 9069   7.869   7.938   1.619  0.6484  1.6478 -0.3113
   10MOL   H592 9070   0.013   7.816   1.593 -0.5238 -0.4935 -0.0032
   10MOL   H593 9071   7.942   7.793   1.374  0.8148 -0.3219  0.8004
   10MOL   H594 9072   7.796   7.757   1.473 -0.8940  0.9900 -1.3281
   10MOL   H595 9073   7.839   0.031   1.307 -0.3955  0.0364 -1.7875
   10MOL   H596 9074   7.703   0.006   1.412 -0.5456 -2.2974 -0.1484
   10MOL   H597 9075   7.798   7.802   1.189 -0.6907 -0.5560  0.0671
   10MOL   H598 9076   7.651   7.780   1.263  2.5385 -1.1180  2.7371
   10MOL   H599 9077   7.582   0.041   1.172  0.5056 -0.2005  1.7701
   10MOL   H600 9078   7.720   0.036   1.065 -0.2981 -1.5957 -2.9897
   10MOL   H601 9079   7.488   7.812   1.073  1.7991 -0.8408  0.3415
   10MOL   H602 9080   7.527   7.932   0.949  1.1145 -0.0075 -0.2563
   10MOL   H603 9081   7.722   7.825   0.888  1.0945  1.2872  1.7281
   10MOL   H604 9082   7.714   7.707   1.016  0.8791  0.1255 -0.5149
   10MOL   H605 9083   7.499   7.734   0.793  0.7868  0.8126 -2.2355
   10MOL   H606 9084   7.529   7.606   0.906 -0.3723 -0.1089 -1.3477
   10MOL   H607 9085   7.761   7.582   0.786  0.5539  0.3615 -0.4447
   10MOL   H608 9086   7.700   7.693   0.665  0.1360  1.6884  0.6444
   10MOL   H609 9087   7.401   7.375   0.643 -1.4203  0.5433 -1.2351
   10MOL   H610 9088   7.257   7.202   0.545  0.1446  1.0223  0.1461
   10MOL   H611 9089   7.558   7.110   0.250  0.9785  0.5027 -0.0102
   10MOL   H612 9090   7.718   7.249   0.383  0.5493 -1.5618  0.9143
   10MOL   O613 9091   7.240   6.916   0.138  0.0698  0.4323  0.0181
   10MOL   C614 9092   7.242   6.784   0.185  0.3250 -0.1980 -0.1683
   10MOL   C615 9093   7.125   6.694   0.134  0.0220  0.2212 -0.6857
   10MOL   C616 9094   7.137   6.675   7.959 -0.0628  0.1543 -0.2607
   10MOL   C617 9095   7.053   6.551   7.920 -0.2000 -0.3410 -0.2538
   10MOL   C618 9096   6.901   6.572   7.901 -0.8026 -0.3494  0.3092
   10MOL   C619 9097   6.864   6.639   7.772  0.1220  0.5022 -0.3829
   10MOL   C620 9098   6.716   6.635   7.723  0.0423  0.3269  0.3639
   10MOL   C621 9099   6.616   6.727   7.796 -0.0322 -0.2443  0.0895
   10MOL   C622 9100   6.652   6.874   7.784  0.2312  0.2380 -0.2718
   10MOL   C623 9101   6.556   6.978   7.837  0.2699 -0.2903  0.4276
   10MOL   O624 9102   6.564   6.999   0.002  0.4446 -0.1018 -0.1371
   10MOL   C625 9103   6.485   6.931   0.087  0.7284  0.0229  0.0357
   10MOL   O626 9104   6.389   6.864   0.055 -0.6090  0.0373 -0.2529
   10MOL   C627 9105   6.513   6.949   0.236  0.9239  0.9570  0.2504
   10MOL   C628 9106   6.617   7.040   0.281 -0.2108  0.0246 -0.2627
   10MOL   C629 9107   6.638   7.076   0.414 -0.8135 -1.2505  1.2729
   10MOL   C630 9108   6.554   7.009   0.503  0.4823  0.4806 -0.8065
   10MOL   C631 9109   6.590   7.032   0.643 -0.6054 -0.1703 -0.1462
   10MOL   O632 9110   6.697   7.072   0.687 -0.3459 -0.2247  0.6340
   10MOL   O633 9111   6.497   7.003   0.737  0.1657  0.5961  0.2727
   10MOL   C634 9112   6.454   6.915   0.463  0.2546  0.0633  0.2014
   10MOL   C635 9113   6.425   6.883   0.329 -0.4768 -0.5177  0.1054
   10MOL   H636 9114   7.344   6.749   0.172  0.8596  2.0606 -2.2248
   10MOL   H637 9115   7.214   6.796   0.290 -0.4216 -1.5115 -0.2048
   10MOL   H638 9116   7.027   6.739   0.151  0.4568  0.9255 -0.0163
   10MOL   H639 9117   7.129   6.597   0.183  1.4917  0.8057  0.3557
   10MOL   H640 9118   7.099   6.761   7.904  1.9411  0.7539 -0.7192
   10MOL   H641 9119   7.242   6.663   7.934 -0.0298  0.7555 -0.4026
   10MOL   H642 9120   7.081   6.479   0.019  0.1029  0.7340  0.6543
   10MOL   H643 9121   7.098   6.515   7.828  1.8809  0.0386  0.5818
   10MOL   H644 9122   6.855   6.474   7.910  0.4621 -1.3214 -3.3477
   10MOL   H645 9123   6.864   6.633   0.006  0.0578  0.9075 -0.2130
   10MOL   H646 9124   6.903   6.739   7.790 -1.9371  1.3284 -0.3579
   10MOL   H647 9125   6.918   6.595   7.688 -0.3720 -1.6704  0.3862
   10MOL   H648 9126   6.720   6.656   7.616  0.6992 -1.4538  0.0220
   10MOL   H649 9127   6.683   6.531   7.732 -0.1463  0.2712 -0.8117
   10MOL   H650 9128   6.513   6.724   7.759 -0.3300  1.7853  0.6842
   10MOL   H651 9129   6.614   6.700   7.902  2.9586  0.6549  0.4053
   10MOL   H652 9130   6.661   6.894   7.677 -3.3146  2.2931 -0.2427
   10MOL   H653 9131   6.750   6.895   7.825 -0.5688  0.7553  1.3805
   10MOL   H654 9132   6.457   6.951   7.801  0.0808  0.6023  0.2582
   10MOL   H655 9133   6.578   7.078   7.800 -0.5387 -0.5643 -0.8183
   10MOL   H656 9134   6.673   7.093   0.205 -1.6078  0.9865 -0.6381
   10MOL   H657 9135   6.709   7.151   0.445 -0.6208 -1.2734  0.8865
   10MOL   H658 9136   6.395   6.863   0.537 -1.4926  1.8619  0.1343
   10MOL   H659 9137   6.355   6.808   0.299 -0.5449  0.4576 -2.3198
   10MOL   O660 9138   6.550   6.987   0.874  0.9187 -0.1684 -0.0699
   10MOL   C661 9139   6.544   6.847   0.899 -0.1835  0.5211 -0.3845
   10MOL   C662 9140   6.657   6.812   0.994 -0.5204  0.2777 -0.4552
   10MOL   C663 9141   6.682   6.659   1.019 -0.1648  0.2923  0.1388
   10MOL   C664 9142   6.804   6.622   1.103 -0.1063  0.7847 -0.4350
   10MOL   C665 9143   6.938   6.596   1.029 -0.1144  0.2950  0.2965
   10MOL   C666 9144   7.059   6.640   1.110  0.2764  0.6641 -0.9035
   10MOL   C667 9145   7.192   6.602   1.043 -0.1348  0.1770  0.3452
   10MOL   C668 9146   7.312   6.607   1.136 -0.0890  0.1801 -0.1292
   10MOL   C669 9147   7.444   6.568   1.077  0.1728  0.4523  0.3295
   10MOL   C670 9148   7.559   6.572   1.180  0.1273  0.6868 -0.0123
   10MOL   O671 9149   7.640   6.688   1.180 -0.3962 -0.1129  0.6213
   10MOL   C672 9150   7.610   6.794   1.245 -0.1093 -0.6818 -0.2542
   10MOL   O673 9151   7.504   6.813   1.306 -0.4838 -0.2120 -0.0418
   10MOL   C674 9152   7.711   6.903   1.220  0.0665  0.4858  0.2339
   10MOL   C675 9153   7.815   6.881   1.126 -0.5685 -0.1141 -0.4214
   10MOL   C676 9154   7.909   6.980   1.097  0.0527 -0.4015 -0.0663
   10MOL   C677 9155   7.896   7.111   1.158 -0.5178 -0.3453 -0.5439
   10MOL   C678 9156   7.974   7.225   1.117 -0.1750  0.4270  0.5645
   10MOL   O679 9157   7.964   7.335   1.167 -0.1162  0.1698 -0.2401
   10MOL   O680 9158   0.075   7.196   1.015 -0.2237 -0.6211  0.6945
   10MOL   C681 9159   7.787   7.125   1.254 -0.8674  0.7115  0.6354
   10MOL   C682 9160   7.697   7.022   1.286 -0.7781 -0.1348 -0.6827
   10MOL   H683 9161   6.449   6.824   0.948 -0.4963 -1.7510 -1.9709
   10MOL   H684 9162   6.549   6.786   0.809 -0.8545  0.1515 -0.1787
   10MOL   H685 9163   6.649   6.867   1.088  1.6469 -0.6651  0.3016
   10MOL   H686 9164   6.743   6.858   0.945  0.4534 -0.0823  0.8729
   10MOL   H687 9165   6.593   6.616   1.064  0.5549 -1.7677 -0.3788
   10MOL   H688 9166   6.690   6.616   0.919 -0.4112  2.3916 -0.8074
   10MOL   H689 9167   6.778   6.524   1.142 -0.1714  0.6287 -0.8674
   10MOL   H690 9168   6.821   6.688   1.188 -0.9600 -1.1233  1.2614
   10MOL   H691 9169   6.951   6.491   1.002  1.3556  0.7216 -0.7081
   10MOL   H692 9170   6.951   6.665   0.946 -0.4555  1.3819  1.1264
   10MOL   H693 9171   7.054   6.748   1.126 -1.1842  0.4950 -0.0599
   10MOL   H694 9172   7.051   6.595   1.209 -2.5023  1.1198 -0.8679
   10MOL   H695 9173   7.184   6.503   0.999  0.9684  1.3836 -2.6315
   10MOL   H696 9174   7.205   6.666   0.956  2.3018 -2.9760 -1.7247
   10MOL   H697 9175   7.323   6.712   1.161 -1.7383  0.3063  0.1585
   10MOL   H698 9176   7.301   6.551   1.229  1.0513  1.1208  0.5781
   10MOL   H699 9177   7.469   6.625   0.988 -1.6354  1.5201  0.4881
   10MOL   H700 9178   7.441   6.467   1.034 -0.4021  0.6080  0.0013
   10MOL   H701 9179   7.632   6.503   1.139  0.3106  0.3317  0.8891
   10MOL   H702 9180   7.518   6.555   1.280 -2.7552 -0.3249 -1.2921
   10MOL   H703 9181   7.828   6.789   1.071 -0.0663 -0.9486  1.0625
   10MOL   H704 9182   0.010   6.962   1.025  1.2877  0.4168  1.0571
   10MOL   H705 9183   7.764   7.224   1.291 -1.8536  0.1776  1.4738
   10MOL   H706 9184   7.618   7.055   1.351 -0.2853 -0.4139  0.0723
   10MOL   O707 9185   0.153   7.313   0.961 -0.3207  0.4604 -0.3289
   10MOL   C708 9186   0.098   7.339   0.837 -0.0707 -1.2401  0.8415
   10MOL   C709 9187   0.170   7.257   0.733 -0.3744 -0.1677  0.3834
   10MOL   C710 9188   0.113   7.120   0.699 -0.3265 -0.2761 -0.1511
   10MOL   C711 9189   0.169   7.071   0.564  0.0913 -0.9023  0.4810
   10MOL   C712 9190   0.315   7.029   0.554 -0.5302  0.3341 -0.1727
   10MOL   C713 9191   0.335   6.956   0.423 -0.1851  0.6767  0.1977
   10MOL   C714 9192   0.485   6.929   0.397 -0.7865  0.4684  0.7723
   10MOL   C715 9193   0.506   6.826   0.280 -0.4999  0.0373 -0.2152
   10MOL   C716 9194   0.654   6.811   0.250 -0.2475  0.7555 -0.5024
   10MOL   C717 9195   0.688   6.723   0.126 -0.1888  0.2748  0.0824
   10MOL   O718 9196   0.661   6.798   0.004 -0.2179 -0.5418 -0.3642
   10MOL   C719 9197   0.763   6.855   7.915 -0.1264  1.0933  0.1877
   10MOL   O720 9198   0.881   6.854   7.955 -0.2226 -0.1757  0.0993
   10MOL   C721 9199   0.708   6.917   7.787 -0.7733 -0.3616 -0.6092
   10MOL   C722 9200   0.567   6.940   7.761 -0.1811  0.4723  0.0894
   10MOL   C723 9201   0.520   6.986   7.639 -0.1485 -0.3659 -0.1483
   10MOL   C724 9202   0.614   7.033   7.549  0.2911 -0.4332  0.1692
   10MOL   C725 9203   0.581   7.094   7.421  0.3490 -0.7483  0.1435
   10MOL   O726 9204   0.664   7.132   7.337  0.0191  0.4190 -0.2070
   10MOL   O727 9205   0.445   7.106   7.405 -0.3463  0.3397  0.0343
   10MOL   C728 9206   0.751   7.013   7.574 -0.0146 -0.2199  0.3812
   10MOL   C729 9207   0.803   6.956   7.691  0.2580  0.0231 -0.2232
   10MOL   H730 9208   7.968   7.330   0.835 -0.3159  1.4378  0.9915
   10MOL   H731 9209   0.129   7.443   0.832 -0.3773 -1.1749  0.3824
   10MOL   H732 9210   0.275   7.245   0.760  0.5217  0.2552 -2.6498
   10MOL   H733 9211   0.169   7.306   0.635  0.9826 -1.8470 -0.5117
   10MOL   H734 9212   0.118   7.044   0.777  1.2035 -0.6386 -0.5840
   10MOL   H735 9213   0.005   7.134   0.694 -0.3118  0.7066  1.6260
   10MOL   H736 9214   0.156   7.146   0.486  1.0932 -2.0358 -0.8113
   10MOL   H737 9215   0.102   6.987   0.545 -0.8534 -0.6933  2.7290
   10MOL   H738 9216   0.379   7.117   0.566  0.1003 -0.3865  1.9121
   10MOL   H739 9217   0.333   6.960   0.636  2.3502  0.1415 -0.9153
   10MOL   H740 9218   0.291   6.857   0.439 -0.5405  0.8491  0.2890
   10MOL   H741 9219   0.298   7.011   0.337  3.1099  1.6790 -0.6629
   10MOL   H742 9220   0.538   7.024   0.387 -1.3116  0.8718  1.7709
   10MOL   H743 9221   0.519   6.879   0.488  1.1949  0.6554  0.1502
   10MOL   H744 9222   0.462   6.733   0.315  2.4486 -1.3913 -0.1173
   10MOL   H745 9223   0.459   6.859   0.188  0.8275  0.5116 -0.7387
   10MOL   H746 9224   0.709   6.755   0.325 -2.0745 -0.0118  0.2854
   10MOL   H747 9225   0.709   6.905   0.248 -2.9440  2.4152  0.7639
   10MOL   H748 9226   0.629   6.631   0.119  0.0238  0.2222 -1.1491
   10MOL   H749 9227   0.795   6.700   0.121 -0.4632 -0.8960 -0.8828
   10MOL   H750 9228   0.490   6.909   7.830  2.4632  1.1275  3.4235
   10MOL   H751 9229   0.414   6.982   7.618 -0.2531 -0.5862  0.4138
   10MOL   H752 9230   0.828   7.041   7.504 -0.7110  1.5143  0.2837
   10MOL   H753 9231   0.909   6.943   7.707  0.0716 -0.6706  0.4824
   10MOL   O754 9232   0.408   7.155   7.267 -0.5563 -0.8161  0.2676
   10MOL   C755 9233   0.309   7.062   7.231 -0.1318 -0.2185 -0.1927
   10MOL   C756 9234   0.169   7.094   7.285 -1.0068 -0.2638  0.3868
   10MOL   C757 9235   0.066   6.998   7.235  0.7367  0.3351  0.1158
   10MOL   C758 9236   7.977   7.058   7.104 -0.3870  0.5964 -0.1431
   10MOL   C759 9237   7.860   6.980   7.051  0.2018 -0.1079  0.4191
   10MOL   C760 9238   7.784   7.043   6.947 -0.3401  0.0825 -0.2145
   10MOL   C761 9239   7.851   7.037   6.807  0.0242  0.4344 -0.7152
   10MOL   C762 9240   7.805   7.158   6.723  0.0224 -0.6217 -0.9741
   10MOL   C763 9241   7.845   7.142   6.571 -0.4114 -0.1193  0.0182
   10MOL   C764 9242   7.802   7.263   6.481 -0.2412 -0.8094 -0.0279
   10MOL   O765 9243   7.659   7.275   6.470 -0.3808  0.8523  0.3565
   10MOL   C766 9244   7.597   7.387   6.431  0.1875 -0.1022  0.3911
   10MOL   O767 9245   7.658   7.484   6.390  0.4701  0.5143  0.5930
   10MOL   C768 9246   7.443   7.377   6.453  0.0178 -0.3850 -0.1759
   10MOL   C769 9247   7.392   7.268   6.524  0.8309 -0.0080 -0.9932
   10MOL   C770 9248   7.258   7.261   6.557  1.0492  0.1955  0.0339
   10MOL   C771 9249   7.167   7.364   6.523  0.2102 -0.4244  0.1611
   10MOL   C772 9250   7.026   7.386   6.578 -0.2132 -0.7517 -0.1019
   10MOL   O773 9251   6.945   7.470   6.537  0.0188  0.4309  0.0275
   10MOL   O774 9252   7.004   7.305   6.674 -0.0307  0.1232  0.8087
   10MOL   C775 9253   7.221   7.477   6.457 -0.8227  0.5444  0.3353
   10MOL   C776 9254   7.357   7.482   6.418  0.4736 -0.0073  0.5960
   10MOL   H777 9255   0.304   7.064   7.122  0.4598 -1.0162 -0.2387
   10MOL   H778 9256   0.354   6.967   7.260  3.9386  1.3043 -1.1688
   10MOL   H779 9257   0.141   7.199   7.289  0.2685  0.0609  0.8421
   10MOL   H780 9258   0.171   7.063   7.389  0.2240 -0.1907  0.3908
   10MOL   H781 9259   0.115   6.902   7.218  1.4325  0.5710  0.7451
   10MOL   H782 9260   7.970   6.972   7.312  0.3570 -0.5271 -0.5312
   10MOL   H783 9261   0.073   7.080   7.027 -2.3772  0.4852 -2.1455
   10MOL   H784 9262   7.930   7.154   7.128 -2.1223 -0.3768  0.4276
   10MOL   H785 9263   7.902   6.889   7.007 -1.2669 -1.3904  1.5783
   10MOL   H786 9264   7.791   6.947   7.129 -0.6884  0.5622 -0.0942
   10MOL   H787 9265   7.701   6.973   6.936 -1.2243  1.1086 -0.0877
   10MOL   H788 9266   7.726   7.132   6.968 -1.6160 -0.5771 -0.8929
   10MOL   H789 9267   7.959   7.040   6.803  0.1431 -0.7895  0.7749
   10MOL   H790 9268   7.843   6.936   6.768  0.3654 -0.2227  0.8507
   10MOL   H791 9269   7.696   7.156   6.726  0.0436 -2.1119 -0.6597
   10MOL   H792 9270   7.843   7.253   6.758  2.6404 -2.1036  0.3944
   10MOL   H793 9271   7.807   7.052   6.523  0.3826 -0.2957 -0.2952
   10MOL   H794 9272   7.953   7.131   6.563 -0.3323  1.8566 -2.2609
   10MOL   H795 9273   7.841   7.260   6.380  1.9284  0.2482  0.7389
   10MOL   H796 9274   7.851   7.348   6.529 -0.2837 -1.0554  0.4586
   10MOL   H797 9275   7.454   7.184   6.554 -0.3714 -0.8806 -0.9196
   10MOL   H798 9276   7.226   7.182   6.623  1.7937  0.2015  0.4000
   10MOL   H799 9277   7.155   7.562   6.446 -0.6627  0.7600  0.9987
   10MOL   H800 9278   7.407   7.568   6.375 -0.4424 -0.2177 -0.9139
   10MOL   O801 9279   6.865   7.327   6.732 -0.3127 -0.4883  0.2168
   10MOL   C802 9280   6.780   7.225   6.700 -0.2491  0.1709 -0.1834
   10MOL   C803 9281   6.637   7.268   6.728  0.4672  0.8072  0.9758
   10MOL   C804 9282   6.533   7.153   6.693  0.1414  0.3338 -0.3263
   10MOL   C805 9283   6.505   7.052   6.808  0.0868 -0.7743  0.0725
   10MOL   C806 9284   6.401   6.941   6.783  0.2368 -0.9769 -0.5040
   10MOL   C807 9285   6.397   6.816   6.879  0.2209  0.2461  0.6398
   10MOL   C808 9286   6.275   6.718   6.847 -0.0025  0.6464  0.2037
   10MOL   C809 9287   6.162   6.731   6.944 -0.0685  0.3365  0.1465
   10MOL   C810 9288   6.088   6.861   6.931  1.1567  0.4523  1.1431
   10MOL   C811 9289   5.965   6.866   7.021  0.1244 -0.3554  0.4642
   10MOL   O812 9290   5.914   6.995   7.024 -0.5637 -0.2366  0.7173
   10MOL   C813 9291   5.839   7.049   6.930  0.5420  0.1435  0.5310
   10MOL   O814 9292   5.800   6.995   6.827 -0.6210 -0.1363  0.0502
   10MOL   C815 9293   5.787   7.183   6.970 -0.2181 -0.4389 -0.6796
   10MOL   C816 9294   5.739   7.277   6.876  0.0410  0.1675  1.0263
   10MOL   C817 9295   5.699   7.403   6.915 -0.2761 -0.0611  0.5061
   10MOL   C818 9296   5.714   7.440   7.052 -0.1488  0.0361 -0.9574
   10MOL   C819 9297   5.666   7.575   7.100 -0.4343 -0.1165 -0.5784
   10MOL   O820 9298   5.639   7.663   7.022  0.5258 -0.1720  0.0618
   10MOL   O821 9299   5.657   7.583   7.241  0.3093 -0.3554 -0.4960
   10MOL   C822 9300   5.762   7.350   7.151 -0.1980  0.0576  0.2652
   10MOL   C823 9301   5.797   7.222   7.107  0.0320 -0.4513  0.2004
   10MOL   H824 9302   6.775   7.202   6.593  0.4131  0.7476 -0.3359
   10MOL   H825 9303   6.808   7.129   6.744 -0.9031 -0.6745 -1.5381
   10MOL   H826 9304   6.615   7.356   6.667  0.1586 -1.7222 -2.7282
   10MOL   H827 9305   6.615   7.302   6.830  0.7688  0.3476  1.1937
   10MOL   H828 9306   6.446   7.200   6.647 -0.8264 -1.2247 -0.1301
   10MOL   H829 9307   6.581   7.093   6.615  1.6327  0.6516  0.3393
   10MOL   H830 9308   6.480   7.100   6.903 -1.5421  1.0337 -1.2492
   10MOL   H831 9309   6.597   7.000   6.836  0.1278 -0.7429 -0.0052
   10MOL   H832 9310   6.301   6.983   6.779  0.2667 -0.4700  2.5563
   10MOL   H833 9311   6.436   6.899   6.688  2.2572 -1.9255  0.6128
   10MOL   H834 9312   6.484   6.750   6.880  2.3924  2.7696 -3.5989
   10MOL   H835 9313   6.388   6.851   6.981  0.8184 -3.4313  2.0162
   10MOL   H836 9314   6.245   6.720   6.742 -0.3637  0.5937  0.3046
   10MOL   H837 9315   6.316   6.617   6.851  2.7639  1.7064 -0.1739
   10MOL   H838 9316   6.090   6.650   6.932  1.5820 -0.9307 -1.3275
   10MOL   H839 9317   6.200   6.729   7.046  1.8474 -2.1067 -0.5594
   10MOL   H840 9318   6.070   6.874   6.824  2.8123  1.7481  1.0110
   10MOL   H841 9319   6.154   6.944   6.955  1.4150  0.4638  0.3994
   10MOL   H842 9320   6.004   6.858   7.123  1.2509 -1.0399 -0.0084
   10MOL   H843 9321   5.890   6.790   7.000  0.6724 -0.7404 -0.1025
   10MOL   H844 9322   5.734   7.240   6.775  1.7378  0.1365  0.9407
   10MOL   H845 9323   5.681   7.475   6.837 -3.4651 -0.3087  0.9513
   10MOL   H846 9324   5.766   7.368   7.257  3.5154 -0.2048  0.2387
   10MOL   H847 9325   5.837   7.156   7.183 -0.6474 -0.6224  0.4086
   10MOL   O848 9326   5.623   7.725   7.294  0.2026 -1.2826  0.7246
   10MOL   C849 9327   5.746   7.798   7.304  0.1654  0.4740 -0.1287
   10MOL   C850 9328   5.717   7.915   7.395 -0.4411  0.5920 -0.0591
   10MOL   C851 9329   5.725   7.885   7.549  0.2019  0.1850 -0.4971
   10MOL   C852 9330   5.872   7.866   7.594 -0.3146 -0.2914  0.1975
   10MOL   C853 9331   5.885   7.787   7.727  0.2251 -0.2597  0.3398
   10MOL   C854 9332   6.038   7.775   7.751 -0.5697  0.5990 -0.0047
   10MOL   C855 9333   6.070   7.740   7.899 -0.7116  0.4105 -0.2009
   10MOL   C856 9334   6.223   7.732   7.922 -0.2361  0.0057  0.9658
   10MOL   C857 9335   6.256   7.698   0.091 -0.0520 -0.4317  0.0496
   10MOL   C858 9336   6.402   7.678   0.112 -0.3424  0.1929 -0.1083
   10MOL   O859 9337   6.426   7.623   0.240 -0.6002 -0.2194  0.0804
   10MOL   C860 9338   6.548   7.633   0.293 -0.0093 -0.2291 -0.2312
   10MOL   O861 9339   6.643   7.693   0.242 -0.7724  0.2313 -0.7269
   10MOL   C862 9340   6.545   7.565   0.432 -0.1078  0.9530 -0.1994
   10MOL   C863 9341   6.460   7.460   0.457  0.1884 -0.1225 -0.0464
   10MOL   C864 9342   6.479   7.388   0.579 -0.5487  0.1177  0.0678
   10MOL   C865 9343   6.571   7.436   0.679  0.1104  0.6076 -0.3932
   10MOL   C866 9344   6.587   7.371   0.810 -0.3331 -0.4694  0.3607
   10MOL   O867 9345   6.680   7.392   0.886  0.7670 -0.2602 -0.1023
   10MOL   O868 9346   6.483   7.297   0.847  0.4768  0.1061  0.5375
   10MOL   C869 9347   6.650   7.551   0.654 -0.5777  0.7318 -0.4558
   10MOL   C870 9348   6.642   7.606   0.527  1.0261 -0.0173 -0.6269
   10MOL   H871 9349   5.834   7.738   7.326 -0.4972 -0.2419  0.6210
   10MOL   H872 9350   5.756   7.824   7.199  0.8570 -2.0562 -0.7237
   10MOL   H873 9351   5.623   7.968   7.380 -0.2077  1.1906  0.6169
   10MOL   H874 9352   5.793   0.011   7.370 -3.0132  3.5694  0.5325
   10MOL   H875 9353   5.671   7.957   7.610 -2.3389 -1.4418 -0.7657
   10MOL   H876 9354   5.665   7.795   7.559  0.0263  0.4042  0.4228
   10MOL   H877 9355   5.923   7.961   7.608  0.8963 -0.7548 -1.0415
   10MOL   H878 9356   5.925   7.805   7.521  0.4443 -0.3067  0.7659
   10MOL   H879 9357   5.841   7.850   7.804  0.4660  0.1869  0.1114
   10MOL   H880 9358   5.831   7.693   7.735  0.1423 -0.3042 -0.6902
   10MOL   H881 9359   6.083   7.699   7.686 -0.3292 -1.0786  2.0770
   10MOL   H882 9360   6.084   7.866   7.714  0.3703 -0.3374 -1.2145
   10MOL   H883 9361   6.022   7.813   7.965 -2.3591  1.9926 -3.0292
   10MOL   H884 9362   6.019   7.646   7.915  0.2674  0.0866  1.1008
   10MOL   H885 9363   6.256   7.651   7.856 -1.3142 -0.9615  1.6050
   10MOL   H886 9364   6.276   7.821   7.886  0.9536 -1.0218  0.1243
   10MOL   H887 9365   6.208   7.609   0.131 -0.4679 -0.4256 -0.4277
   10MOL   H888 9366   6.213   7.772   0.159 -0.3285 -0.3369 -0.2274
   10MOL   H889 9367   6.448   7.777   0.108  3.3993 -1.4675 -0.6500
   10MOL   H890 9368   6.446   7.615   0.035  0.1744  0.1930  0.1869
   10MOL   H891 9369   6.395   7.414   0.384 -1.2645 -0.0644  1.1969
   10MOL   H892 9370   6.418   7.299   0.586 -0.6234  0.2365  0.9308
   10MOL   H893 9371   6.727   7.595   0.715 -1.3621  0.8593  0.4495
   10MOL   H894 9372   6.700   7.696   0.511  0.6918  0.4234  0.5703
   10MOL   O895 9373   6.475   7.285   0.997  0.6147  0.0111 -0.0010
   10MOL   C896 9374   6.392   7.390   1.042  0.1417  0.0232 -0.3388
   10MOL   C897 9375   6.352   7.358   1.188 -0.7164  0.0490 -0.4345
   10MOL   C898 9376   6.297   7.484   1.254 -0.0310 -0.1356  0.3745
   10MOL   C899 9377   6.291   7.463   1.403  0.5027 -0.0541  0.1267
   10MOL   C900 9378   6.237   7.592   1.475 -0.4759  0.8360 -0.6792
   10MOL   C901 9379   6.228   7.575   1.629 -0.3459  0.1966 -0.9637
   10MOL   C902 9380   6.108   7.491   1.667 -0.2566  0.3039 -0.5431
   10MOL   C903 9381   6.075   7.519   1.817  0.3728  0.3594 -0.1873
   10MOL   C904 9382   5.968   7.422   1.872  1.0699 -0.0350 -0.1010
   10MOL   C905 9383   5.898   7.464   2.006 -0.1646  0.1933  0.2078
   10MOL   O906 9384   5.781   7.386   2.027 -0.2169 -0.0628  0.0988
   10MOL   C907 9385   5.654   7.424   1.972  0.4255 -0.1811 -0.8809
   10MOL   O908 9386   5.633   7.511   1.887  0.0957 -0.0993 -0.5966
   10MOL   C909 9387   5.539   7.348   2.031  0.2396  0.5905 -0.3713
   10MOL   C910 9388   5.408   7.385   2.003 -0.0268 -0.9285  0.8311
   10MOL   C911 9389   5.304   7.294   2.041 -0.5562  0.5890  0.2260
   10MOL   C912 9390   5.326   7.182   2.118  0.0531 -0.4076  0.1057
   10MOL   C913 9391   5.218   7.083   2.156  0.5113 -0.2809  0.6482
   10MOL   O914 9392   5.244   6.995   2.236 -0.4039  0.5402 -0.0997
   10MOL   O915 9393   5.100   7.112   2.100  0.6124 -0.3049  0.0442
   10MOL   C916 9394   5.457   7.153   2.157 -0.0856 -0.1689  0.3008
   10MOL   C917 9395   5.566   7.230   2.109 -0.2251 -0.0497  0.4808
   10MOL   H918 9396   6.451   7.482   1.043  1.6497 -0.8706  2.9110
   10MOL   H919 9397   6.309   7.397   0.972  0.1261  0.8960 -0.2343
   10MOL   H920 9398   6.450   7.337   1.231 -0.6191 -2.6830 -1.8887
   10MOL   H921 9399   6.288   7.271   1.176 -0.4413 -0.1373 -0.5536
   10MOL   H922 9400   6.368   7.566   1.237 -0.3059  0.1727  0.7174
   10MOL   H923 9401   6.200   7.516   1.218  0.9376  1.8108 -0.6162
   10MOL   H924 9402   6.390   7.437   1.440 -0.5971 -3.0371  1.1293
   10MOL   H925 9403   6.237   7.369   1.415  0.7247 -0.2910 -0.7093
   10MOL   H926 9404   6.312   7.666   1.446 -0.7640  0.8002 -1.5155
   10MOL   H927 9405   6.143   7.636   1.441 -0.7991  0.6091 -0.0855
   10MOL   H928 9406   6.322   7.535   1.667  0.2004 -0.3340 -2.8204
   10MOL   H929 9407   6.216   7.673   1.675  1.5463  0.2343 -0.5045
   10MOL   H930 9408   6.023   7.525   1.608 -0.6999 -0.0520 -0.1229
   10MOL   H931 9409   6.108   7.383   1.650  0.0338  0.2132  0.0014
   10MOL   H932 9410   6.159   7.519   1.886  0.5792 -0.1028 -0.4361
   10MOL   H933 9411   6.031   7.618   1.826  0.2832  0.4436 -1.4074
   10MOL   H934 9412   5.996   7.317   1.868 -0.7738 -0.6042  0.9408
   10MOL   H935 9413   5.890   7.423   1.796  0.5380 -0.1309  0.4413
   10MOL   H936 9414   5.868   7.569   2.011  1.6305  0.7992 -1.2602
   10MOL   H937 9415   5.956   7.436   2.095  1.1010  0.9168 -0.3798
   10MOL   H938 9416   5.385   7.471   1.942  4.0071  0.2129  0.7722
   10MOL   H939 9417   5.207   7.324   2.004 -0.5858  0.6780  0.3738
   10MOL   H940 9418   5.492   7.071   2.219  0.3986  0.6818  1.1761
   10MOL   H941 9419   5.667   7.197   2.126 -1.1713 -3.1070  0.5104
   10MOL   H942 9420   5.015   7.084   2.131  0.3308 -1.0658 -1.3873
   11MOL     O1 9421   3.348   1.003   4.166 -0.7079  0.1125 -0.3635
   11MOL     C2 9422   3.478   1.063   4.154  0.1482  0.1644 -0.0178
   11MOL     C3 9423   3.589   0.962   4.114  0.1837 -0.2116  0.7042
   11MOL     C4 9424   3.730   1.017   4.120 -0.9139  0.2152 -0.0534
   11MOL     C5 9425   3.841   0.918   4.154  0.8437  0.2569  0.0274
   11MOL     C6 9426   3.976   0.979   4.159 -0.1015 -0.3708  0.0499
   11MOL     C7 9427   4.095   0.911   4.223  0.3753  0.1349  0.8788
   11MOL     C8 9428   4.066   0.871   4.372  0.6208  0.1917 -0.3685
   11MOL     C9 9429   4.182   0.811   4.457  0.0307  0.5719 -0.6194
   11MOL    C10 9430   4.184   0.657   4.450 -0.4104  0.0768  0.1887
   11MOL    C11 9431   4.269   0.584   4.560  0.9609  0.3248 -0.0768
   11MOL    O12 9432   4.309   0.456   4.513  0.3742  0.4811 -0.2773
   11MOL    C13 9433   4.390   0.380   4.595 -0.8113 -0.4530  0.1678
   11MOL    O14 9434   4.427   0.428   4.703 -0.5545 -0.1258  0.0117
   11MOL    C15 9435   4.433   0.253   4.533  0.0132 -0.4028 -0.3185
   11MOL    C16 9436   4.536   0.189   4.594  0.2601 -0.0775 -0.1309
   11MOL    C17 9437   4.586   0.064   4.542 -0.6472  0.1067 -0.3196
   11MOL    C18 9438   4.519   0.008   4.434 -0.0102  0.2864  0.3614
   11MOL    C19 9439   4.553   7.847   4.397  0.9557 -0.3489  0.1289
   11MOL    O20 9440   4.605   7.767   4.471 -0.1927 -0.9533 -0.2885
   11MOL    O21 9441   4.534   7.821   4.265 -0.5572 -0.1756 -0.3869
   11MOL    C22 9442   4.411   0.077   4.369 -0.5978 -1.1941 -0.4541
   11MOL    C23 9443   4.379   0.203   4.411  0.0771 -0.2332 -0.1966
   11MOL    H24 9444   3.466   1.136   4.073  0.1624  0.3133  0.1149
   11MOL    H25 9445   3.502   1.117   4.245 -0.7320 -0.1533  0.4004
   11MOL    H26 9446   3.569   0.924   4.014 -0.5251 -0.6895  1.0234
   11MOL    H27 9447   3.581   0.872   4.175 -1.4126 -0.1292  0.6416
   11MOL    H28 9448   3.755   1.072   4.030  0.9512  3.2325  2.2498
   11MOL    H29 9449   3.732   1.091   4.199 -1.8919  0.2178 -0.0200
   11MOL    H30 9450   3.850   0.839   4.078  0.3504  0.3655 -0.1455
   11MOL    H31 9451   3.808   0.863   4.242 -1.3707 -0.8913 -1.4460
   11MOL    H32 9452   4.013   0.988   4.057 -2.0813  1.7564 -0.5373
   11MOL    H33 9453   3.983   1.082   4.194  1.7860 -0.3161 -0.4214
   11MOL    H34 9454   4.122   0.822   4.166 -2.6580 -0.0433 -0.3743
   11MOL    H35 9455   4.181   0.977   4.218  0.2397  0.2235 -0.3711
   11MOL    H36 9456   4.027   0.955   4.429  0.6177  1.0621 -1.6425
   11MOL    H37 9457   3.974   0.812   4.375  0.8244 -0.2082 -1.6773
   11MOL    H38 9458   4.278   0.847   4.419  0.6111 -1.2310 -0.8926
   11MOL    H39 9459   4.174   0.834   4.563 -2.6378 -1.5692 -0.3068
   11MOL    H40 9460   4.222   0.629   4.352 -2.8596  1.2677 -1.1516
   11MOL    H41 9461   4.087   0.608   4.450 -0.5696  0.3706 -1.1877
   11MOL    H42 9462   4.218   0.576   4.656  1.1588 -3.7707 -0.2242
   11MOL    H43 9463   4.352   0.642   4.598  1.3717  0.7395 -1.5531
   11MOL    H44 9464   4.578   0.230   4.684  1.2558 -0.0288 -0.6039
   11MOL    H45 9465   4.661   0.005   4.592 -0.0554 -0.9163 -2.3204
   11MOL    H46 9466   4.353   0.040   4.286 -3.9345  2.6484 -0.0172
   11MOL    H47 9467   4.308   0.260   4.353  0.6295  0.6748  0.0081
   11MOL    H48 9468   3.335   0.944   4.092 -0.6278  0.6596 -0.8165
   11MOL    O49 9469   4.556   7.672   4.237 -0.2397 -0.5502 -0.5268
   11MOL    C50 9470   4.429   7.605   4.251  0.4991 -0.0637  0.2518
   11MOL    C51 9471   4.455   7.453   4.254 -0.2857 -0.0195  0.5827
   11MOL    C52 9472   4.325   7.370   4.258 -0.5599 -0.6149  0.8125
   11MOL    C53 9473   4.351   7.216   4.256  0.2070  0.8041 -0.3599
   11MOL    C54 9474   4.401   7.152   4.125  0.3100 -1.1478  0.0226
   11MOL    C55 9475   4.462   7.010   4.153  0.2682 -0.0946 -0.1465
   11MOL    C56 9476   4.536   6.959   4.033 -0.0617 -0.0230 -0.1675
   11MOL    C57 9477   4.598   6.818   4.040  0.1745  0.0797  0.5799
   11MOL    C58 9478   4.677   6.774   3.914 -0.2015 -0.0831 -1.3894
   11MOL    C59 9479   4.743   6.636   3.921  0.1300 -0.2616 -0.5001
   11MOL    O60 9480   4.797   6.590   3.797 -0.2980  0.3158  0.0993
   11MOL    C61 9481   4.831   6.465   3.783  0.4109 -0.2688  0.4559
   11MOL    O62 9482   4.820   6.382   3.874  0.3045  0.1475 -0.4160
   11MOL    C63 9483   4.885   6.430   3.645 -0.2526 -0.0792 -0.8212
   11MOL    C64 9484   4.905   6.533   3.547  0.0348 -0.3951 -0.3272
   11MOL    C65 9485   4.969   6.513   3.422  0.5772  0.7858 -0.2233
   11MOL    C66 9486   4.990   6.376   3.383 -0.2824  0.5656 -0.4989
   11MOL    C67 9487   5.039   6.339   3.248  1.3953  0.0748 -0.7265
   11MOL    O68 9488   5.034   6.221   3.199  0.1877 -0.0751  0.4940
   11MOL    O69 9489   5.069   6.440   3.180  0.1495 -0.2083 -0.3127
   11MOL    C70 9490   4.967   6.268   3.470  0.7983  0.4762 -0.6053
   11MOL    C71 9491   4.918   6.298   3.602 -0.5375  0.7321  0.0296
   11MOL    H72 9492   4.364   7.630   4.335  2.0496 -0.2718  1.5353
   11MOL    H73 9493   4.385   7.631   4.155  1.0913  1.1806  0.3063
   11MOL    H74 9494   4.510   7.419   4.342 -0.5883  0.9713  1.1616
   11MOL    H75 9495   4.514   7.427   4.166  0.6097  2.3683  0.4462
   11MOL    H76 9496   4.265   7.394   4.346  1.2552 -0.5908  2.0625
   11MOL    H77 9497   4.257   7.395   4.176  0.4178  0.1499  0.2313
   11MOL    H78 9498   4.257   7.177   4.293  0.2005  2.0447  0.9761
   11MOL    H79 9499   4.418   7.190   4.338  0.6893  0.0032 -1.0007
   11MOL    H80 9500   4.312   7.145   4.062  0.8260 -0.4748 -0.7907
   11MOL    H81 9501   4.464   7.224   4.073  0.1479 -1.7519 -1.0143
   11MOL    H82 9502   4.531   7.022   4.236 -0.0116 -1.6221  0.3174
   11MOL    H83 9503   4.379   6.952   4.192 -1.0127  1.8013  0.0433
   11MOL    H84 9504   4.465   6.963   3.950 -1.7646  0.2438  1.2712
   11MOL    H85 9505   4.614   7.034   4.020  0.5685 -0.5492  0.5561
   11MOL    H86 9506   4.679   6.831   4.111 -0.9426 -1.4347  2.1766
   11MOL    H87 9507   4.538   6.735   4.079 -0.7670  0.1488 -0.6914
   11MOL    H88 9508   4.753   6.846   3.884  1.1101 -0.8375  0.0501
   11MOL    H89 9509   4.613   6.787   3.827 -2.2323 -1.7996 -0.2079
   11MOL    H90 9510   4.674   6.561   3.960  2.1356 -1.5492  0.6753
   11MOL    H91 9511   4.820   6.649   3.997 -0.9178 -0.5755  0.6399
   11MOL    H92 9512   4.881   6.635   3.573  0.6051 -0.0504 -1.1307
   11MOL    H93 9513   4.981   6.591   3.349 -1.2974 -0.2597 -1.6823
   11MOL    H94 9514   4.995   6.166   3.449  0.5099  0.1002  0.7852
   11MOL    H95 9515   4.905   6.216   3.670  0.7362 -1.2301 -2.0014
   11MOL    O96 9516   5.114   6.406   3.035 -0.0185 -0.3965 -0.1574
   11MOL    C97 9517   5.018   6.465   2.944 -0.3589 -0.2303  0.1873
   11MOL    C98 9518   5.053   6.433   2.796 -0.5116  0.8637  0.2165
   11MOL    C99 9519   5.186   6.489   2.748  0.1896  0.3640  0.2721
   11MOL   C100 9520   5.233   6.422   2.621  0.1761 -0.2458  0.8585
   11MOL   C101 9521   5.367   6.476   2.570  1.0534 -0.4265 -0.0522
   11MOL   C102 9522   5.409   6.440   2.423 -0.2605 -0.5436 -0.1812
   11MOL   C103 9523   5.456   6.289   2.404 -0.0079 -0.9890  0.7543
   11MOL   C104 9524   5.348   6.186   2.363  0.5562  0.3357  0.9363
   11MOL   C105 9525   5.396   6.038   2.335  0.3248 -0.5855  0.0059
   11MOL   C106 9526   5.307   5.965   2.241 -0.1234 -0.0143 -0.7130
   11MOL   O107 9527   5.326   6.027   2.113  0.2375 -0.1363 -0.3645
   11MOL   C108 9528   5.243   6.004   2.013 -0.3295  0.5209 -0.0777
   11MOL   O109 9529   5.148   5.937   2.020  0.4400  0.1319 -0.2906
   11MOL   C110 9530   5.279   6.095   1.895 -0.4016 -0.2470  0.1067
   11MOL   C111 9531   5.295   6.234   1.914 -0.1897  0.3391 -0.3431
   11MOL   C112 9532   5.341   6.310   1.807 -0.4212  0.6605  0.3309
   11MOL   C113 9533   5.381   6.251   1.683  0.9178  0.3683 -0.1953
   11MOL   C114 9534   5.440   6.335   1.590  0.9243  0.0558  1.0513
   11MOL   O115 9535   5.475   6.446   1.616 -0.2402 -0.5279  0.3718
   11MOL   O116 9536   5.472   6.274   1.473 -0.5002  0.1857  0.4936
   11MOL   C117 9537   5.358   6.116   1.662 -0.2451  0.0436  0.4981
   11MOL   C118 9538   5.301   6.036   1.770 -0.3220 -0.3677 -0.1650
   11MOL   H119 9539   4.919   6.434   2.978 -1.1480  1.5440 -0.4140
   11MOL   H120 9540   5.022   6.572   2.968  0.7306 -0.4255  0.8926
   11MOL   H121 9541   4.968   6.468   2.737 -0.0232 -0.7276 -1.4728
   11MOL   H122 9542   5.038   6.326   2.785 -1.6823  1.0666 -0.3114
   11MOL   H123 9543   5.177   6.597   2.738 -1.0364  0.1265 -1.5375
   11MOL   H124 9544   5.258   6.470   2.828 -0.3958  0.0861  0.7385
   11MOL   H125 9545   5.154   6.436   2.547 -0.3076  0.8992  1.5746
   11MOL   H126 9546   5.225   6.314   2.637 -0.2632 -0.1074  1.5925
   11MOL   H127 9547   5.363   6.581   2.600 -1.7220 -0.5151  0.0447
   11MOL   H128 9548   5.432   6.425   2.641  2.5055  0.6524 -0.5933
   11MOL   H129 9549   5.333   6.463   2.349  1.4419 -1.9627 -2.4119
   11MOL   H130 9550   5.489   6.510   2.401 -0.7455  0.3214  0.7566
   11MOL   H131 9551   5.525   6.304   2.320  0.5368  0.2222  1.3979
   11MOL   H132 9552   5.518   6.256   2.487  1.4359  1.2179  0.6061
   11MOL   H133 9553   5.268   6.187   2.437 -0.6343  0.7174 -0.3323
   11MOL   H134 9554   5.304   6.222   2.270  1.8626 -3.4103 -1.2647
   11MOL   H135 9555   5.395   5.982   2.429  2.4204 -0.6060  0.0363
   11MOL   H136 9556   5.499   6.030   2.300  0.4923 -0.6400  0.5017
   11MOL   H137 9557   5.207   6.001   2.264  0.5463  0.9493  0.7665
   11MOL   H138 9558   5.305   5.858   2.258  0.2035  0.5310  3.1990
   11MOL   H139 9559   5.290   6.274   2.014 -1.3868  1.3337 -0.7935
   11MOL   H140 9560   5.357   6.414   1.830  0.9799  0.7147 -0.8058
   11MOL   H141 9561   5.372   6.073   1.564  1.2704  0.6202  0.4434
   11MOL   H142 9562   5.289   5.930   1.758 -0.7272 -0.3311 -0.0910
   11MOL   O143 9563   5.550   6.361   1.379 -0.0905  0.2157  0.0505
   11MOL   C144 9564   5.685   6.340   1.393  0.4657  0.1849  0.0165
   11MOL   C145 9565   5.756   6.427   1.282  0.1357  0.9982 -0.5486
   11MOL   C146 9566   5.694   6.393   1.147  0.3452 -0.1922  0.1880
   11MOL   C147 9567   5.770   6.444   1.025 -0.2156  0.0870 -0.4350
   11MOL   C148 9568   5.684   6.443   0.897  0.2802  0.8714 -0.1022
   11MOL   C149 9569   5.760   6.456   0.770  0.1588 -0.0097  0.3703
   11MOL   C150 9570   5.664   6.429   0.649  0.4677 -0.2744  0.3520
   11MOL   C151 9571   5.705   6.485   0.517  0.2508  0.3018  0.2830
   11MOL   C152 9572   5.607   6.453   0.411  0.9040 -0.8532 -0.3642
   11MOL   C153 9573   5.661   6.444   0.268  0.1649  0.2172 -0.3271
   11MOL   O154 9574   5.751   6.337   0.247 -0.3785  0.1190  0.2492
   11MOL   C155 9575   5.752   6.261   0.130  0.2576 -0.3601 -0.4368
   11MOL   O156 9576   5.667   6.273   0.044  0.3300 -0.3045  0.1132
   11MOL   C157 9577   5.863   6.167   0.118 -0.5887 -0.3595  0.4434
   11MOL   C158 9578   5.873   6.085   0.004 -0.1860 -0.0407 -0.0626
   11MOL   C159 9579   5.992   6.017   7.946  1.1413 -0.5578 -0.3897
   11MOL   C160 9580   6.103   6.038   0.046 -0.2847 -0.0618 -0.5893
   11MOL   C161 9581   6.234   5.987   0.003 -0.1621  0.1605  0.1674
   11MOL   O162 9582   6.267   5.966   7.863 -0.1035  0.1395 -0.7177
   11MOL   O163 9583   6.328   5.980   0.101 -0.2894  0.1877  0.0930
   11MOL   C164 9584   6.091   6.109   0.168  0.0477  0.6584 -0.0714
   11MOL   C165 9585   5.975   6.176   0.204  1.2609 -0.0760 -0.4658
   11MOL   H166 9586   5.711   6.384   1.489 -2.0173 -0.5581  1.0575
   11MOL   H167 9587   5.717   6.236   1.381  0.3561  0.2404 -0.8422
   11MOL   H168 9588   5.859   6.399   1.299 -0.6212 -0.1515  2.5853
   11MOL   H169 9589   5.743   6.531   1.312  2.2901  1.8221 -2.3110
   11MOL   H170 9590   5.675   6.287   1.134 -1.3859  0.1152 -0.0242
   11MOL   H171 9591   5.588   6.418   1.141 -0.0231 -1.7840 -0.0134
   11MOL   H172 9592   5.852   6.373   1.012 -0.6174 -0.4384 -0.0746
   11MOL   H173 9593   5.812   6.544   1.042  1.2269 -0.1501 -2.4694
   11MOL   H174 9594   5.637   6.345   0.893  0.5689  0.7923 -1.7967
   11MOL   H175 9595   5.607   6.520   0.899  0.1382  0.7147  2.5795
   11MOL   H176 9596   5.804   6.554   0.752  0.4524  0.1728  1.9718
   11MOL   H177 9597   5.830   6.373   0.764 -0.1061 -0.1064 -1.4743
   11MOL   H178 9598   5.631   6.326   0.663  1.5391 -0.2556  3.4769
   11MOL   H179 9599   5.564   6.471   0.659  0.4287 -0.5653  1.2194
   11MOL   H180 9600   5.727   6.592   0.522  0.1255  0.3706 -0.6309
   11MOL   H181 9601   5.804   6.448   0.491  0.9077  0.6041  2.2820
   11MOL   H182 9602   5.523   6.523   0.410  0.3550 -1.5188 -2.0066
   11MOL   H183 9603   5.555   6.360   0.432 -0.2006 -0.2966 -0.6270
   11MOL   H184 9604   5.709   6.540   0.250  2.8335 -1.1901 -0.9527
   11MOL   H185 9605   5.575   6.428   0.203  0.4916 -0.9131 -0.4932
   11MOL   H186 9606   5.795   6.087   7.907 -0.2683 -1.7754 -0.0271
   11MOL   H187 9607   5.990   5.971   7.848 -2.7006 -0.2023 -0.5733
   11MOL   H188 9608   6.176   6.123   0.232 -0.4347  1.1260  0.4752
   11MOL   H189 9609   5.973   6.236   0.294  0.9124 -1.3415  0.3743
   11MOL   O190 9610   6.464   5.935   0.060 -0.5610 -0.2343 -0.2014
   11MOL   C191 9611   6.550   6.051   0.060 -0.1018 -1.3621 -0.5204
   11MOL   C192 9612   6.681   6.010   7.977 -1.2922 -0.1387  0.5126
   11MOL   C193 9613   6.788   6.123   7.958  0.1109  0.0881  0.2468
   11MOL   C194 9614   6.924   6.067   7.946 -0.0054  0.2225  0.2632
   11MOL   C195 9615   7.032   6.174   7.923 -0.4759  0.0177 -0.3037
   11MOL   C196 9616   7.171   6.123   7.915 -0.1134 -0.4689 -0.1115
   11MOL   C197 9617   7.273   6.228   7.890 -0.2190  0.2143 -0.6671
   11MOL   C198 9618   7.412   6.163   7.892 -0.3292 -0.1942  0.2817
   11MOL   C199 9619   7.526   6.239   7.838 -0.4368  0.1404  0.9769
   11MOL   C200 9620   7.657   6.156   7.818 -0.0776 -0.1920 -0.4589
   11MOL   O201 9621   7.688   6.065   7.925  0.2773  0.0763  0.4966
   11MOL   C202 9622   7.771   6.101   0.046  1.2383  0.3176 -0.4545
   11MOL   O203 9623   7.823   6.212   0.057 -0.6813  0.5013  0.0612
   11MOL   C204 9624   7.788   5.988   0.135  0.7063 -0.3785 -0.6883
   11MOL   C205 9625   7.896   5.986   0.224 -0.4921 -1.2559 -0.6354
   11MOL   C206 9626   7.918   5.876   0.311  0.0580 -0.2819  0.2737
   11MOL   C207 9627   7.827   5.766   0.308  0.8147 -0.1901 -0.0494
   11MOL   C208 9628   7.831   5.652   0.399  0.1159 -0.3296  0.3476
   11MOL   O209 9629   7.741   5.564   0.404 -0.4538  0.4975 -0.3562
   11MOL   O210 9630   7.945   5.639   0.477 -0.3112 -0.0151 -0.1087
   11MOL   C211 9631   7.718   5.771   0.218 -0.6414 -0.3420 -0.5448
   11MOL   C212 9632   7.697   5.877   0.125  0.3889 -0.4464 -0.0357
   11MOL   H213 9633   6.504   6.129   7.978  1.5711 -1.8376 -2.4434
   11MOL   H214 9634   6.567   6.078   0.164 -1.5000 -0.1607 -0.5874
   11MOL   H215 9635   6.665   5.979   7.874 -2.0435  2.0277 -0.0555
   11MOL   H216 9636   6.714   5.930   0.066  1.4471  1.4350  1.1443
   11MOL   H217 9637   6.758   6.193   7.880 -0.4563 -1.1983 -0.7056
   11MOL   H218 9638   6.784   6.182   0.072 -0.7820  1.9607 -0.9456
   11MOL   H219 9639   6.920   6.005   7.856  0.5760 -1.8739  1.6364
   11MOL   H220 9640   6.947   6.013   0.060  0.9848  0.2805  0.0528
   11MOL   H221 9641   7.012   6.211   7.823 -1.4082 -0.0057 -0.1255
   11MOL   H222 9642   7.014   6.247   0.023 -4.1813 -1.0639 -0.0697
   11MOL   H223 9643   7.194   6.068   0.028 -0.5042 -0.6852 -0.1435
   11MOL   H224 9644   7.180   6.046   7.840 -0.6029 -0.4840 -0.1559
   11MOL   H225 9645   7.254   6.280   7.796  1.6113 -0.0347 -1.1877
   11MOL   H226 9646   7.271   6.308   7.965  0.0838 -0.3239 -0.0841
   11MOL   H227 9647   7.430   6.149   0.021  1.1263  1.7350  0.3171
   11MOL   H228 9648   7.400   6.064   7.848  2.7198  0.5658 -2.4632
   11MOL   H229 9649   7.546   6.316   7.912  0.3011 -1.2939  2.2805
   11MOL   H230 9650   7.501   6.280   7.740 -0.7580 -0.1436  0.9421
   11MOL   H231 9651   7.739   6.225   7.797 -1.4043  1.6740  0.3870
   11MOL   H232 9652   7.633   6.089   7.736 -1.3899 -0.6085  0.2526
   11MOL   H233 9653   7.965   6.068   0.219 -0.0084 -1.6633 -0.6096
   11MOL   H234 9654   0.029   5.872   0.372  1.8650  1.1288 -2.2220
   11MOL   H235 9655   7.643   5.693   0.216  0.2154 -1.2738  1.4729
   11MOL   H236 9656   7.602   5.881   0.074 -0.3838 -0.6369  1.3718
   11MOL   O237 9657   7.941   5.527   0.572  0.3871  0.7439  0.1965
   11MOL   C238 9658   0.062   5.428   0.536  0.4856  0.3195  0.1386
   11MOL   C239 9659   0.002   5.284   0.532 -0.4510 -0.1541  0.3527
   11MOL   C240 9660   0.085   5.175   0.472 -0.8115  0.5985 -0.5663
   11MOL   C241 9661   0.084   5.175   0.315  0.0456  0.1805  0.6483
   11MOL   C242 9662   7.926   5.134   0.248 -0.3334 -0.4734  0.3381
   11MOL   C243 9663   7.880   4.991   0.281 -0.5733 -0.7071  0.7217
   11MOL   C244 9664   7.744   4.970   0.216 -0.0454 -0.0757  0.1417
   11MOL   C245 9665   7.701   4.823   0.231 -0.1033 -0.4582 -0.4321
   11MOL   C246 9666   7.552   4.793   0.187 -0.1996 -0.1033  0.3940
   11MOL   C247 9667   7.512   4.658   0.238  0.0303  0.0840 -0.5540
   11MOL   O248 9668   7.386   4.618   0.204 -0.1217  0.0385  0.3520
   11MOL   C249 9669   7.340   4.500   0.254 -0.6016  0.2431 -0.0258
   11MOL   O250 9670   7.399   4.420   0.328 -0.1919 -0.7661  0.0596
   11MOL   C251 9671   7.194   4.478   0.225 -0.0041 -0.2923  0.6505
   11MOL   C252 9672   7.111   4.403   0.309 -0.4207 -0.1953 -0.0990
   11MOL   C253 9673   6.979   4.369   0.269 -0.7375 -0.9098  0.0062
   11MOL   C254 9674   6.923   4.427   0.149 -0.0660  0.4454  0.0396
   11MOL   C255 9675   6.787   4.401   0.102 -0.6052 -0.1946 -0.4176
   11MOL   O256 9676   6.730   4.448   0.002 -0.1570 -0.2360 -0.1581
   11MOL   O257 9677   6.719   4.309   0.179  0.0829  0.7880 -0.2343
   11MOL   C258 9678   6.999   4.514   0.074 -0.7794 -0.0268 -0.4128
   11MOL   C259 9679   7.134   4.538   0.111  0.2187 -0.5455 -0.2893
   11MOL   H260 9680   0.103   5.447   0.437 -0.6408 -0.6460 -0.5275
   11MOL   H261 9681   0.130   5.427   0.620  0.0362 -1.1792  0.5119
   11MOL   H262 9682   7.880   5.294   0.490 -0.6077 -0.8483  0.5527
   11MOL   H263 9683   7.971   5.260   0.638 -0.8289 -0.5711  0.2237
   11MOL   H264 9684   0.187   5.194   0.507 -1.1009  2.6781 -0.7704
   11MOL   H265 9685   0.055   5.077   0.509 -1.0104  1.1186  0.6665
   11MOL   H266 9686   0.162   5.105   0.286 -0.1469 -0.0135  0.5944
   11MOL   H267 9687   0.107   5.276   0.282 -0.3672 -0.6108 -2.2834
   11MOL   H268 9688   7.838   5.199   0.256 -0.5225 -0.8530  1.5473
   11MOL   H269 9689   7.941   5.130   0.141  0.6596  0.6659  0.4245
   11MOL   H270 9690   7.954   4.918   0.250  0.6163  0.6793  0.2341
   11MOL   H271 9691   7.871   4.975   0.389 -0.4255 -1.5353  0.6129
   11MOL   H272 9692   7.664   5.018   0.273 -1.7513 -1.4322 -1.0359
   11MOL   H273 9693   7.746   4.995   0.110 -0.5395  0.3728  0.2328
   11MOL   H274 9694   7.767   4.758   0.174  1.9216  2.3712 -1.4119
   11MOL   H275 9695   7.703   4.806   0.339  0.9918 -0.1570 -0.4036
   11MOL   H276 9696   7.538   4.798   0.079 -0.3145 -0.0764  0.4101
   11MOL   H277 9697   7.491   4.869   0.236 -0.8161 -0.6204  0.4446
   11MOL   H278 9698   7.517   4.662   0.347  4.2053 -2.3340 -0.5359
   11MOL   H279 9699   7.592   4.588   0.214 -0.3568 -0.3817 -0.4921
   11MOL   H280 9700   7.153   4.368   0.402 -0.1008 -0.3700 -0.3107
   11MOL   H281 9701   6.918   4.299   0.324  1.3115 -1.2010  1.9607
   11MOL   H282 9702   6.949   4.549   7.963 -1.0946  1.9415  0.5185
   11MOL   H283 9703   7.193   4.593   0.039  1.5111 -0.9505  0.4519
   11MOL   O284 9704   6.580   4.281   0.137  0.0556 -0.0924 -0.3853
   11MOL   C285 9705   6.586   4.163   0.060 -0.2228 -0.5612  0.4522
   11MOL   C286 9706   6.440   4.128   0.024  0.0816 -0.6476 -0.1743
   11MOL   C287 9707   6.347   4.047   0.125 -0.2200  0.1979  0.1384
   11MOL   C288 9708   6.215   3.992   0.064  0.4185 -0.2352  0.0817
   11MOL   C289 9709   6.136   3.907   0.163  0.7434  0.5635  0.2191
   11MOL   C290 9710   6.013   3.838   0.090 -0.4245  0.0091 -0.0020
   11MOL   C291 9711   5.928   3.750   0.178  0.0226 -0.2929 -0.1601
   11MOL   C292 9712   5.853   3.824   0.285  0.0179  0.4679 -0.4190
   11MOL   C293 9713   5.733   3.900   0.228  0.5806  0.2610 -0.0900
   11MOL   C294 9714   5.699   4.000   0.341 -0.1133 -0.3209 -0.2186
   11MOL   O295 9715   5.636   3.915   0.444  0.0311 -0.1074 -0.4026
   11MOL   C296 9716   5.554   3.969   0.531 -0.2586  0.2163  0.1032
   11MOL   O297 9717   5.520   4.089   0.537 -0.8431  1.0422 -0.3241
   11MOL   C298 9718   5.484   3.866   0.607  0.0215  0.0503  0.3116
   11MOL   C299 9719   5.510   3.725   0.596 -0.3801 -0.4861 -0.4787
   11MOL   C300 9720   5.426   3.629   0.653 -0.4806 -0.3402  0.0906
   11MOL   C301 9721   5.323   3.672   0.740  0.2905  0.6773  0.0152
   11MOL   C302 9722   5.240   3.565   0.810 -0.0289  0.5269 -0.0351
   11MOL   O303 9723   5.221   3.451   0.766  0.4655 -0.2609  0.4357
   11MOL   O304 9724   5.187   3.606   0.925  0.1459  0.3529 -0.0178
   11MOL   C305 9725   5.302   3.813   0.766  0.0544  0.2680  0.3257
   11MOL   C306 9726   5.382   3.907   0.696 -0.2992 -0.0063 -0.4904
   11MOL   H307 9727   6.645   4.193   7.951  1.4794 -1.5282  1.2445
   11MOL   H308 9728   6.642   4.087   0.114 -0.7989 -0.8871  0.5848
   11MOL   H309 9729   6.450   4.072   7.909  1.6495 -1.0690  0.2418
   11MOL   H310 9730   6.390   4.222   0.003 -0.3860 -1.0715 -0.9744
   11MOL   H311 9731   6.408   3.965   0.164  2.5626  1.8762 -0.5260
   11MOL   H312 9732   6.334   4.117   0.207 -2.2781  2.4255 -2.0396
   11MOL   H313 9733   6.236   3.937   7.951 -1.9512 -1.8809  0.4867
   11MOL   H314 9734   6.161   4.077   0.023  2.1842  1.0056  0.2877
   11MOL   H315 9735   6.202   3.827   0.198  1.1878  0.8637  0.0689
   11MOL   H316 9736   6.094   3.972   0.239 -1.8890 -0.2740 -0.4466
   11MOL   H317 9737   5.953   3.917   0.044 -0.9143 -0.5366 -0.3002
   11MOL   H318 9738   6.047   3.770   0.013  0.2053  1.8474 -1.3999
   11MOL   H319 9739   5.840   3.711   0.128 -0.9258  1.6719 -0.0805
   11MOL   H320 9740   5.982   3.664   0.218 -0.6093 -0.7259 -0.2296
   11MOL   H321 9741   5.824   3.749   0.358 -1.3306  1.1895 -0.1934
   11MOL   H322 9742   5.919   3.886   0.346 -1.2630  0.7412  0.6944
   11MOL   H323 9743   5.649   3.834   0.206  1.1398 -0.3766 -0.3366
   11MOL   H324 9744   5.762   3.961   0.142  1.4972 -1.4073 -0.9997
   11MOL   H325 9745   5.639   4.079   0.298 -0.0116 -0.2253 -0.1843
   11MOL   H326 9746   5.793   4.038   0.382 -0.4423 -0.4191  0.6481
   11MOL   H327 9747   5.586   3.684   0.531 -0.6327  0.6541 -1.4977
   11MOL   H328 9748   5.445   3.525   0.632 -0.6936 -0.5483  0.9186
   11MOL   H329 9749   5.222   3.848   0.829 -0.1504  1.7059 -0.7166
   11MOL   H330 9750   5.363   4.012   0.709  3.1802  0.7888 -1.4645
   11MOL   O331 9751   5.118   3.497   1.008  0.3008 -0.0017 -0.7436
   11MOL   C332 9752   4.982   3.521   0.980  0.6132 -0.1355 -0.1537
   11MOL   C333 9753   4.912   3.441   1.089 -0.3896 -0.1613  0.1366
   11MOL   C334 9754   4.763   3.477   1.096  0.1062  0.3418  0.7942
   11MOL   C335 9755   4.705   3.450   1.233 -0.2694 -0.3954 -0.0179
   11MOL   C336 9756   4.563   3.485   1.238  0.9441 -0.5900 -0.2086
   11MOL   C337 9757   4.504   3.470   1.387 -0.2656  0.2690 -0.5679
   11MOL   C338 9758   4.525   3.328   1.452  0.1658 -0.9542 -0.9009
   11MOL   C339 9759   4.462   3.311   1.596 -0.2978  0.2686  0.4081
   11MOL   C340 9760   4.530   3.377   1.723  0.4784  0.4474 -0.0815
   11MOL   C341 9761   4.667   3.315   1.771 -0.5999  0.2104 -0.2569
   11MOL   O342 9762   4.771   3.322   1.674  0.5558  0.4747  0.3235
   11MOL   C343 9763   4.891   3.275   1.708  0.7441 -0.0740 -0.5541
   11MOL   O344 9764   4.905   3.219   1.819  0.6077 -0.1862  0.1107
   11MOL   C345 9765   5.003   3.299   1.613  0.4886 -0.3600 -0.5125
   11MOL   C346 9766   4.980   3.289   1.473 -0.4827  0.7904  0.0208
   11MOL   C347 9767   5.090   3.290   1.382  0.6511 -1.0745  1.0722
   11MOL   C348 9768   5.225   3.293   1.432  0.3405  0.1860 -0.5809
   11MOL   C349 9769   5.348   3.310   1.338  0.4416 -0.9976  0.6309
   11MOL   O350 9770   5.463   3.296   1.373  1.1547  0.2295 -0.2634
   11MOL   O351 9771   5.316   3.369   1.225 -0.0054 -0.1245  0.0271
   11MOL   C352 9772   5.244   3.319   1.573  0.5263  0.4611  0.2247
   11MOL   C353 9773   5.131   3.317   1.662 -0.1455  0.0190  0.0491
   11MOL   H354 9774   4.971   3.629   0.984 -0.2204 -0.2557  1.0986
   11MOL   H355 9775   4.948   3.507   0.877  3.0291  1.0128 -1.1309
   11MOL   H356 9776   4.964   3.478   1.177  1.1219 -0.2140 -0.7257
   11MOL   H357 9777   4.934   3.334   1.088  0.1004 -0.0537 -0.8061
   11MOL   H358 9778   4.766   3.585   1.077  1.1927  0.3992  1.2387
   11MOL   H359 9779   4.695   3.443   1.018  0.6259 -0.8491  0.8549
   11MOL   H360 9780   4.757   3.501   1.314  0.6370  1.3434 -1.6590
   11MOL   H361 9781   4.723   3.345   1.252 -0.3249  0.0519  2.6952
   11MOL   H362 9782   4.562   3.592   1.219  2.8656 -0.1856  1.8190
   11MOL   H363 9783   4.504   3.429   1.166  0.9320 -1.8700  0.7762
   11MOL   H364 9784   4.549   3.550   1.447 -1.1993  0.3622  0.0261
   11MOL   H365 9785   4.396   3.487   1.386 -0.6430 -2.0152 -0.4754
   11MOL   H366 9786   4.494   3.250   1.383 -1.3912 -1.3069  0.1667
   11MOL   H367 9787   4.627   3.295   1.467  0.5334  0.6533  0.2887
   11MOL   H368 9788   4.360   3.349   1.596 -0.4498 -0.1429 -0.2172
   11MOL   H369 9789   4.451   3.204   1.611  2.2427 -0.2079 -0.9556
   11MOL   H370 9790   4.461   3.363   1.806 -0.9852 -0.8025 -1.4733
   11MOL   H371 9791   4.551   3.481   1.700  0.1206 -0.0235 -2.6806
   11MOL   H372 9792   4.657   3.211   1.802  3.4826 -0.1145  0.1308
   11MOL   H373 9793   4.706   3.373   1.854  1.7829  0.1199 -1.2727
   11MOL   H374 9794   4.878   3.272   1.443 -0.2267  2.2473 -1.7442
   11MOL   H375 9795   5.070   3.298   1.277  2.0852  0.9253  0.9190
   11MOL   H376 9796   5.342   3.343   1.614  0.9125 -1.3706  0.4112
   11MOL   H377 9797   5.141   3.330   1.768 -0.5831  0.3275  0.0518
   11MOL   O378 9798   5.437   3.367   1.127  0.2254  0.0567  0.0275
   11MOL   C379 9799   5.494   3.494   1.116  0.3304  0.1344 -0.7874
   11MOL   C380 9800   5.577   3.495   0.984  0.6022  1.0661 -0.3083
   11MOL   C381 9801   5.633   3.631   0.950 -0.5833 -0.5059  0.1441
   11MOL   C382 9802   5.734   3.605   0.839 -0.1442  0.2762  0.1321
   11MOL   C383 9803   5.826   3.723   0.801 -0.1535  0.4601  0.2008
   11MOL   C384 9804   5.940   3.687   0.708 -0.1232 -0.0584 -0.3642
   11MOL   C385 9805   6.020   3.794   0.639 -0.3319 -0.6693 -0.0583
   11MOL   C386 9806   6.134   3.743   0.543  0.2882  0.0011 -0.3841
   11MOL   C387 9807   6.238   3.850   0.527  0.1259 -0.7922 -0.3286
   11MOL   C388 9808   6.336   3.869   0.647  1.0700  0.0189  0.3169
   11MOL   O389 9809   6.443   3.949   0.616  0.6948 -0.8038 -0.7063
   11MOL   C390 9810   6.553   3.942   0.690 -0.1308  0.5959 -0.1846
   11MOL   O391 9811   6.581   3.843   0.764 -0.2936 -0.7053  0.4720
   11MOL   C392 9812   6.644   4.065   0.672 -0.1002 -0.1387  0.3212
   11MOL   C393 9813   6.749   4.089   0.758 -0.6196  0.7498  0.0318
   11MOL   C394 9814   6.832   4.200   0.731  0.1658 -0.1985  0.0698
   11MOL   C395 9815   6.807   4.285   0.622 -0.3798  0.3853 -0.2326
   11MOL   C396 9816   6.904   4.396   0.593 -0.4535 -0.0432 -0.0047
   11MOL   O397 9817   6.872   4.494   0.529  0.1873  0.6549  0.5029
   11MOL   O398 9818   7.030   4.371   0.650  0.1122 -0.3974  0.1679
   11MOL   C399 9819   6.700   4.260   0.537  0.3517 -0.0145 -0.2254
   11MOL   C400 9820   6.617   4.149   0.555  0.7141 -0.9999 -0.6347
   11MOL   H401 9821   5.414   3.566   1.135 -0.4908 -0.9371 -0.0606
   11MOL   H402 9822   5.568   3.512   1.194 -0.6174 -0.8361  0.3583
   11MOL   H403 9823   5.511   3.457   0.906 -0.6890  0.8048  0.8674
   11MOL   H404 9824   5.657   3.423   1.001  0.1257  1.0406  1.9867
   11MOL   H405 9825   5.558   3.698   0.909  1.3449  0.7661 -1.4058
   11MOL   H406 9826   5.685   3.675   1.036  0.1406 -0.1176 -0.4816
   11MOL   H407 9827   5.688   3.557   0.753  2.8342 -0.9669 -0.8333
   11MOL   H408 9828   5.788   3.518   0.876  1.3327  0.4559 -1.5914
   11MOL   H409 9829   5.763   3.791   0.744 -0.9714 -1.0817 -0.7698
   11MOL   H410 9830   5.868   3.768   0.891  1.5183  0.2532 -0.4732
   11MOL   H411 9831   6.016   3.631   0.763 -1.0919 -1.5764 -0.5389
   11MOL   H412 9832   5.910   3.608   0.639  1.6548 -0.8824 -0.2329
   11MOL   H413 9833   5.965   3.865   0.578  1.1985 -0.3059 -1.0371
   11MOL   H414 9834   6.050   3.860   0.720  0.0403 -1.1933  0.2314
   11MOL   H415 9835   6.195   3.661   0.581 -0.0039 -0.3385 -0.6522
   11MOL   H416 9836   6.098   3.708   0.446 -0.9051 -0.8970  0.3718
   11MOL   H417 9837   6.197   3.944   0.488  0.1536 -0.5560  0.2073
   11MOL   H418 9838   6.309   3.818   0.450 -0.0063 -1.2613 -0.2511
   11MOL   H419 9839   6.361   3.774   0.695  3.6653  1.2478  1.5479
   11MOL   H420 9840   6.276   3.914   0.726  0.3737  1.9942 -1.2927
   11MOL   H421 9841   6.769   4.014   0.833 -2.0556 -0.3106 -0.6214
   11MOL   H422 9842   6.919   4.218   0.793  0.2639 -0.7666  0.1002
   11MOL   H423 9843   6.683   4.319   0.448  1.6903  2.2303  0.9635
   11MOL   H424 9844   6.540   4.128   0.482 -0.5477 -1.0755  0.7004
   11MOL   O425 9845   7.128   4.489   0.618 -0.3278  0.3437 -0.3653
   11MOL   C426 9846   7.123   4.574   0.731  0.0268 -0.4587 -0.1947
   11MOL   C427 9847   7.228   4.680   0.703  0.6612  0.2047  0.4045
   11MOL   C428 9848   7.207   4.783   0.595 -0.3463 -0.3681 -0.4733
   11MOL   C429 9849   7.303   4.902   0.612 -0.6206 -0.3392  0.2438
   11MOL   C430 9850   7.332   4.976   0.483 -0.0910 -0.4066 -0.0203
   11MOL   C431 9851   7.469   5.052   0.486  0.1611 -0.1810  0.4027
   11MOL   C432 9852   7.469   5.176   0.575 -0.6450 -0.2310  0.7655
   11MOL   C433 9853   7.615   5.219   0.600 -0.1199  0.0173 -0.5319
   11MOL   C434 9854   7.632   5.323   0.710 -0.6642  0.3629 -0.3778
   11MOL   C435 9855   7.557   5.459   0.678  0.0569  0.3100 -0.0812
   11MOL   O436 9856   7.582   5.535   0.793  0.4733 -0.6766  0.3769
   11MOL   C437 9857   7.484   5.546   0.888  0.2703 -0.0386 -0.1049
   11MOL   O438 9858   7.376   5.491   0.881 -0.1946 -0.1274 -0.8118
   11MOL   C439 9859   7.528   5.646   0.992 -0.6071 -0.4604 -0.1554
   11MOL   C440 9860   7.462   5.639   1.119  0.4659  0.0682  0.2433
   11MOL   C441 9861   7.492   5.729   1.219  0.2709  0.8333  1.0959
   11MOL   C442 9862   7.609   5.814   1.205 -0.0061  0.4354 -0.5129
   11MOL   C443 9863   7.658   5.891   1.322 -0.3281 -0.1112  0.0036
   11MOL   O444 9864   7.759   5.963   1.326 -0.5734 -0.0596  0.4609
   11MOL   O445 9865   7.575   5.870   1.428 -0.7813  0.3659  0.2773
   11MOL   C446 9866   7.681   5.809   1.078  0.1419 -0.0354 -0.3008
   11MOL   C447 9867   7.639   5.729   0.973  0.1046 -0.2565  0.1581
   11MOL   H448 9868   7.024   4.618   0.739  0.4677  0.8468 -1.6257
   11MOL   H449 9869   7.148   4.517   0.820 -1.8389 -1.1465 -0.0839
   11MOL   H450 9870   7.324   4.637   0.674  1.6766  2.4045  0.4112
   11MOL   H451 9871   7.241   4.734   0.797  2.4592 -0.7862  0.7475
   11MOL   H452 9872   7.208   4.733   0.498 -0.8964 -0.1331 -0.6071
   11MOL   H453 9873   7.101   4.811   0.595 -0.2149  0.1383 -0.1838
   11MOL   H454 9874   7.400   4.874   0.655 -0.5564 -0.3375  0.1006
   11MOL   H455 9875   7.260   4.973   0.682  1.1294  2.4240 -1.3885
   11MOL   H456 9876   7.326   4.910   0.397  0.8950 -1.3302  0.6084
   11MOL   H457 9877   7.254   5.049   0.460  0.2036 -0.3367 -0.8130
   11MOL   H458 9878   7.549   4.980   0.506 -1.2835 -1.7652  0.5745
   11MOL   H459 9879   7.496   5.083   0.385 -1.4402  0.8813  0.2846
   11MOL   H460 9880   7.409   5.256   0.532 -2.2110 -0.8219  1.7928
   11MOL   H461 9881   7.430   5.150   0.674  1.1639  1.1781  1.8918
   11MOL   H462 9882   7.686   5.142   0.630 -0.4584  0.2489  0.8837
   11MOL   H463 9883   7.655   5.265   0.510  0.1212  2.7885  0.9452
   11MOL   H464 9884   7.739   5.332   0.730 -0.7296  1.2747 -0.4351
   11MOL   H465 9885   7.579   5.284   0.796 -0.8650  1.5034  0.0281
   11MOL   H466 9886   7.453   5.435   0.658 -0.4127  1.0786  1.3519
   11MOL   H467 9887   7.603   5.509   0.593  0.4058  0.9915  0.5016
   11MOL   H468 9888   7.384   5.564   1.130 -1.5825  2.0399 -0.4381
   11MOL   H469 9889   7.435   5.699   1.306 -0.7722  0.0386  0.1600
   11MOL   H470 9890   7.776   5.859   1.065 -0.5254  1.4093  0.3165
   11MOL   H471 9891   7.701   5.727   0.885  0.9469  3.6481  0.5871
   11MOL   O472 9892   7.608   5.953   1.543  0.0711  0.0566  0.1515
   11MOL   C473 9893   7.535   6.077   1.532 -0.0824 -0.1169 -0.2446
   11MOL   C474 9894   7.498   6.128   1.676 -0.5759  0.7337 -0.1023
   11MOL   C475 9895   7.629   6.151   1.766  0.1564  0.2290  0.0966
   11MOL   C476 9896   7.597   6.204   1.907 -0.1115 -1.1630  0.6817
   11MOL   C477 9897   7.558   6.099   2.012 -0.7883  0.2820 -0.4532
   11MOL   C478 9898   7.509   6.161   2.139  0.6779  1.3689 -0.0647
   11MOL   C479 9899   7.365   6.189   2.156  0.5616  0.3588 -0.3036
   11MOL   C480 9900   7.331   6.270   2.283 -0.5201  0.0636 -0.7538
   11MOL   C481 9901   7.394   6.226   2.417 -0.0388 -0.3894 -0.3398
   11MOL   C482 9902   7.362   6.319   2.535  0.0139  0.1627 -0.2020
   11MOL   O483 9903   7.224   6.315   2.565  0.4233 -0.2100 -0.8442
   11MOL   C484 9904   7.160   6.211   2.631  0.2747 -0.6798 -1.0224
   11MOL   O485 9905   7.212   6.102   2.653 -0.0081  0.0945  0.1360
   11MOL   C486 9906   7.016   6.240   2.659 -0.3829 -0.1757  0.2954
   11MOL   C487 9907   6.934   6.133   2.681  0.1274 -0.3951 -0.0710
   11MOL   C488 9908   6.797   6.142   2.666 -0.1579 -0.4619 -0.0492
   11MOL   C489 9909   6.739   6.264   2.634  0.0321  0.1021 -0.3684
   11MOL   C490 9910   6.591   6.273   2.615 -0.5125  0.2643  0.1465
   11MOL   O491 9911   6.534   6.380   2.600 -0.1165  0.0707  0.8726
   11MOL   O492 9912   6.520   6.157   2.623  0.4284 -0.1355  0.1746
   11MOL   C493 9913   6.824   6.373   2.616 -0.3799  0.4067 -0.4665
   11MOL   C494 9914   6.964   6.364   2.633 -0.0194  0.0171 -0.6939
   11MOL   H495 9915   7.610   6.146   1.491  1.9453 -2.8119 -1.2426
   11MOL   H496 9916   7.456   6.066   1.458  2.2553 -2.2187 -2.5268
   11MOL   H497 9917   7.450   6.052   1.737 -0.6344  0.1255 -0.8942
   11MOL   H498 9918   7.436   6.217   1.681 -0.0093  1.0516  1.8770
   11MOL   H499 9919   7.696   6.067   1.782 -1.0368 -0.0876  4.0033
   11MOL   H500 9920   7.680   6.227   1.707 -0.9570  0.0934 -1.0857
   11MOL   H501 9921   7.515   6.273   1.887  0.5796 -0.4722  0.2404
   11MOL   H502 9922   7.679   6.268   1.940  0.7823 -2.0536  0.2136
   11MOL   H503 9923   7.486   6.025   1.978  0.9578 -0.7476 -1.9941
   11MOL   H504 9924   7.650   6.048   2.042  0.2191  2.7104  0.7341
   11MOL   H505 9925   7.549   6.087   2.208 -1.2970 -1.4284 -1.8489
   11MOL   H506 9926   7.563   6.252   2.167  3.3615 -0.5670  1.2087
   11MOL   H507 9927   7.317   6.247   2.077 -1.4306  1.6662  1.8079
   11MOL   H508 9928   7.316   6.091   2.150  1.1787 -0.0370  1.0077
   11MOL   H509 9929   7.342   6.377   2.269 -1.2297  0.4313  1.2601
   11MOL   H510 9930   7.223   6.257   2.286 -0.2886 -1.7232  1.3369
   11MOL   H511 9931   7.502   6.237   2.407  0.4265  0.2512  4.4513
   11MOL   H512 9932   7.358   6.125   2.440 -2.9484  0.7552  0.2596
   11MOL   H513 9933   7.387   6.422   2.510 -0.7132  0.4713  0.3514
   11MOL   H514 9934   7.415   6.292   2.627 -0.6044  1.7481  0.6195
   11MOL   H515 9935   6.980   6.036   2.685  2.7551  0.8950  2.8095
   11MOL   H516 9936   6.744   6.049   2.678  0.8720 -1.3473 -2.1222
   11MOL   H517 9937   6.789   6.470   2.585  0.7669  1.9754  2.9451
   11MOL   H518 9938   7.029   6.449   2.617  0.0721  0.0411 -0.1930
   11MOL   O519 9939   6.377   6.179   2.569  0.1569  0.6346 -0.2918
   11MOL   C520 9940   6.289   6.189   2.677  0.5988 -0.1678 -0.6002
   11MOL   C521 9941   6.143   6.185   2.634 -0.3759  0.1676 -0.3469
   11MOL   C522 9942   6.046   6.157   2.753 -0.4220 -0.0984 -0.4771
   11MOL   C523 9943   5.902   6.141   2.707 -0.2342 -0.4831 -0.2588
   11MOL   C524 9944   5.798   6.150   2.821 -0.3672  0.2666 -0.0087
   11MOL   C525 9945   5.656   6.140   2.757 -0.4050  0.4493  0.4257
   11MOL   C526 9946   5.538   6.133   2.857 -0.7833  0.1560 -0.2158
   11MOL   C527 9947   5.404   6.095   2.796 -0.1173  0.1728  0.1523
   11MOL   C528 9948   5.293   6.153   2.883  0.7074 -0.4000 -0.2427
   11MOL   C529 9949   5.248   6.048   2.983  0.0911 -0.2935  0.0047
   11MOL   O530 9950   5.338   6.052   3.087  0.3347 -0.2239  0.0849
   11MOL   C531 9951   5.318   6.005   3.206  0.1889  0.3227  0.3557
   11MOL   O532 9952   5.212   5.958   3.244  0.4904 -0.2679 -0.3234
   11MOL   C533 9953   5.452   6.018   3.288  0.2982  0.1672 -0.1964
   11MOL   C534 9954   5.571   6.078   3.240 -0.3014  0.1129 -0.4327
   11MOL   C535 9955   5.687   6.081   3.319  0.0808 -0.1383 -0.0815
   11MOL   C536 9956   5.684   6.020   3.445 -0.2491  0.0029  0.1618
   11MOL   C537 9957   5.809   6.022   3.531  0.0716 -0.2983 -0.3010
   11MOL   O538 9958   5.914   6.070   3.486 -0.1873 -0.6498 -0.5440
   11MOL   O539 9959   5.805   5.963   3.656 -0.4997 -0.7636  0.1737
   11MOL   C540 9960   5.566   5.969   3.500 -0.4178  0.7133  0.4610
   11MOL   C541 9961   5.448   5.963   3.421  0.2624 -0.5508 -0.2670
   11MOL   H542 9962   6.301   6.114   2.755 -0.3594  1.8139  1.5014
   11MOL   H543 9963   6.309   6.284   2.726  0.3269  0.3428 -1.4728
   11MOL   H544 9964   6.129   6.102   2.564 -1.6850 -0.6223  0.8333
   11MOL   H545 9965   6.126   6.284   2.591  2.0221  0.3918 -0.8299
   11MOL   H546 9966   6.078   6.066   2.804  0.6005  0.0129 -0.9074
   11MOL   H547 9967   6.063   6.232   2.831  1.1855  0.3054 -1.1967
   11MOL   H548 9968   5.876   6.054   2.646 -2.3043  0.3119 -0.5659
   11MOL   H549 9969   5.881   6.224   2.640 -0.8136 -0.0765  0.4176
   11MOL   H550 9970   5.817   6.072   2.895 -0.1426 -0.0914 -0.4387
   11MOL   H551 9971   5.809   6.248   2.868 -0.2474 -0.5963  1.7994
   11MOL   H552 9972   5.641   6.226   2.692 -1.4287 -0.0845 -0.0641
   11MOL   H553 9973   5.655   6.049   2.697 -2.4286 -0.4754  1.8192
   11MOL   H554 9974   5.562   6.050   2.924  1.5256  2.0812  1.3906
   11MOL   H555 9975   5.516   6.221   2.917  0.0180 -1.2856  2.2324
   11MOL   H556 9976   5.394   6.147   2.700 -1.0050 -0.3587 -0.0492
   11MOL   H557 9977   5.404   5.989   2.772 -1.8289  0.6492 -2.1934
   11MOL   H558 9978   5.218   6.175   2.807  1.3178  1.7187 -0.2628
   11MOL   H559 9979   5.318   6.250   2.926  1.5077 -1.2599  1.2973
   11MOL   H560 9980   5.248   5.949   2.936  0.7085 -0.2575 -0.0702
   11MOL   H561 9981   5.147   6.066   3.020  0.1004 -1.0777  0.4086
   11MOL   H562 9982   5.574   6.132   3.146 -1.6491  0.8403 -0.0757
   11MOL   H563 9983   5.776   6.131   3.284 -0.7484  2.1157  0.9244
   11MOL   H564 9984   5.567   5.932   3.602  0.1424  0.0969  0.2333
   11MOL   H565 9985   5.358   5.916   3.458  0.0329  0.2049  0.1555
   11MOL   O566 9986   5.930   5.957   3.731 -0.4765  0.0161  0.3470
   11MOL   C567 9987   5.929   6.060   3.825 -0.1386  0.3623 -0.0485
   11MOL   C568 9988   6.070   6.064   3.891  0.5936 -0.1968  0.0700
   11MOL   C569 9989   6.171   6.129   3.798  0.0252 -0.3484  0.3471
   11MOL   C570 9990   6.305   6.158   3.867 -0.6011 -0.0929 -0.0578
   11MOL   C571 9991   6.392   6.030   3.861  0.1744  0.1574  0.0017
   11MOL   C572 9992   6.538   6.054   3.916  0.3772  0.3696  0.1597
   11MOL   C573 9993   6.539   6.098   4.065  0.1568 -0.0921 -0.4433
   11MOL   C574 9994   6.671   6.153   4.120 -0.0509 -0.5316  0.0252
   11MOL   C575 9995   6.692   6.301   4.083 -0.3677 -0.7846 -0.0706
   11MOL   C576 9996   6.832   6.347   4.115 -0.4330  0.4354 -0.4162
   11MOL   O577 9997   6.850   6.485   4.110  0.4105 -0.2293  0.8384
   11MOL   C578 9998   6.957   6.539   4.147 -0.3385 -0.7460 -0.3813
   11MOL   O579 9999   7.055   6.480   4.186  0.3485  0.2814  0.8436
   11MOL   C58010000   6.958   6.682   4.116  0.4923  0.3024  0.4106
   11MOL   C58110001   6.844   6.742   4.060  0.4914  0.6120 -0.0410
   11MOL   C58210002   6.840   6.881   4.040 -0.0085  0.4951  0.3748
   11MOL   C58310003   6.946   6.972   4.074 -0.9614  0.1196  0.2430
   11MOL   C58410004   6.939   7.119   4.055  0.3222  0.2387 -0.6257
   11MOL   O58510005   6.842   7.177   4.011 -0.1693 -0.2846  0.7623
   11MOL   O58610006   7.056   7.181   4.078  0.0171 -0.3389 -0.1303
   11MOL   C58710007   7.060   6.906   4.125 -0.3293  0.2585 -0.9739
   11MOL   C58810008   7.069   6.765   4.142 -0.0897 -0.4128 -0.2964
   11MOL   H58910009   5.904   6.151   3.772 -2.0023  0.2691  0.6387
   11MOL   H59010010   5.851   6.034   3.897 -0.4045  1.0084 -0.0982
   11MOL   H59110011   6.098   5.964   3.924 -1.9344 -0.5325  1.3589
   11MOL   H59210012   6.062   6.133   3.975 -0.4056  0.9013 -0.9148
   11MOL   H59310013   6.190   6.075   3.705 -0.8980  2.9929 -1.8572
   11MOL   H59410014   6.128   6.227   3.782 -2.9956 -0.9664  3.9147
   11MOL   H59510015   6.278   6.186   3.969 -1.7176 -1.0048 -0.0865
   11MOL   H59610016   6.347   6.241   3.811 -1.2550 -0.6877 -1.4495
   11MOL   H59710017   6.345   5.955   3.925  3.5111  0.3830  2.9167
   11MOL   H59810018   6.390   5.986   3.762  2.2363 -0.1303  0.0598
   11MOL   H59910019   6.589   5.958   3.915 -0.7654 -0.2474 -1.1677
   11MOL   H60010020   6.589   6.122   3.849 -1.6943  2.5665  0.7368
   11MOL   H60110021   6.467   6.179   4.082  0.6105  0.2134  0.0372
   11MOL   H60210022   6.489   6.022   4.126 -0.2648  1.2414  0.9179
   11MOL   H60310023   6.675   6.126   4.226  1.3322 -0.3528  0.0252
   11MOL   H60410024   6.756   6.096   4.082 -0.3022  0.4607 -2.0556
   11MOL   H60510025   6.628   6.371   4.137 -0.1838  0.4553 -1.4303
   11MOL   H60610026   6.670   6.316   3.977  1.1034 -2.1249 -0.5969
   11MOL   H60710027   6.905   6.306   4.046  0.0722  0.0134  0.3666
   11MOL   H60810028   6.868   6.311   4.211 -1.6885 -1.1969 -0.5301
   11MOL   H60910029   6.754   6.688   4.035 -0.2824  1.8190  0.0996
   11MOL   H61010030   6.755   6.927   3.993 -1.4425 -0.7891  1.6431
   11MOL   H61110031   7.150   6.958   4.156  0.2462 -1.5575  0.4495
   11MOL   H61210032   7.162   6.730   4.184  0.4831 -0.4283 -1.5515
   11MOL   O61310033   7.046   7.334   4.104 -0.7146 -0.1100  0.1603
   11MOL   C61410034   7.099   7.400   3.987  0.0478  0.4446 -0.5337
   11MOL   C61510035   7.253   7.411   3.993  0.0118 -0.0255  0.1889
   11MOL   C61610036   7.299   7.536   4.075  0.2756 -0.3202  0.2291
   11MOL   C61710037   7.450   7.538   4.069 -0.4977 -0.6705  0.5508
   11MOL   C61810038   7.521   7.585   3.944  0.0824  0.0578  0.3462
   11MOL   C61910039   7.646   7.671   3.971 -0.2589  0.3802 -0.5433
   11MOL   C62010040   7.726   7.711   3.848 -0.6310  0.3139  0.4204
   11MOL   C62110041   7.864   7.758   3.898 -0.2905 -0.0310  0.3796
   11MOL   C62210042   7.854   7.895   3.971 -0.1685  0.4575 -0.0683
   11MOL   C62310043   0.013   7.959   4.005  0.2148  0.2519  0.7367
   11MOL   O62410044   0.100   7.963   3.897 -0.0228  0.2075 -0.4317
   11MOL   C62510045   0.219   0.051   3.904  0.3123  0.5583 -0.6999
   11MOL   O62610046   0.248   0.118   4.004  0.1552 -0.3485  0.0979
   11MOL   C62710047   0.307   0.031   3.789 -0.2466 -0.0965  0.7194
   11MOL   C62810048   0.267   7.920   3.683  0.3073 -0.3740 -0.0828
   11MOL   C62910049   0.356   7.895   3.583 -0.3422  0.3340  0.0426
   11MOL   C63010050   0.486   7.954   3.583  0.2603  0.3176 -0.2954
   11MOL   C63110051   0.564   7.944   3.456  0.2691 -0.2449 -0.3696
   11MOL   O63210052   0.527   7.892   3.353  0.1554  0.4748  0.1627
   11MOL   O63310053   0.694   0.003   3.480  0.6617  0.7445  0.9935
   11MOL   C63410054   0.524   0.060   3.689 -0.5777 -0.1433 -0.4849
   11MOL   C63510055   0.435   0.085   3.794  0.9361  0.3266 -0.4699
   11MOL   H63610056   7.081   7.347   3.894  1.9991  0.4033 -0.9143
   11MOL   H63710057   7.049   7.496   3.983 -2.7758 -0.9412  0.1157
   11MOL   H63810058   7.288   7.398   3.891 -0.9658 -0.5250 -0.0885
   11MOL   H63910059   7.295   7.325   4.044  0.3912  1.5615  2.6156
   11MOL   H64010060   7.259   7.629   4.033 -1.3545 -0.2240  1.9287
   11MOL   H64110061   7.263   7.535   4.178  0.1266 -2.4022  0.1790
   11MOL   H64210062   7.491   7.446   4.110  1.2511  1.0717  2.8975
   11MOL   H64310063   7.471   7.615   4.144  1.3314  1.9390 -2.4961
   11MOL   H64410064   7.540   7.503   3.875 -1.1137  1.4333 -1.6549
   11MOL   H64510065   7.453   7.654   3.894 -0.2607 -2.0884 -2.2674
   11MOL   H64610066   7.625   7.767   4.019  1.1384 -0.1836  1.2630
   11MOL   H64710067   7.713   7.609   4.031  0.0528  1.4760  0.2632
   11MOL   H64810068   7.737   7.622   3.785 -3.2411  0.3793 -0.1818
   11MOL   H64910069   7.665   7.779   3.789 -0.4780 -1.9826 -2.5002
   11MOL   H65010070   7.902   7.683   3.968 -0.5816 -0.1190  0.4420
   11MOL   H65110071   7.938   7.755   3.817  1.0684 -0.9590  1.6210
   11MOL   H65210072   7.799   7.889   4.065  3.9369  2.1293  2.5331
   11MOL   H65310073   7.801   7.964   3.905 -1.4729 -0.0851  0.3856
   11MOL   H65410074   0.056   7.923   4.098  2.7221  0.2598 -0.3957
   11MOL   H65510075   7.959   0.083   4.024  0.8656  0.2443  1.8888
   11MOL   H65610076   0.175   7.863   3.691 -0.6532  1.3750  1.9883
   11MOL   H65710077   0.320   7.834   3.501 -0.4969 -0.9821  1.0674
   11MOL   H65810078   0.621   0.107   3.686 -1.3934  1.6221 -0.1226
   11MOL   H65910079   0.460   0.155   3.872 -1.1960  0.0919  0.4609
   11MOL   O66010080   0.771   7.955   3.353 -0.2063 -0.3769 -0.5386
   11MOL   C66110081   0.826   7.828   3.361 -0.3194 -0.2178  0.5446
   11MOL   C66210082   0.867   7.766   3.492  0.6101 -0.5074 -0.7303
   11MOL   C66310083   0.963   7.852   3.572  0.4173 -0.1535 -0.1724
   11MOL   C66410084   0.969   7.822   3.724  0.1428  0.0752  0.0792
   11MOL   C66510085   0.832   7.864   3.793 -0.8223 -0.1303 -0.4506
   11MOL   C66610086   0.840   7.902   3.942 -0.5639 -0.1322  0.1747
   11MOL   C66710087   0.712   7.957   4.007 -0.7926 -0.3876 -0.3587
   11MOL   C66810088   0.731   7.957   4.158 -0.0262  0.5292  0.1725
   11MOL   C66910089   0.609   0.056   4.229 -0.1107 -0.0096 -0.1235
   11MOL   C67010090   0.641   0.104   4.363 -0.0551  0.5023  0.5039
   11MOL   O67110091   0.735   0.210   4.359 -0.1482  0.1185  0.1604
   11MOL   C67210092   0.856   0.193   4.403  0.2945  0.6399  0.8241
   11MOL   O67310093   0.901   0.081   4.435 -0.0448 -0.1996  0.3854
   11MOL   C67410094   0.955   0.303   4.384  0.1875  0.0367 -0.0730
   11MOL   C67510095   0.923   0.436   4.357  0.7312 -0.7268  0.5065
   11MOL   C67610096   1.023   0.537   4.353 -0.2904  0.2792  0.7730
   11MOL   C67710097   1.160   0.506   4.358 -0.4027 -0.2260  0.0412
   11MOL   C67810098   1.269   0.605   4.342 -0.2347 -0.2834  0.2171
   11MOL   O67910099   1.389   0.585   4.356  0.5782  0.2319 -0.8964
   11MOL   O68010100   1.218   0.727   4.318 -0.3839  0.2679  0.2161
   11MOL   C68110101   1.194   0.368   4.370  0.3753 -0.4114  0.4858
   11MOL   C68210102   1.092   0.273   4.389 -0.1268 -0.0115 -0.2753
   11MOL   H68310103   0.752   7.758   3.322  1.3134 -1.0344 -1.1483
   11MOL   H68410104   0.907   7.815   3.289 -0.2526 -3.2176  1.1149
   11MOL   H68510105   0.915   7.675   3.454  0.4897 -0.2115 -1.6061
   11MOL   H68610106   0.784   7.735   3.554  1.6617 -1.7330  0.0910
   11MOL   H68710107   1.061   7.845   3.525  1.5264  0.8237  1.9042
   11MOL   H68810108   0.943   7.960   3.572  4.5588  0.7073  0.9599
   11MOL   H68910109   1.046   7.882   3.773 -0.7967  0.4800  1.0760
   11MOL   H69010110   0.996   7.719   3.746 -1.9424 -0.2587  1.2017
   11MOL   H69110111   0.811   7.960   3.746  0.5971 -0.3079 -1.4639
   11MOL   H69210112   0.750   7.791   3.788 -1.0640  0.0854  0.3111
   11MOL   H69310113   0.863   7.808   3.994  1.4919  1.4360  2.2429
   11MOL   H69410114   0.932   7.953   3.972 -0.8918 -0.9823  2.7763
   11MOL   H69510115   0.693   0.074   3.957 -0.5664  0.4231  1.0656
   11MOL   H69610116   0.621   7.897   3.999  0.7981 -2.5936 -2.5724
   11MOL   H69710117   0.739   7.853   4.189 -0.8544 -1.1823 -4.9424
   11MOL   H69810118   0.823   0.033   4.178  0.0235  0.8392 -0.8703
   11MOL   H69910119   0.519   7.973   4.221 -1.4712  1.6813  1.9157
   11MOL   H70010120   0.599   0.145   4.167  1.9056  0.0776 -0.3673
   11MOL   H70110121   0.677   0.025   4.429 -1.3224 -0.5791 -0.0719
   11MOL   H70210122   0.558   0.144   4.420  0.5110  2.2350  0.1514
   11MOL   H70310123   0.819   0.465   4.353  1.3431  1.4175 -0.7015
   11MOL   H70410124   0.988   0.640   4.347  2.0709  1.0254 -0.7355
   11MOL   H70510125   1.298   0.342   4.366 -0.5006 -4.0636 -1.3983
   11MOL   H70610126   1.125   0.173   4.414 -2.3205 -0.4582  0.9774
   11MOL   O70710127   1.302   0.845   4.333 -0.1925 -0.5934 -0.1957
   11MOL   C70810128   1.267   0.912   4.454  0.7154 -0.2535  0.0716
   11MOL   C70910129   1.358   1.028   4.473  0.4742 -1.0250  0.2445
   11MOL   C71010130   1.304   1.117   4.591  0.7019 -0.8262  0.4252
   11MOL   C71110131   1.269   1.047   4.719  0.4292  0.0976  0.1169
   11MOL   C71210132   1.229   1.147   4.829 -0.1286 -0.1112  0.9839
   11MOL   C71310133   1.223   1.084   4.972  0.5307  0.4058 -0.8999
   11MOL   C71410134   1.086   1.046   5.028  0.0843 -0.3100  0.3409
   11MOL   C71510135   1.092   0.963   5.160 -0.3153 -1.4034 -0.7841
   11MOL   C71610136   1.186   0.837   5.148  0.7475  0.8746  0.0355
   11MOL   C71710137   1.184   0.726   5.257 -0.5921 -0.5912  0.7324
   11MOL   O71810138   1.058   0.677   5.267 -0.4736 -0.0320  0.0712
   11MOL   C71910139   1.015   0.591   5.177 -0.1491  0.6182 -0.7054
   11MOL   O72010140   1.087   0.548   5.092 -0.7139  0.1716  0.2700
   11MOL   C72110141   0.867   0.562   5.189 -0.4520  0.1276  1.2630
   11MOL   C72210142   0.814   0.471   5.093 -0.2391 -0.2681  0.0241
   11MOL   C72310143   0.676   0.440   5.097 -0.8281 -0.3914  0.0078
   11MOL   C72410144   0.590   0.516   5.177 -0.5994 -0.6753  0.0757
   11MOL   C72510145   0.448   0.478   5.171  0.6315  0.3415  0.5943
   11MOL   O72610146   0.400   0.370   5.122 -0.4224 -0.6027  0.1505
   11MOL   O72710147   0.370   0.560   5.242 -0.4333  0.4518 -0.5162
   11MOL   C72810148   0.644   0.608   5.274 -0.2693 -0.0052  0.0799
   11MOL   C72910149   0.784   0.626   5.279 -0.6974 -0.3732  0.2575
   11MOL   H73010150   1.164   0.945   4.447  0.0466 -2.4888 -0.7809
   11MOL   H73110151   1.275   0.841   4.536 -0.9452  1.0102  1.3395
   11MOL   H73210152   1.363   1.088   4.382 -0.4746  0.1711  0.9807
   11MOL   H73310153   1.458   0.995   4.504  0.7226  0.2474  0.8169
   11MOL   H73410154   1.374   1.193   4.626  1.0635 -0.5502 -0.8800
   11MOL   H73510155   1.218   1.177   4.562  0.9518  0.5122  2.3332
   11MOL   H73610156   1.346   0.978   4.755  0.1022  0.5042  1.6541
   11MOL   H73710157   1.181   0.987   4.695  0.8815 -0.0982 -1.0635
   11MOL   H73810158   1.314   1.214   4.830 -1.2169  1.2742  2.2717
   11MOL   H73910159   1.140   1.202   4.801  1.5765  1.6697 -1.0593
   11MOL   H74010160   1.301   1.008   4.981 -0.4160 -0.2191  2.7318
   11MOL   H74110161   1.257   1.158   5.045 -0.3627  0.7586 -0.8379
   11MOL   H74210162   1.019   1.131   5.037  0.1991  0.0181 -1.6843
   11MOL   H74310163   1.037   0.975   4.961  0.0178  0.0243  0.0344
   11MOL   H74410164   1.127   1.031   5.238  0.9829  0.0105 -2.5300
   11MOL   H74510165   0.988   0.940   5.183 -1.7099  2.4313 -2.7471
   11MOL   H74610166   1.288   0.874   5.147  1.1014 -0.0906  0.5568
   11MOL   H74710167   1.170   0.792   5.049 -0.5520 -0.3628  0.7912
   11MOL   H74810168   1.212   0.772   5.352  3.2030 -1.0267 -0.0770
   11MOL   H74910169   1.274   0.665   5.252 -0.3267 -0.1022 -0.6907
   11MOL   H75010170   0.881   0.412   5.033  2.2185  1.1867  1.2872
   11MOL   H75110171   0.641   0.352   5.046  0.8201 -1.9194  1.4440
   11MOL   H75210172   0.574   0.667   5.332  0.3819  1.2931 -0.4192
   11MOL   H75310173   0.830   0.702   5.340 -0.4153  1.2402 -1.9055
   11MOL   O75410174   0.226   0.545   5.219  0.1299 -0.0348  0.3782
   11MOL   C75510175   0.171   0.509   5.340  0.1886 -0.3338  0.6783
   11MOL   C75610176   0.023   0.463   5.314  0.6499 -0.2440  0.2954
   11MOL   C75710177   7.900   0.570   5.276  0.4331  0.1567  0.6155
   11MOL   C75810178   7.757   0.547   5.321 -0.6207  0.2097 -0.0590
   11MOL   C75910179   7.725   0.565   5.473  1.1124  0.4992  0.1132
   11MOL   C76010180   7.581   0.612   5.512  0.2355  0.1037 -0.6324
   11MOL   C76110181   7.563   0.606   5.668  0.4387  0.0933 -0.4950
   11MOL   C76210182   7.427   0.662   5.707 -0.4247 -0.2907  1.1649
   11MOL   C76310183   7.309   0.576   5.667  0.4583  0.0080 -0.5088
   11MOL   C76410184   7.288   0.445   5.746  0.2936 -0.4664  1.2070
   11MOL   O76510185   7.168   0.375   5.702  0.1342 -0.0647  0.1974
   11MOL   C76610186   7.050   0.398   5.755 -0.3352  0.0840 -0.3768
   11MOL   O76710187   7.040   0.494   5.830  0.2476  0.0516  0.6672
   11MOL   C76810188   6.940   0.305   5.712  0.4091  0.4779  0.0658
   11MOL   C76910189   6.826   0.288   5.796  0.1779  0.1005 -0.4113
   11MOL   C77010190   6.723   0.200   5.759  0.3036 -0.0783  0.5697
   11MOL   C77110191   6.732   0.140   5.633  0.4636  0.5577 -0.0808
   11MOL   C77210192   6.613   0.051   5.592  0.2618 -0.2894  0.0639
   11MOL   O77310193   6.630   7.932   5.511 -0.5724 -0.1175 -0.3901
   11MOL   O77410194   6.501   0.099   5.638 -0.4380  0.2092 -0.2344
   11MOL   C77510195   6.847   0.149   5.556  0.0390 -0.2224 -0.4375
   11MOL   C77610196   6.954   0.230   5.595 -0.0446  0.7092  0.2635
   11MOL   H77710197   0.230   0.424   5.375 -1.0943 -1.0839  1.0674
   11MOL   H77810198   0.180   0.594   5.408  0.6543  1.0990 -1.1281
   11MOL   H77910199   7.959   0.417   5.403  0.4069  0.4841  0.5616
   11MOL   H78010200   0.014   0.381   5.243  2.2302 -1.0764  1.0286
   11MOL   H78110201   7.935   0.668   5.308 -1.5333  0.5663  1.5823
   11MOL   H78210202   7.902   0.582   5.167  0.8607 -0.6712  0.5290
   11MOL   H78310203   7.725   0.446   5.297  0.8968 -0.8492  2.2844
   11MOL   H78410204   7.690   0.617   5.270 -1.4645 -0.2013  0.4884
   11MOL   H78510205   7.748   0.469   5.519  0.5784 -0.1459 -0.9424
   11MOL   H78610206   7.789   0.641   5.519  3.4621 -0.6248 -1.2027
   11MOL   H78710207   7.568   0.712   5.472 -1.5902  0.3311  0.4744
   11MOL   H78810208   7.507   0.546   5.466  0.0749  2.0261 -3.1979
   11MOL   H78910209   7.584   0.507   5.710  1.1942  0.2656 -0.4459
   11MOL   H79010210   7.631   0.681   5.709 -0.0060  1.0913 -1.5618
   11MOL   H79110211   7.418   0.671   5.815 -0.5837 -1.3694  1.2463
   11MOL   H79210212   7.421   0.760   5.660  0.6959 -0.1729  1.2477
   11MOL   H79310213   7.314   0.553   5.560 -0.5177 -2.6621  0.0030
   11MOL   H79410214   7.221   0.636   5.689  0.2810 -0.8561  1.1648
   11MOL   H79510215   7.292   0.452   5.855 -1.2761 -0.6614  1.2904
   11MOL   H79610216   7.363   0.372   5.712  1.3301  1.1916 -0.1402
   11MOL   H79710217   6.814   0.337   5.892 -0.9238 -0.7598 -0.1039
   11MOL   H79810218   6.636   0.183   5.821  1.8405  0.2916  2.8884
   11MOL   H79910219   6.853   0.086   5.469  0.2816  0.5149 -0.9600
   11MOL   H80010220   7.047   0.233   5.540  0.0035  0.6682  0.3405
   11MOL   O80110221   6.381   0.007   5.617  0.9477 -0.2526 -0.1721
   11MOL   C80210222   6.308   0.044   5.498 -0.3790  0.4378  0.4408
   11MOL   C80310223   6.191   7.931   5.469  1.0122  0.2601  0.0016
   11MOL   C80410224   6.217   7.791   5.417  0.1167 -0.6664 -0.0972
   11MOL   C80510225   6.096   7.697   5.402  0.3866  0.1326 -0.3891
   11MOL   C80610226   6.004   7.753   5.292 -0.5282 -0.2787  0.4493
   11MOL   C80710227   5.893   7.644   5.262  0.8928  0.1294  0.3105
   11MOL   C80810228   5.822   7.668   5.122 -0.0674 -0.4216 -0.4064
   11MOL   C80910229   5.683   7.603   5.120  0.3854 -0.4539  0.3658
   11MOL   C81010230   5.637   7.580   4.970  0.1541  0.1395 -0.0409
   11MOL   C81110231   5.481   7.556   4.943 -0.3559 -0.4979  0.0572
   11MOL   O81210232   5.417   7.684   4.980 -0.0946 -0.1185 -0.5171
   11MOL   C81310233   5.351   7.689   5.103  0.0339 -0.2767 -0.0378
   11MOL   O81410234   5.353   7.592   5.188 -0.3365 -0.0598  0.5025
   11MOL   C81510235   5.304   7.821   5.147 -0.1852  0.5471  0.0046
   11MOL   C81610236   5.317   7.928   5.049  0.3333 -0.0044 -0.3123
   11MOL   C81710237   5.264   0.079   5.074 -0.2794 -0.1325 -0.1351
   11MOL   C81810238   5.185   0.097   5.196  0.0552  0.0114 -0.3421
   11MOL   C81910239   5.126   0.228   5.230  0.4940  0.2210  0.0428
   11MOL   O82010240   5.039   0.241   5.322 -0.5805  0.0194 -0.7534
   11MOL   O82110241   5.164   0.332   5.148  0.1711 -0.6168  0.0814
   11MOL   C82210242   5.183   7.970   5.295 -0.2327 -0.1522  0.8008
   11MOL   C82310243   5.246   7.849   5.270 -0.0075 -0.0223 -0.6398
   11MOL   H82410244   6.271   0.144   5.517  0.6508  1.1839 -1.3288
   11MOL   H82510245   6.374   0.039   5.411  1.5514 -1.3942  1.9707
   11MOL   H82610246   6.133   7.975   5.388 -0.4903 -4.4521 -1.6357
   11MOL   H82710247   6.126   7.938   5.556  1.6478  3.3668  0.2715
   11MOL   H82810248   6.273   7.800   5.324  0.1575  0.6613  0.0546
   11MOL   H82910249   6.281   7.742   5.490 -0.0484  1.5159  1.5624
   11MOL   H83010250   6.035   7.694   5.492 -0.1536  0.7753 -0.7395
   11MOL   H83110251   6.141   7.599   5.383  0.8939  0.6115 -1.7304
   11MOL   H83210252   5.945   7.837   5.328 -2.3045 -1.5909  0.6546
   11MOL   H83310253   6.054   7.774   5.197  1.5499 -0.5533  1.4467
   11MOL   H83410254   5.932   7.543   5.257 -0.4634 -0.6716  4.0790
   11MOL   H83510255   5.819   7.629   5.340 -1.5942 -2.4088 -2.4232
   11MOL   H83610256   5.824   7.771   5.089  0.0647 -0.6327 -1.0520
   11MOL   H83710257   5.885   7.620   5.047  0.1126  1.1390 -1.2621
   11MOL   H83810258   5.679   7.507   5.171  0.3748  0.2188  1.6438
   11MOL   H83910259   5.620   7.678   5.168  1.8095  1.3196 -0.4341
   11MOL   H84010260   5.685   7.490   4.932  0.4143  0.1163  0.3408
   11MOL   H84110261   5.675   7.657   4.903 -0.0133  0.5230  0.2958
   11MOL   H84210262   5.449   7.479   5.012  0.9970 -1.8014 -0.7512
   11MOL   H84310263   5.465   7.531   4.838 -3.5716  1.6206 -0.0240
   11MOL   H84410264   5.380   7.922   4.962  1.6801 -1.6808  0.7442
   11MOL   H84510265   5.285   0.164   5.012  0.7651 -1.4209 -1.5950
   11MOL   H84610266   5.128   0.010   5.386  0.1530  1.4012  0.7343
   11MOL   H84710267   5.247   7.772   5.345 -3.0590  1.4048  0.9573
   11MOL   O84810268   5.091   0.456   5.168  0.0356  0.9027 -1.1446
   11MOL   C84910269   5.175   0.543   5.248  0.1707  0.6261 -0.3262
   11MOL   C85010270   5.098   0.679   5.256  0.3204  0.7259  0.1857
   11MOL   C85110271   5.010   0.669   5.382  0.2094  0.7967  0.2628
   11MOL   C85210272   4.893   0.767   5.370 -0.0487  0.7141  0.1851
   11MOL   C85310273   4.798   0.744   5.490 -0.8079 -0.0843 -0.2753
   11MOL   C85410274   4.678   0.840   5.496 -0.3691  0.1777 -0.0710
   11MOL   C85510275   4.547   0.778   5.548 -0.0249  0.0678  0.0773
   11MOL   C85610276   4.456   0.733   5.435 -0.0972  0.8351  0.0435
   11MOL   C85710277   4.327   0.663   5.483 -0.2026  0.2699 -0.0180
   11MOL   C85810278   4.219   0.635   5.378  0.1482  0.1750  0.3676
   11MOL   O85910279   4.132   0.541   5.440 -0.6199  0.0380  0.5250
   11MOL   C86010280   4.016   0.581   5.504  0.4304 -0.0522  1.1162
   11MOL   O86110281   3.979   0.696   5.525 -0.0846 -0.3471  0.0298
   11MOL   C86210282   3.935   0.462   5.551 -0.0064 -0.5430 -0.1867
   11MOL   C86310283   3.803   0.488   5.602 -0.0488  0.1238 -0.1876
   11MOL   C86410284   3.731   0.380   5.656 -0.2584  0.1215 -0.0071
   11MOL   C86510285   3.783   0.248   5.661  0.6417 -0.0223  0.9885
   11MOL   C86610286   3.709   0.137   5.731  0.4440 -0.0902  0.0570
   11MOL   O86710287   3.609   0.152   5.807  0.6794 -0.1460 -0.0000
   11MOL   O86810288   3.768   0.017   5.712  0.2683 -0.0080 -0.7593
   11MOL   C86910289   3.910   0.230   5.611  0.0864  0.4340 -0.8122
   11MOL   C87010290   3.990   0.335   5.558 -0.1252 -0.2841  0.7258
   11MOL   H87110291   5.197   0.493   5.342 -0.1834 -2.0763 -1.6416
   11MOL   H87210292   5.275   0.549   5.207  0.6117 -1.2307  0.4353
   11MOL   H87310293   5.051   0.704   5.161 -1.4646 -0.8995  0.6195
   11MOL   H87410294   5.169   0.760   5.273  1.8087 -0.3447 -0.6979
   11MOL   H87510295   4.968   0.572   5.407  1.6414  0.3976  1.1654
   11MOL   H87610296   5.068   0.685   5.472  1.1812 -2.8661  0.3829
   11MOL   H87710297   4.840   0.746   5.277 -3.5459  0.1265  2.2199
   11MOL   H87810298   4.934   0.867   5.360  0.1636  0.4839 -1.3711
   11MOL   H87910299   4.772   0.639   5.504 -0.8280  0.0700  0.9088
   11MOL   H88010300   4.864   0.761   5.576 -2.3026 -2.4146  1.4148
   11MOL   H88110301   4.708   0.929   5.551 -0.9720  0.6365 -0.4774
   11MOL   H88210302   4.659   0.885   5.398 -1.8358 -0.7868 -0.2495
   11MOL   H88310303   4.571   0.698   5.618  1.3767  2.0949  1.9838
   11MOL   H88410304   4.495   0.845   5.616  0.4925  0.2789  0.2645
   11MOL   H88510305   4.432   0.817   5.370  0.6325 -1.2067 -2.9757
   11MOL   H88610306   4.497   0.656   5.370 -1.1770  0.1818  0.1304
   11MOL   H88710307   4.279   0.730   5.555 -0.8273  1.4445 -1.5189
   11MOL   H88810308   4.349   0.577   5.547  0.6008 -1.2443 -2.2988
   11MOL   H88910309   4.262   0.574   5.298  0.6517  0.6993  0.2357
   11MOL   H89010310   4.176   0.727   5.340 -0.7536 -0.0376  0.8569
   11MOL   H89110311   3.768   0.590   5.601 -0.4540 -0.0179 -0.9063
   11MOL   H89210312   3.631   0.384   5.696 -0.9552  0.4213 -1.7291
   11MOL   H89310313   3.953   0.131   5.616 -1.4431 -0.1658  0.7523
   11MOL   H89410314   4.085   0.303   5.518 -1.0387 -0.2485 -1.5059
   11MOL   O89510315   3.692   7.892   5.793 -0.0979  0.0116 -0.0259
   11MOL   C89610316   3.606   7.822   5.711  0.0276 -0.2886  0.1981
   11MOL   C89710317   3.532   7.737   5.808  0.5287  0.5807  0.7973
   11MOL   C89810318   3.422   7.643   5.756 -0.4450  0.1054  0.2389
   11MOL   C89910319   3.364   7.571   5.883  0.4331 -0.8852 -0.2398
   11MOL   C90010320   3.261   7.459   5.855 -0.5135 -0.3512 -0.6819
   11MOL   C90110321   3.329   7.324   5.829 -0.4338 -0.1762 -0.1246
   11MOL   C90210322   3.379   7.258   5.961  0.2722 -0.1236 -0.5000
   11MOL   C90310323   3.451   7.119   5.937 -0.3189 -0.0012  0.5553
   11MOL   C90410324   3.546   7.099   6.054 -0.9980  0.1884 -0.0625
   11MOL   C90510325   3.629   6.968   6.053 -0.4592 -0.1229  0.0813
   11MOL   O90610326   3.732   6.966   5.950 -0.0242 -0.1904 -0.1723
   11MOL   C90710327   3.782   6.845   5.917  0.2507  0.4797  0.3712
   11MOL   O90810328   3.754   6.740   5.976  0.2060  0.2792  0.4389
   11MOL   C90910329   3.896   6.844   5.813  0.4836  0.4143  0.3175
   11MOL   C91010330   3.985   6.948   5.804 -0.3453 -0.5354  0.0187
   11MOL   C91110331   4.095   6.950   5.709  0.7239 -0.6858  0.1406
   11MOL   C91210332   4.116   6.841   5.623  1.6123  0.6190 -0.4357
   11MOL   C91310333   4.224   6.841   5.524 -0.2622  0.2458 -0.1808
   11MOL   O91410334   4.255   6.747   5.455  0.6566  0.3056  0.2774
   11MOL   O91510335   4.289   6.961   5.516 -0.2397 -0.3018 -0.0071
   11MOL   C91610336   4.025   6.726   5.640 -0.0418 -0.5158  0.2186
   11MOL   C91710337   3.916   6.728   5.734  0.0846  0.0916  0.7968
   11MOL   H91810338   3.547   7.901   5.665  1.4688  1.5367  1.4254
   11MOL   H91910339   3.657   7.773   5.628 -0.4352  1.7919 -1.3538
   11MOL   H92010340   3.499   7.802   5.889 -0.3406 -0.2416  1.1149
   11MOL   H92110341   3.598   7.671   5.865  0.6231 -0.0125  0.0087
   11MOL   H92210342   3.347   7.704   5.705  1.6670  3.7060  1.2419
   11MOL   H92310343   3.467   7.571   5.688 -0.8445 -0.9173  1.0439
   11MOL   H92410344   3.318   7.645   5.949  3.0813  0.2119  0.4101
   11MOL   H92510345   3.450   7.531   5.935  1.4774  0.9036 -0.5508
   11MOL   H92610346   3.190   7.454   5.938  0.8215  0.4309  0.5439
   11MOL   H92710347   3.200   7.500   5.775  0.7862  2.5743 -0.2534
   11MOL   H92810348   3.259   7.257   5.777 -1.6405  1.6645 -0.9095
   11MOL   H92910349   3.408   7.345   5.757 -0.8110  2.1494  0.1084
   11MOL   H93010350   3.446   7.326   6.013  0.0299 -1.4239  1.5729
   11MOL   H93110351   3.304   7.257   6.040  0.2167  1.5060 -0.5003
   11MOL   H93210352   3.373   7.043   5.942  0.2987 -0.5530  2.4718
   11MOL   H93310353   3.519   7.121   5.852  0.8202  0.4287  1.4614
   11MOL   H93410354   3.479   7.080   6.137 -1.0626  0.0704 -0.1398
   11MOL   H93510355   3.608   7.185   6.080  0.5896 -1.2123  0.8482
   11MOL   H93610356   3.551   6.894   6.037 -2.3551  1.8488  0.0290
   11MOL   H93710357   3.676   6.952   6.150  0.8645  0.4405 -0.4530
   11MOL   H93810358   3.968   7.030   5.873 -0.8361 -1.3793  0.9136
   11MOL   H93910359   4.160   7.037   5.712  1.6687 -1.3273 -1.0243
   11MOL   H94010360   4.061   6.634   5.595  1.3274  1.0652 -2.0014
   11MOL   H94110361   3.870   6.633   5.758  0.0985 -0.2447 -0.4636
   11MOL   H94210362   4.355   6.964   5.448 -1.7111 -0.6859 -1.4983
   12MOL     O110363   6.597   7.162   1.424  0.2998 -0.0148 -0.6251
   12MOL     C210364   6.589   7.111   1.291  0.2625  1.0031  0.1652
   12MOL     C310365   6.705   7.129   1.191 -0.1101  0.2242 -0.0641
   12MOL     C410366   6.836   7.083   1.256  0.3773 -0.3599 -0.2399
   12MOL     C510367   6.943   7.124   1.159  0.2559  0.1684 -0.7053
   12MOL     C610368   7.076   7.059   1.201 -0.1687  0.5641  0.0534
   12MOL     C710369   7.142   7.134   1.319 -0.4030  0.4424 -0.2369
   12MOL     C810370   7.264   7.050   1.379 -0.1774  0.3700  0.8738
   12MOL     C910371   7.347   7.132   1.478  0.9137  0.1876 -0.7963
   12MOL    C1010372   7.409   7.045   1.587  0.7849 -0.3433 -0.3772
   12MOL    C1110373   7.485   7.107   1.710  0.0925  0.5211  0.1302
   12MOL    O1210374   7.593   7.188   1.669 -0.8119 -0.2158  0.2814
   12MOL    C1310375   7.716   7.123   1.652  0.1622 -0.5021 -0.0343
   12MOL    O1410376   7.737   7.003   1.674  0.1096  0.0935  0.1143
   12MOL    C1510377   7.823   7.215   1.601 -0.0753  0.0389  0.3631
   12MOL    C1610378   7.955   7.167   1.602  0.2287  0.6633  0.2519
   12MOL    C1710379   0.083   7.249   1.559 -0.8326  0.4171  0.3782
   12MOL    C1810380   0.052   7.374   1.497  0.3387  0.0818 -0.0595
   12MOL    C1910381   0.157   7.457   1.428 -0.1526  0.8331  0.3489
   12MOL    O2010382   0.260   7.406   1.377 -0.3679 -0.3775 -0.0342
   12MOL    O2110383   0.129   7.583   1.420  0.9067  0.3945  0.3777
   12MOL    C2210384   7.897   7.421   1.503 -0.0687 -0.6679 -0.5519
   12MOL    C2310385   7.800   7.346   1.560  0.1455  0.1572 -0.0791
   12MOL    H2410386   6.577   7.004   1.309 -1.5291  1.5363  2.3765
   12MOL    H2510387   6.497   7.145   1.244 -1.6232 -0.2515  2.8040
   12MOL    H2610388   6.710   7.237   1.175 -1.1543  0.5685  1.7850
   12MOL    H2710389   6.675   7.089   1.094  0.3454  1.1320 -0.5925
   12MOL    H2810390   6.846   7.126   1.355  0.0034 -0.1327 -0.2990
   12MOL    H2910391   6.831   6.975   1.269 -0.8693 -0.1310  1.3067
   12MOL    H3010392   6.957   7.230   1.138  1.5563 -0.0439 -0.9107
   12MOL    H3110393   6.918   7.075   1.066  0.1163  1.4846 -1.3764
   12MOL    H3210394   7.076   6.956   1.235  0.8011  0.5629  0.0740
   12MOL    H3310395   7.138   7.057   1.111 -2.0470  1.3006 -1.2751
   12MOL    H3410396   7.185   7.230   1.289  1.9933 -0.8385 -1.0873
   12MOL    H3510397   7.077   7.150   1.404 -1.1839  1.1812 -0.9656
   12MOL    H3610398   7.219   6.960   1.420 -2.8640  0.1489 -2.3386
   12MOL    H3710399   7.326   7.030   1.291 -1.6362 -0.1297 -0.0680
   12MOL    H3810400   7.419   7.194   1.425  1.5397 -0.7303 -1.0297
   12MOL    H3910401   7.286   7.210   1.524  1.9981  0.2901  0.4984
   12MOL    H4010402   7.487   6.981   1.544  0.6962 -1.3141  0.8765
   12MOL    H4110403   7.340   6.980   1.640  0.6043  0.5501  0.4830
   12MOL    H4210404   7.520   7.031   1.779  1.3740 -0.1346 -1.2179
   12MOL    H4310405   7.412   7.166   1.766  1.2329  1.0352  1.0958
   12MOL    H4410406   7.963   7.066   1.639  1.8390  0.5893 -0.2501
   12MOL    H4510407   0.174   7.191   1.544  0.2044  1.0553  3.8775
   12MOL    H4610408   7.855   7.513   1.463 -0.5559 -0.7207 -0.1716
   12MOL    H4710409   7.697   7.381   1.559  0.0240 -0.1990 -0.4089
   12MOL    H4810410   6.647   7.107   1.480  0.2105 -0.6090 -1.1197
   12MOL    O4910411   0.203   7.662   1.316  0.0334  0.6356 -0.5400
   12MOL    C5010412   0.130   7.645   1.194  0.6499 -0.6697 -0.7577
   12MOL    C5110413   0.181   7.749   1.091 -0.2667  0.1429  0.1238
   12MOL    C5210414   0.101   7.736   0.961  0.1271 -0.1022 -0.7299
   12MOL    C5310415   0.117   7.851   0.871  0.3519 -0.9433 -0.0596
   12MOL    C5410416   0.050   7.846   0.730 -0.1760 -0.1071 -0.3931
   12MOL    C5510417   0.104   7.732   0.643  0.2032 -0.2577  1.1057
   12MOL    C5610418   0.021   7.730   0.516  0.5469  0.1079  0.0197
   12MOL    C5710419   0.080   7.619   0.421 -0.1692 -0.2476 -0.2190
   12MOL    C5810420   7.957   7.563   0.324  0.3214  0.1826  0.3652
   12MOL    C5910421   0.016   7.423   0.267  0.1248  0.1098 -0.5020
   12MOL    O6010422   7.883   7.360   0.212  0.2236 -0.1006  0.2982
   12MOL    C6110423   7.884   7.285   0.103 -0.0236  0.6534  0.5960
   12MOL    O6210424   0.004   7.224   0.068  0.0983 -0.3136  0.5066
   12MOL    C6310425   7.753   7.262   0.046  0.2229  0.3192  0.2279
   12MOL    C6410426   7.647   7.352   0.073 -0.6572 -0.4401 -0.5200
   12MOL    C6510427   7.515   7.330   0.028 -0.0213 -0.2902  0.6113
   12MOL    C6610428   7.488   7.213   7.925 -0.2162  0.8711 -0.7777
   12MOL    C6710429   7.346   7.179   7.885 -0.5471  0.8532 -0.0448
   12MOL    O6810430   7.335   7.126   7.777  0.6031 -0.3825  0.1371
   12MOL    O6910431   7.244   7.232   7.958  0.4875  0.6749 -0.4320
   12MOL    C7010432   7.595   7.125   7.893  0.0427 -0.0448  0.3439
   12MOL    C7110433   7.727   7.149   7.940 -0.4820 -0.5101  0.0368
   12MOL    H7210434   0.137   7.542   1.160  1.9472 -0.6112 -0.6923
   12MOL    H7310435   0.022   7.657   1.203  0.6655 -0.1631 -1.1969
   12MOL    H7410436   0.285   7.730   1.063  0.6092 -0.2077  3.4557
   12MOL    H7510437   0.186   7.848   1.135 -0.0210 -0.0023  0.4198
   12MOL    H7610438   0.125   7.648   0.901  1.3682  0.4096 -1.0002
   12MOL    H7710439   7.971   7.732   0.979 -0.0155  2.1280 -0.9206
   12MOL    H7810440   0.224   7.862   0.853  0.4368  1.5369  1.5661
   12MOL    H7910441   0.081   7.932   0.934 -2.3421 -0.3181 -2.3276
   12MOL    H8010442   7.920   7.844   0.745  0.0597  0.9752  1.7613
   12MOL    H8110443   0.079   7.943   0.688  0.5865  0.4018  1.2295
   12MOL    H8210444   0.211   7.749   0.629  0.0284 -1.1929 -1.8084
   12MOL    H8310445   0.097   7.630   0.681  0.6553 -0.9787 -0.6929
   12MOL    H8410446   7.895   7.705   0.538 -0.1025 -0.3591 -3.2391
   12MOL    H8510447   0.023   7.829   0.470 -2.0053 -0.5186 -1.5793
   12MOL    H8610448   0.168   7.657   0.370  0.7127  0.4252  1.7806
   12MOL    H8710449   0.118   7.535   0.479 -0.3198 -0.9508 -1.1195
   12MOL    H8810450   7.945   7.637   0.245 -2.0934 -0.8985 -0.3127
   12MOL    H8910451   7.864   7.564   0.381 -0.3000 -0.9869 -0.6028
   12MOL    H9010452   0.051   7.353   0.342 -2.0144 -0.7673 -0.2965
   12MOL    H9110453   0.097   7.419   0.194  0.0685 -1.2319 -0.5087
   12MOL    H9210454   7.659   7.437   0.139  0.4785 -0.5962 -0.5208
   12MOL    H9310455   7.434   7.398   0.052 -0.8465 -0.7484 -0.7748
   12MOL    H9410456   7.585   7.034   7.836  1.6656  0.3248 -0.5696
   12MOL    H9510457   7.803   7.079   7.907 -0.0933  1.4669 -3.5030
   12MOL    O9610458   7.103   7.219   7.896  0.7413  0.1437 -0.1191
   12MOL    C9710459   7.028   7.121   7.964 -0.4531  1.0513 -0.2424
   12MOL    C9810460   6.890   7.179   0.014 -0.1047  0.1133  0.1477
   12MOL    C9910461   6.881   7.269   0.138 -0.1114  0.4722 -0.1182
   12MOL   C10010462   6.976   7.386   0.146 -0.1061  0.2501 -0.1042
   12MOL   C10110463   6.938   7.477   0.265 -0.2173  0.6440 -0.9032
   12MOL   C10210464   7.029   7.596   0.294  0.9957  0.1931  0.1714
   12MOL   C10310465   6.988   7.664   0.429  0.3901 -0.2569 -0.3996
   12MOL   C10410466   7.090   7.654   0.547  0.3330 -0.0807 -0.9375
   12MOL   C10510467   7.230   7.729   0.541  0.2945 -0.7719  0.3906
   12MOL   C10610468   7.348   7.642   0.494 -0.5834 -0.2305  0.0821
   12MOL   O10710469   7.459   7.730   0.476  0.0016  0.0826  0.2461
   12MOL   C10810470   7.551   7.719   0.380 -0.1074  0.4472 -0.2712
   12MOL   O10910471   7.547   7.626   0.297  0.5846  0.2952 -0.3254
   12MOL   C11010472   7.658   7.825   0.376  0.2529 -0.9997 -0.3710
   12MOL   C11110473   7.738   7.837   0.262  0.6818  0.0711  0.4987
   12MOL   C11210474   7.831   7.946   0.241  0.5556  0.1508  0.5805
   12MOL   C11310475   7.844   0.065   0.340 -0.4309 -0.4349 -0.9484
   12MOL   C11410476   7.944   0.168   0.317 -0.0193  0.7800 -0.1940
   12MOL   O11510477   0.023   0.178   0.214  0.2779 -0.2947  0.2276
   12MOL   O11610478   7.966   0.244   0.426 -0.4520  0.1895  0.0257
   12MOL   C11710479   7.765   0.053   0.455 -0.1250 -0.3116 -0.1383
   12MOL   C11810480   7.670   7.927   0.473 -0.1022 -0.9019  0.3838
   12MOL   H11910481   7.021   7.020   7.924  0.4771  1.0635 -0.4586
   12MOL   H12010482   7.073   7.103   0.084 -0.5531  0.1515 -0.3600
   12MOL   H12110483   6.807   7.108   0.019  0.8238 -0.9266  1.0556
   12MOL   H12210484   6.872   7.232   7.898  1.8975 -0.1350 -0.4047
   12MOL   H12310485   6.783   7.317   0.136 -0.2705  0.1934  0.6292
   12MOL   H12410486   6.873   7.204   0.226 -0.9481  2.0238  0.9877
   12MOL   H12510487   6.990   7.439   0.051 -0.4907 -1.5584 -1.1822
   12MOL   H12610488   7.075   7.344   0.164  0.2249 -0.5447 -3.4788
   12MOL   H12710489   6.845   7.528   0.240 -1.4971 -0.7390  0.8961
   12MOL   H12810490   6.935   7.420   0.358  1.3521  0.6953 -0.8097
   12MOL   H12910491   7.135   7.571   0.293  0.5117 -1.9861  0.4426
   12MOL   H13010492   7.007   7.657   0.206  0.9427  1.3219  0.9665
   12MOL   H13110493   6.944   7.761   0.409 -1.4712 -0.8261  0.9082
   12MOL   H13210494   6.902   7.610   0.466  0.6687  0.6307  1.5945
   12MOL   H13310495   7.036   7.672   0.640 -1.0833 -3.4738 -1.0111
   12MOL   H13410496   7.114   7.549   0.568  1.7965  0.4844  0.3052
   12MOL   H13510497   7.264   7.768   0.637  1.1041 -0.7454  0.0961
   12MOL   H13610498   7.227   7.808   0.467  1.6110  1.2062  2.3886
   12MOL   H13710499   7.320   7.574   0.414 -0.7338 -1.1195  0.8735
   12MOL   H13810500   7.375   7.575   0.577 -0.6402  1.3259  1.3811
   12MOL   H13910501   7.743   7.757   0.190  0.6169  1.7186 -1.3844
   12MOL   H14010502   7.879   7.945   0.145 -0.1669  0.6390  0.2090
   12MOL   H14110503   7.775   0.137   0.522 -1.3919 -1.7575  1.9093
   12MOL   H14210504   7.599   7.932   0.554 -0.9643 -2.0352 -0.2961
   12MOL   O14310505   0.101   0.346   0.411 -0.8893  0.2546  0.2676
   12MOL   C14410506   0.041   0.474   0.391 -0.2870  0.2040  0.2746
   12MOL   C14510507   0.150   0.578   0.349 -0.0689  0.3783 -0.2170
   12MOL   C14610508   0.229   0.540   0.221 -0.0348 -0.2534  0.0874
   12MOL   C14710509   0.167   0.582   0.084 -0.7749 -0.0124  0.5659
   12MOL   C14810510   0.152   0.455   7.971 -0.1199  0.2810  0.0939
   12MOL   C14910511   0.016   0.387   7.965  0.3022 -0.2655  0.1668
   12MOL   C15010512   0.013   0.255   7.881  0.0896  0.3560  0.0386
   12MOL   C15110513   7.848   0.189   7.857  0.4001 -0.3550  0.3491
   12MOL   C15210514   7.852   0.104   7.738  0.1401  0.3770  0.4473
   12MOL   C15310515   7.723   0.034   7.702  0.1100  0.0084 -0.7618
   12MOL   O15410516   7.731   0.001   7.566 -0.6593  0.0603  0.0299
   12MOL   C15510517   7.618   7.933   7.498  0.0512 -0.0109 -0.1709
   12MOL   O15610518   7.507   7.912   7.552  0.0181 -0.1475  0.0927
   12MOL   C15710519   7.645   7.896   7.357 -0.6660 -0.1438  0.4276
   12MOL   C15810520   7.534   7.841   7.281 -0.2890  0.8999 -0.7102
   12MOL   C15910521   7.558   7.801   7.150 -0.4232  0.4272 -0.1374
   12MOL   C16010522   7.676   7.827   7.084 -0.4454 -0.1953 -1.3108
   12MOL   C16110523   7.698   7.796   6.938 -0.0232  0.5331 -0.2041
   12MOL   O16210524   7.597   7.762   6.874  0.3203  0.7018  0.2861
   12MOL   O16310525   7.818   7.815   6.878  0.0301  0.5630 -0.2895
   12MOL   C16410526   7.783   7.890   7.158  1.0464  0.5837 -0.2389
   12MOL   C16510527   7.771   7.919   7.295  0.5479 -0.3120  0.1891
   12MOL   H16610528   7.945   0.474   0.310 -0.8505 -0.6215  0.7830
   12MOL   H16710529   7.955   0.510   0.471 -2.4960 -1.0193 -0.8696
   12MOL   H16810530   0.219   0.582   0.433  2.1839  2.5964 -2.0838
   12MOL   H16910531   0.110   0.678   0.333  0.0640  0.7622  1.7168
   12MOL   H17010532   0.321   0.593   0.245 -0.8426  1.0549  0.3226
   12MOL   H17110533   0.273   0.440   0.226  0.6641 -0.0694 -1.8521
   12MOL   H17210534   0.229   0.657   0.036 -0.4592 -0.6853 -0.0982
   12MOL   H17310535   0.070   0.630   0.084  0.2156  2.0504  0.1794
   12MOL   H17410536   0.162   0.490   7.868  0.0431  0.2940  0.1131
   12MOL   H17510537   0.239   0.390   0.006 -0.6627 -0.0750  2.0082
   12MOL   H17610538   7.953   0.367   0.086 -1.9602 -0.1046 -0.7143
   12MOL   H17710539   7.916   0.453   7.927  0.3637 -1.1275 -1.4889
   12MOL   H17810540   0.040   0.288   7.781  3.9004 -1.3921  0.3880
   12MOL   H17910541   0.086   0.181   7.914 -2.1078 -1.6796  0.4719
   12MOL   H18010542   7.818   0.125   7.940 -0.1367 -0.3852  0.1389
   12MOL   H18110543   7.773   0.267   7.848  1.4614  0.8434  1.7484
   12MOL   H18210544   7.938   0.038   7.730  2.5792  3.7075 -2.0045
   12MOL   H18310545   7.875   0.167   7.652 -1.1843  0.0401 -0.1723
   12MOL   H18410546   7.638   0.100   7.718  0.4388  0.5369 -1.1729
   12MOL   H18510547   7.713   7.919   7.758 -0.1979  0.7423  0.4141
   12MOL   H18610548   7.441   7.836   7.335 -0.4165 -0.0558 -1.0265
   12MOL   H18710549   7.481   7.763   7.085 -1.7394  3.3685 -0.4150
   12MOL   H18810550   7.873   7.922   7.107  1.4363 -0.6543 -0.3450
   12MOL   H18910551   7.853   7.964   7.348  1.0305  0.1502 -0.9207
   12MOL   O19010552   7.809   7.778   6.733  0.0849  0.2339 -0.2913
   12MOL   C19110553   7.855   7.646   6.717  0.2194  0.5227  0.4362
   12MOL   C19210554   0.029   7.634   6.742 -0.2585 -0.1405  0.0727
   12MOL   C19310555   0.089   7.491   6.711 -0.1345  0.1763  0.5916
   12MOL   C19410556   0.237   7.494   6.750 -0.4209  0.7880  0.2430
   12MOL   C19510557   0.272   7.467   6.896  0.1733 -0.4981  0.4473
   12MOL   C19610558   0.420   7.457   6.942 -0.2707 -0.0129  0.1265
   12MOL   C19710559   0.444   7.385   7.075  0.2764 -0.7879 -0.5123
   12MOL   C19810560   0.582   7.432   7.140 -0.6931  0.1128  0.1934
   12MOL   C19910561   0.709   7.373   7.071  0.8534 -0.0078  0.1139
   12MOL   C20010562   0.841   7.412   7.141 -0.0549  0.3274 -0.5612
   12MOL   O20110563   0.944   7.344   7.063 -0.0422  0.3764 -0.5482
   12MOL   C20210564   1.020   7.412   6.974 -0.4659  0.5411  0.0946
   12MOL   O20310565   1.006   7.532   6.954  0.0892 -0.1117  0.2732
   12MOL   C20410566   1.113   7.322   6.900  0.4566  0.0668  0.4175
   12MOL   C20510567   1.133   7.187   6.936  1.1031  0.2641 -0.6609
   12MOL   C20610568   1.236   7.116   6.871  0.2711 -0.2157 -0.5988
   12MOL   C20710569   1.316   7.177   6.768 -0.1197  0.2265  0.0404
   12MOL   C20810570   1.409   7.098   6.691 -0.2929  0.5514  0.1099
   12MOL   O20910571   1.433   6.980   6.705 -0.2630  0.7734  0.1114
   12MOL   O21010572   1.474   7.173   6.604 -0.0586 -0.1928  0.7329
   12MOL   C21110573   1.285   7.313   6.732  0.2812 -0.3672 -0.0414
   12MOL   C21210574   1.188   7.385   6.798 -0.4713  0.1726 -0.3896
   12MOL   H21310575   7.794   7.579   6.778  1.7901 -1.7538 -0.4578
   12MOL   H21410576   7.845   7.629   6.610  1.5922  0.7506  0.2746
   12MOL   H21510577   0.048   7.650   6.848 -0.2110  0.8816 -0.0861
   12MOL   H21610578   0.089   7.714   6.698  0.0456  1.0226  2.5423
   12MOL   H21710579   0.040   7.417   6.775  2.1902 -1.5590  0.4240
   12MOL   H21810580   0.069   7.471   6.606  3.0967  1.2971 -0.3006
   12MOL   H21910581   0.291   7.583   6.719 -0.1556 -0.0298 -1.7016
   12MOL   H22010582   0.295   7.411   6.709  1.5497  1.8627  0.7853
   12MOL   H22110583   0.207   7.525   6.962 -1.9106  0.6921 -2.5376
   12MOL   H22210584   0.242   7.365   6.918  0.0989 -0.6962 -0.5426
   12MOL   H22310585   0.479   7.404   6.867 -1.3885 -1.4316  0.2266
   12MOL   H22410586   0.464   7.557   6.949  1.3539 -0.8039  1.6749
   12MOL   H22510587   0.355   7.415   7.130  1.6748  0.1725  1.2450
   12MOL   H22610588   0.428   7.278   7.057  2.2938 -1.3495  0.8431
   12MOL   H22710589   0.588   7.541   7.135 -2.7723  0.3428  1.7260
   12MOL   H22810590   0.586   7.411   7.247 -1.2840  2.3916  0.7022
   12MOL   H22910591   0.689   7.408   6.970 -0.6402  0.7483  0.6628
   12MOL   H23010592   0.708   7.265   7.060 -0.3656 -0.0501  0.6035
   12MOL   H23110593   0.834   7.379   7.245  0.5394  1.8658 -0.0150
   12MOL   H23210594   0.854   7.520   7.142 -0.8701  0.4374  2.1266
   12MOL   H23310595   1.079   7.136   7.014 -1.1522  2.6722 -0.5546
   12MOL   H23410596   1.249   7.012   6.895  1.1554  0.3960  1.7187
   12MOL   H23510597   1.333   7.364   6.649  1.9932 -2.2410 -0.2384
   12MOL   H23610598   1.175   7.490   6.775  1.2539  0.4835  0.0224
   12MOL   O23710599   1.576   7.100   6.514  0.5425  0.3119  0.0569
   12MOL   C23810600   1.511   7.075   6.389  0.2960  0.3309  0.4269
   12MOL   C23910601   1.466   7.198   6.317  0.9168  0.7346  0.6529
   12MOL   C24010602   1.572   7.302   6.297 -0.5809 -0.2848 -0.5867
   12MOL   C24110603   1.494   7.429   6.261  0.3919 -0.0201  0.3491
   12MOL   C24210604   1.580   7.543   6.218  0.1454 -0.1187  0.2498
   12MOL   C24310605   1.505   7.667   6.169  0.3043  0.0236 -0.0848
   12MOL   C24410606   1.605   7.778   6.131  0.0670  1.1936 -0.3775
   12MOL   C24510607   1.534   7.894   6.051 -0.1915 -0.3645 -0.1052
   12MOL   C24610608   1.416   7.955   6.125  0.0279  0.3423  0.0813
   12MOL   C24710609   1.344   0.082   6.039  0.0056  0.4503 -0.7083
   12MOL   O24810610   1.415   0.206   6.059 -0.3178 -0.3244 -0.5529
   12MOL   C24910611   1.382   0.315   5.985 -0.2501 -0.1089 -0.1171
   12MOL   O25010612   1.297   0.317   5.894 -0.0700 -0.0234  0.4465
   12MOL   C25110613   1.447   0.444   6.032 -0.5762  1.0398 -0.6232
   12MOL   C25210614   1.545   0.440   6.137  0.8294 -0.3144  0.1502
   12MOL   C25310615   1.599   0.553   6.194 -1.0928 -0.9517  0.5174
   12MOL   C25410616   1.573   0.677   6.135 -0.3547 -0.0961 -0.9747
   12MOL   C25510617   1.630   0.804   6.188  0.1792 -0.5684 -0.0439
   12MOL   O25610618   1.689   0.808   6.297 -0.3035  0.8664 -0.0070
   12MOL   O25710619   1.596   0.917   6.123  0.4852  0.3201 -0.0062
   12MOL   C25810620   1.476   0.681   6.036  0.3103 -0.1007 -0.1837
   12MOL   C25910621   1.419   0.568   5.976 -0.6566  0.9862 -0.4822
   12MOL   H26010622   1.578   7.017   6.325 -2.4071 -3.2331  0.6484
   12MOL   H26110623   1.426   7.008   6.396 -0.1561  0.6505 -1.8540
   12MOL   H26210624   1.374   7.239   6.361  1.1026  0.7331  1.0491
   12MOL   H26310625   1.428   7.162   6.222  2.0867  0.9652  0.1030
   12MOL   H26410626   1.643   7.325   6.377  0.3391  0.2545 -1.5543
   12MOL   H26510627   1.638   7.274   6.215  0.7550 -0.0522  0.3835
   12MOL   H26610628   1.434   7.454   6.349 -0.3371 -1.4290  0.2716
   12MOL   H26710629   1.429   7.399   6.180  0.3767 -2.5312  1.2199
   12MOL   H26810630   1.646   7.568   6.301  0.8341  1.7020 -0.8099
   12MOL   H26910631   1.657   7.515   6.146  1.6583  1.8904  1.0231
   12MOL   H27010632   1.430   7.630   6.098 -0.2443 -0.0230  0.5193
   12MOL   H27110633   1.442   7.698   6.252 -1.0234  1.9788 -1.7662
   12MOL   H27210634   1.655   7.820   6.218  0.1575  0.0690  0.1188
   12MOL   H27310635   1.679   7.736   6.062 -0.9192  0.1659 -0.8223
   12MOL   H27410636   1.596   0.004   6.034  0.2712 -0.0736  2.8074
   12MOL   H27510637   1.510   7.863   5.950 -2.0554 -1.3040  0.6026
   12MOL   H27610638   1.444   0.018   6.222 -0.1899  2.1971 -0.6116
   12MOL   H27710639   1.341   7.878   6.142 -0.6179  1.2420  1.3688
   12MOL   H27810640   1.243   0.108   6.070  0.0308 -0.7857  0.4371
   12MOL   H27910641   1.348   0.056   5.934  2.2330  1.5162 -0.9400
   12MOL   H28010642   1.576   0.346   6.180  0.2021 -0.6281 -0.0787
   12MOL   H28110643   1.675   0.550   6.270 -0.6706 -1.3871  0.0801
   12MOL   H28210644   1.436   0.775   5.999  1.0409 -0.1009 -1.0026
   12MOL   H28310645   1.347   0.574   5.895  0.3281 -0.3196 -1.4799
   12MOL   O28410646   1.662   1.039   6.186 -0.4679  0.2068 -0.1565
   12MOL   C28510647   1.800   1.060   6.143 -0.0501  0.2091  0.7149
   12MOL   C28610648   1.801   1.090   5.997 -0.2744  0.1127  0.1805
   12MOL   C28710649   1.723   1.215   5.966 -0.3084 -0.8948  0.2017
   12MOL   C28810650   1.713   1.235   5.817  0.1066  0.6285  0.5816
   12MOL   C28910651   1.644   1.371   5.778 -0.2401 -0.4861  0.1528
   12MOL   C29010652   1.613   1.373   5.624 -0.5869  0.5755 -0.7470
   12MOL   C29110653   1.495   1.283   5.578  0.6247 -0.0473 -0.1889
   12MOL   C29210654   1.438   1.312   5.437 -0.0414 -0.2021 -0.2492
   12MOL   C29310655   1.378   1.182   5.372 -0.2594 -0.2549  0.3622
   12MOL   C29410656   1.489   1.096   5.305  0.2346 -0.2674 -0.3722
   12MOL   O29510657   1.581   1.044   5.399 -0.2777  0.2350 -0.5465
   12MOL   C29610658   1.564   0.922   5.463  0.3386 -0.0234  0.1568
   12MOL   O29710659   1.468   0.846   5.438 -0.2546  0.2808 -0.2373
   12MOL   C29810660   1.668   0.894   5.568 -0.3326 -0.5337 -0.1316
   12MOL   C29910661   1.789   0.967   5.569  0.2923  0.6043 -0.6773
   12MOL   C30010662   1.893   0.935   5.664  0.2293 -0.7637 -0.2458
   12MOL   C30110663   1.877   0.827   5.758 -0.5249 -0.4944  0.2623
   12MOL   C30210664   1.969   0.807   5.864 -0.6458  0.5912 -0.0007
   12MOL   O30310665   1.940   0.732   5.957  0.2501  0.1812  0.1742
   12MOL   O30410666   2.085   0.868   5.850  0.0614  0.3859  0.5973
   12MOL   C30510667   1.748   0.758   5.756  0.1459  0.5192  0.4545
   12MOL   C30610668   1.646   0.798   5.665  0.3032  0.1249  0.1494
   12MOL   H30710669   1.844   1.141   6.202 -0.0613 -0.4789  1.6858
   12MOL   H30810670   1.866   0.976   6.165 -1.6724 -1.6945 -1.4146
   12MOL   H30910671   1.754   1.006   5.945 -0.3997  1.0937 -1.3122
   12MOL   H31010672   1.898   1.107   5.951 -0.7177  0.2163 -0.7325
   12MOL   H31110673   1.631   1.214   6.025  0.2467 -0.8405  1.0824
   12MOL   H31210674   1.784   1.298   6.004 -0.2179  0.2950 -2.4290
   12MOL   H31310675   1.642   1.161   5.781  2.0931 -0.9525 -0.1598
   12MOL   H31410676   1.811   1.218   5.773 -0.3780  1.0937 -0.7234
   12MOL   H31510677   1.549   1.390   5.828 -0.1791  0.8792 -0.2498
   12MOL   H31610678   1.713   1.454   5.790  1.1524 -1.5813 -0.1288
   12MOL   H31710679   1.580   1.472   5.595 -1.1855 -0.1434 -2.6275
   12MOL   H31810680   1.701   1.347   5.565 -0.6963 -0.1526 -0.5938
   12MOL   H31910681   1.512   1.176   5.594  0.6469 -0.1240 -0.7453
   12MOL   H32010682   1.416   1.306   5.650 -0.2410 -0.8794 -0.8583
   12MOL   H32110683   1.351   1.378   5.442 -0.9764 -1.4429  0.0087
   12MOL   H32210684   1.516   1.361   5.378 -1.6596  2.3546 -0.3486
   12MOL   H32310685   1.309   1.213   5.294  0.1258 -1.0978 -0.3155
   12MOL   H32410686   1.327   1.111   5.437  0.0205 -1.0142 -0.2455
   12MOL   H32510687   1.550   1.158   5.238  0.0210  0.3933  0.0363
   12MOL   H32610688   1.441   1.014   5.252 -0.5128 -0.9990  1.3966
   12MOL   H32710689   1.808   1.026   5.481  2.5597 -1.8849 -1.9583
   12MOL   H32810690   1.974   1.005   5.669 -0.4467  0.0822 -0.9787
   12MOL   H32910691   1.722   0.676   5.821 -1.7448  1.1314  0.5169
   12MOL   H33010692   1.551   0.748   5.663  0.9155 -1.1014  0.8470
   12MOL   O33110693   2.193   0.826   5.943 -0.0483 -0.0553 -0.6869
   12MOL   C33210694   2.269   0.728   5.881 -0.0723 -0.2358  0.0470
   12MOL   C33310695   2.341   0.793   5.766 -0.0888  0.2833 -0.0340
   12MOL   C33410696   2.394   0.938   5.775 -0.6496 -0.1193 -0.0698
   12MOL   C33510697   2.465   0.999   5.653  0.1803  0.4953 -0.0578
   12MOL   C33610698   2.530   1.136   5.670 -0.1091 -0.6592 -0.3973
   12MOL   C33710699   2.425   1.243   5.641  0.5988  0.5012  0.6285
   12MOL   C33810700   2.491   1.390   5.642  0.4551 -0.3120  0.3415
   12MOL   C33910701   2.376   1.492   5.598 -0.3610  0.1097 -0.3550
   12MOL   C34010702   2.417   1.630   5.622 -0.0550 -0.5618 -0.3316
   12MOL   C34110703   2.318   1.738   5.581  0.0941 -0.3621  0.3192
   12MOL   O34210704   2.297   1.744   5.440 -0.0995 -0.0836  0.2393
   12MOL   C34310705   2.176   1.793   5.400 -0.1721  0.3296  0.1442
   12MOL   O34410706   2.095   1.840   5.474 -0.1465 -0.6951 -0.3926
   12MOL   C34510707   2.153   1.790   5.253 -1.5637 -0.2990 -0.6876
   12MOL   C34610708   2.260   1.754   5.164  0.3216 -0.5512  0.0511
   12MOL   C34710709   2.243   1.748   5.028 -0.4743 -0.1708  0.5035
   12MOL   C34810710   2.114   1.777   4.967  0.5640 -0.2665 -0.7369
   12MOL   C34910711   2.092   1.742   4.822 -1.2953 -0.5784  0.2684
   12MOL   O35010712   2.151   1.647   4.766 -0.5973 -0.2269 -0.8796
   12MOL   O35110713   1.994   1.816   4.763  0.2058 -0.1442 -0.4544
   12MOL   C35210714   2.011   1.819   5.058  0.3113  0.1030  0.6015
   12MOL   C35310715   2.030   1.817   5.196 -0.3629 -1.2520  0.0001
   12MOL   H35410716   2.334   0.683   5.955 -0.7210  0.7833  1.2512
   12MOL   H35510717   2.201   0.646   5.859  1.9104 -1.8456 -0.1626
   12MOL   H35610718   2.268   0.802   5.685  0.1328  0.0527 -0.2626
   12MOL   H35710719   2.422   0.727   5.734 -0.6131  0.7489 -2.4964
   12MOL   H35810720   2.316   1.001   5.816  1.1842  2.9736 -1.1454
   12MOL   H35910721   2.470   0.933   5.853  1.3137 -2.0531 -2.0341
   12MOL   H36010722   2.391   0.999   5.572 -0.3082 -0.7681  0.3900
   12MOL   H36110723   2.541   0.932   5.615  0.4326 -0.4119  2.0022
   12MOL   H36210724   2.585   1.144   5.763  0.4267 -1.2264 -0.6641
   12MOL   H36310725   2.607   1.146   5.593 -1.5309 -0.3858 -1.8230
   12MOL   H36410726   2.377   1.225   5.545  1.0852  3.0018 -0.1282
   12MOL   H36510727   2.348   1.240   5.718 -0.4424  0.8695 -0.3878
   12MOL   H36610728   2.528   1.414   5.741 -0.7944  2.2024  0.2265
   12MOL   H36710729   2.564   1.399   5.561  0.7411 -2.6935  0.2937
   12MOL   H36810730   2.357   1.479   5.491  2.0766 -1.7354 -0.6179
   12MOL   H36910731   2.279   1.478   5.645 -0.0657  0.4865  0.3759
   12MOL   H37010732   2.505   1.641   5.558  1.4415  0.0346  1.7607
   12MOL   H37110733   2.443   1.648   5.727 -0.3366 -0.8701 -0.2082
   12MOL   H37210734   2.371   1.830   5.602 -0.2259  0.4097 -2.0629
   12MOL   H37310735   2.226   1.723   5.638 -1.7508 -0.2226 -2.4955
   12MOL   H37410736   2.353   1.717   5.205 -0.8820  1.1501  4.5721
   12MOL   H37510737   2.333   1.720   4.975 -0.6220 -1.6330  1.0209
   12MOL   H37610738   1.916   1.854   5.021  0.9064  1.6426  0.4808
   12MOL   H37710739   1.954   1.859   5.260 -0.1677  0.9392 -1.1517
   12MOL   O37810740   1.939   1.755   4.631  0.3337  0.5301 -0.4779
   12MOL   C37910741   2.001   1.814   4.517 -0.7233 -0.0607  0.2979
   12MOL   C38010742   1.921   1.940   4.475  0.5500 -0.1532 -0.2173
   12MOL   C38110743   1.785   1.900   4.427  0.2824  0.5340 -0.4037
   12MOL   C38210744   1.694   2.023   4.375 -0.7886  0.6283  0.6550
   12MOL   C38310745   1.578   1.958   4.311 -0.3261 -0.5799  0.5562
   12MOL   C38410746   1.465   2.063   4.283  0.3460 -0.4263  0.4618
   12MOL   C38510747   1.346   1.996   4.230  0.4763  0.4312 -0.7026
   12MOL   C38610748   1.221   2.070   4.188  0.0759 -0.1707  0.2558
   12MOL   C38710749   1.109   1.980   4.134  0.0874  0.1787  0.0757
   12MOL   C38810750   0.976   2.032   4.173  0.2409  0.5751  0.5079
   12MOL   O38910751   0.982   2.053   4.314  0.6659  0.4051 -0.1150
   12MOL   C39010752   0.895   1.997   4.399  0.0095 -0.3547 -0.4658
   12MOL   O39110753   0.786   1.954   4.367 -0.5232  0.6771 -0.3327
   12MOL   C39210754   0.935   2.013   4.546  0.1493 -0.0459  0.2213
   12MOL   C39310755   1.052   2.080   4.582 -0.8275  0.3491 -0.1666
   12MOL   C39410756   1.085   2.097   4.719  0.0816  0.3286 -0.7941
   12MOL   C39510757   1.010   2.029   4.818 -0.0196  0.4633 -0.1044
   12MOL   C39610758   1.065   2.021   4.960  0.4010 -0.2593 -0.0453
   12MOL   O39710759   1.188   2.035   4.979  0.7789  0.1453 -0.3068
   12MOL   O39810760   0.978   1.975   5.053 -1.0433  0.3368 -0.3529
   12MOL   C39910761   0.888   1.965   4.782  0.2246 -0.8550 -0.3879
   12MOL   C40010762   0.850   1.974   4.646  0.4746  0.6210 -0.6065
   12MOL   H40110763   2.106   1.836   4.534 -0.8796  0.1552  1.0051
   12MOL   H40210764   2.011   1.739   4.439  1.9493  0.7858 -0.2170
   12MOL   H40310765   1.976   1.989   4.395  2.6339 -1.0282  0.6549
   12MOL   H40410766   1.922   2.010   4.558  0.7555 -1.0031  0.5030
   12MOL   H40510767   1.788   1.817   4.357  2.3078 -0.7544  1.1683
   12MOL   H40610768   1.721   1.849   4.499 -1.2518  0.1123 -2.0215
   12MOL   H40710769   1.749   2.088   4.307  0.2555 -1.3307 -0.4220
   12MOL   H40810770   1.661   2.083   4.459 -0.4997 -0.9558  1.9217
   12MOL   H40910771   1.608   1.904   4.221 -2.2523 -2.5904  1.0852
   12MOL   H41010772   1.541   1.883   4.381 -0.8523 -0.7599  0.0944
   12MOL   H41110773   1.439   2.108   4.379  0.1085  0.5558 -0.0650
   12MOL   H41210774   1.498   2.138   4.212 -0.7179 -0.1462  0.2618
   12MOL   H41310775   1.368   1.948   4.135  0.7363  2.1412 -1.5197
   12MOL   H41410776   1.315   1.914   4.296  1.1937  0.8310  0.1503
   12MOL   H41510777   1.204   2.135   4.273  3.7389  1.1685  0.0435
   12MOL   H41610778   1.242   2.139   4.107 -2.0954  1.1255  0.7582
   12MOL   H41710779   1.116   1.882   4.181 -0.5034 -0.6477 -1.5172
   12MOL   H41810780   1.106   1.978   4.025 -0.8768  0.4917  0.0892
   12MOL   H41910781   0.896   1.961   4.153 -0.3773  1.6959 -1.0918
   12MOL   H42010782   0.962   2.127   4.121  1.3193 -0.4423 -1.7250
   12MOL   H42110783   1.108   2.133   4.507 -0.0579 -2.4406 -1.6680
   12MOL   H42210784   1.180   2.144   4.742  0.0046 -0.5871  1.5861
   12MOL   H42310785   0.823   1.924   4.857  0.1058  2.0110  1.1400
   12MOL   H42410786   0.755   1.930   4.620 -1.0642  2.1961  2.0723
   12MOL   O42510787   1.028   1.979   5.198  1.0320  0.0414  0.5378
   12MOL   C42610788   1.000   2.113   5.248 -0.1649  0.4319 -0.5285
   12MOL   C42710789   1.064   2.113   5.382  0.5237 -0.0905 -0.1754
   12MOL   C42810790   1.043   2.238   5.461 -0.0154 -0.3952 -0.1560
   12MOL   C42910791   1.112   2.239   5.594  0.2689 -0.0365 -0.4120
   12MOL   C43010792   1.044   2.151   5.703  0.2827 -0.4631 -0.1407
   12MOL   C43110793   1.095   2.179   5.843 -0.0624 -0.0280 -0.4725
   12MOL   C43210794   1.027   2.095   5.951  0.8471  1.1556  0.6490
   12MOL   C43310795   1.087   2.109   6.090  0.5012  0.2588 -0.3762
   12MOL   C43410796   1.028   1.998   6.177 -0.1794 -0.7194 -0.6134
   12MOL   C43510797   1.103   1.981   6.314  1.0588 -0.5484 -0.5169
   12MOL   O43610798   1.077   2.078   6.411  0.2717  0.1040  0.4068
   12MOL   C43710799   0.967   2.063   6.489 -0.3523  0.3632  0.6467
   12MOL   O43810800   0.876   1.984   6.467 -0.3834 -0.8394  0.4973
   12MOL   C43910801   0.953   2.166   6.596 -0.4801 -0.0260  0.3431
   12MOL   C44010802   0.878   2.141   6.712  0.0202 -0.0395 -0.2433
   12MOL   C44110803   0.848   2.244   6.813  1.0458  0.0621 -0.7347
   12MOL   C44210804   0.914   2.366   6.794  0.5030  0.4812 -0.0536
   12MOL   C44310805   0.909   2.477   6.891  0.1219 -0.4701  0.7503
   12MOL   O44410806   0.994   2.565   6.898  0.3145 -0.4851 -0.5818
   12MOL   O44510807   0.806   2.460   6.973 -0.2590  0.1621  0.2182
   12MOL   C44610808   0.991   2.394   6.680  0.4562 -0.3837 -0.4537
   12MOL   C44710809   1.009   2.294   6.584 -0.1240 -0.0331 -0.1846
   12MOL   H44810810   1.021   2.200   5.186 -3.5150  2.0427  0.4886
   12MOL   H44910811   0.892   2.128   5.249 -0.1449  0.6341 -1.2414
   12MOL   H45010812   1.172   2.096   5.376  0.6039 -0.8581  2.6368
   12MOL   H45110813   1.022   2.028   5.436 -0.4690  1.0550  0.8955
   12MOL   H45210814   1.068   2.323   5.398 -1.7614  0.3159  0.0932
   12MOL   H45310815   0.936   2.243   5.483 -0.6363 -1.9024 -2.6229
   12MOL   H45410816   1.112   2.342   5.630  2.3101 -0.7377  1.6572
   12MOL   H45510817   1.216   2.211   5.577  0.0030 -0.7149 -0.9345
   12MOL   H45610818   0.942   2.188   5.696  0.7850  0.9551 -0.0232
   12MOL   H45710819   1.042   2.048   5.668  1.0564 -0.9470  1.2364
   12MOL   H45810820   1.200   2.149   5.848  0.5723  2.2708  0.7864
   12MOL   H45910821   1.114   2.282   5.873  1.6459 -0.5408  0.3013
   12MOL   H46010822   0.926   2.131   5.966  0.2710 -0.6404  1.2383
   12MOL   H46110823   1.024   1.990   5.921  0.6504  0.9903  1.2409
   12MOL   H46210824   1.195   2.095   6.093  0.1574 -2.4201  0.8365
   12MOL   H46310825   1.059   2.206   6.130  0.6426  0.3267 -0.4374
   12MOL   H46410826   1.039   1.895   6.142 -1.3663 -1.2015  0.3963
   12MOL   H46510827   0.923   2.008   6.204  0.1173 -1.9367  1.0466
   12MOL   H46610828   1.208   1.984   6.282  0.7323 -2.4945 -1.8495
   12MOL   H46710829   1.079   1.885   6.358 -0.3268 -0.2832 -0.6817
   12MOL   H46810830   0.827   2.046   6.719  1.2077 -0.5635  1.7191
   12MOL   H46910831   0.791   2.232   6.903  2.5452 -2.2481 -0.0471
   12MOL   H47010832   1.050   2.484   6.670  0.9736 -0.7567 -0.7542
   12MOL   H47110833   1.070   2.321   6.499 -1.7338  0.6475 -1.1592
   12MOL   O47210834   0.789   2.577   7.071  0.3431 -0.4616 -0.1194
   12MOL   C47310835   0.857   2.554   7.191  0.5660  0.0957 -0.1761
   12MOL   C47410836   0.795   2.650   7.288  0.5141 -0.1434 -0.6150
   12MOL   C47510837   0.838   2.796   7.269 -0.1117  0.7956 -0.9709
   12MOL   C47610838   0.743   2.898   7.324  0.8191 -0.4065  0.0053
   12MOL   C47710839   0.638   2.939   7.223 -0.4280 -0.6521 -0.2957
   12MOL   C47810840   0.508   2.995   7.278 -0.4725 -0.1866  0.0286
   12MOL   C47910841   0.529   3.100   7.394 -0.0728  0.5155 -0.6234
   12MOL   C48010842   0.398   3.157   7.447  0.0465 -0.0196  0.7462
   12MOL   C48110843   0.318   3.056   7.528  0.0509  0.1988  0.6430
   12MOL   C48210844   0.197   3.115   7.601 -0.5462  0.0184  0.0245
   12MOL   O48310845   0.239   3.202   7.699 -0.8351  0.2228  0.3371
   12MOL   C48410846   0.151   3.273   7.767  0.3353  0.8599  1.2861
   12MOL   O48510847   0.027   3.254   7.767  0.1632  0.0467  0.1457
   12MOL   C48610848   0.214   3.380   7.843  0.1082 -0.0803 -0.0084
   12MOL   C48710849   0.147   3.494   7.877  0.0694  0.3158 -0.7919
   12MOL   C48810850   0.211   3.610   7.925 -0.4093 -0.5479 -0.0235
   12MOL   C48910851   0.343   3.595   7.969  0.6203  0.0453 -0.3004
   12MOL   C49010852   0.406   3.718   0.047 -0.7347 -0.1252  0.0190
   12MOL   O49110853   0.351   3.824   0.081 -0.3502  0.3493  0.8228
   12MOL   O49210854   0.537   3.704   0.041  0.0610  0.2497  0.9624
   12MOL   C49310855   0.413   3.468   7.959 -0.9588 -0.4520 -0.5427
   12MOL   C49410856   0.348   3.367   7.888  0.1098 -0.3402 -0.6274
   12MOL   H49510857   0.828   2.460   7.238 -1.8864  1.3693  0.9848
   12MOL   H49610858   0.966   2.557   7.193  0.5412  0.9199  0.5401
   12MOL   H49710859   0.815   2.633   7.394 -0.4979  1.8655 -0.0877
   12MOL   H49810860   0.687   2.639   7.280  0.4689  0.8554 -1.4108
   12MOL   H49910861   0.931   2.816   7.322 -1.2799  3.0318  0.2916
   12MOL   H50010862   0.845   2.824   7.164 -1.3769  0.5794 -1.1124
   12MOL   H50110863   0.798   2.987   7.353 -1.4192  0.9452  0.2485
   12MOL   H50210864   0.705   2.859   7.418  1.4671 -0.3168  0.3041
   12MOL   H50310865   0.681   3.025   7.173 -1.0116 -0.4658 -0.4923
   12MOL   H50410866   0.613   2.866   7.146  0.1395 -0.3352 -0.7810
   12MOL   H50510867   0.432   3.021   7.205  0.4144 -0.0384 -0.8578
   12MOL   H50610868   0.470   2.909   7.334  0.7136 -0.9175 -0.2670
   12MOL   H50710869   0.595   3.060   7.471 -1.1127 -0.1339 -0.0492
   12MOL   H50810870   0.580   3.181   7.343 -0.0698  1.4745  0.8694
   12MOL   H50910871   0.427   3.240   7.512 -0.7531  1.1153 -0.3065
   12MOL   H51010872   0.338   3.204   7.369 -0.0575  0.1866  0.9481
   12MOL   H51110873   0.388   3.006   7.596  1.6811  0.3005 -0.9262
   12MOL   H51210874   0.277   2.985   7.456 -0.5620  1.1955  0.0060
   12MOL   H51310875   0.141   3.032   7.645 -2.0667  1.0747  0.1161
   12MOL   H51410876   0.125   3.165   7.537 -2.5358 -0.4947  1.8087
   12MOL   H51510877   0.042   3.499   7.849 -0.2525 -1.8639 -0.1092
   12MOL   H51610878   0.156   3.702   7.941 -1.1175 -0.9733 -0.0128
   12MOL   H51710879   0.511   3.458   0.026 -1.2805 -2.0984 -0.1867
   12MOL   H51810880   0.390   3.269   7.873 -0.2399 -0.6110  0.1676
   12MOL   O51910881   0.612   3.807   0.124 -0.2003 -0.4919  0.5039
   12MOL   C52010882   0.647   3.755   0.250  0.2212  0.8165  0.1073
   12MOL   C52110883   0.542   3.801   0.348  0.3003  0.0133 -0.3027
   12MOL   C52210884   0.548   3.754   0.486  0.6805  0.4720  0.2204
   12MOL   C52310885   0.636   3.833   0.575 -0.3260 -0.1375 -0.1118
   12MOL   C52410886   0.586   3.822   0.726 -0.0949  0.5179 -0.0149
   12MOL   C52510887   0.691   3.877   0.822 -0.0970  0.5745  0.2940
   12MOL   C52610888   0.653   3.868   0.964 -0.3901 -0.2369 -0.4364
   12MOL   C52710889   0.774   3.898   1.052  0.1934 -0.2660 -0.5760
   12MOL   C52810890   0.746   3.872   1.198 -0.1716  0.3628 -0.2964
   12MOL   C52910891   0.849   3.907   1.315  0.6151 -0.4344 -0.6142
   12MOL   O53010892   0.792   3.843   1.429  0.0937  0.4276  0.1655
   12MOL   C53110893   0.842   3.719   1.473  0.0337  0.3619  0.2255
   12MOL   O53210894   0.956   3.682   1.433  0.7227 -0.1035 -0.1020
   12MOL   C53310895   0.758   3.652   1.592  0.2310  0.2907  0.3131
   12MOL   C53410896   0.798   3.535   1.665  0.0632 -0.0729 -0.2321
   12MOL   C53510897   0.719   3.483   1.777  0.3388 -0.2880  0.5609
   12MOL   C53610898   0.593   3.532   1.804  0.6555  0.1786  0.4625
   12MOL   C53710899   0.495   3.483   1.905 -0.1533  0.0557 -0.1255
   12MOL   O53810900   0.383   3.533   1.927  0.3619  0.9152 -0.0609
   12MOL   O53910901   0.546   3.392   1.989 -1.3928  0.0478  0.0850
   12MOL   C54010902   0.549   3.642   1.727  0.2764  0.1210 -0.5043
   12MOL   C54110903   0.632   3.702   1.625  0.8237  0.6456 -0.1868
   12MOL   H54210904   0.652   3.646   0.246  1.5993  0.8627  0.4414
   12MOL   H54310905   0.750   3.782   0.274  1.1304 -0.8987 -1.7215
   12MOL   H54410906   0.445   3.770   0.307  1.3981 -1.4596 -1.8833
   12MOL   H54510907   0.547   3.910   0.346  0.2985  0.1246  3.4074
   12MOL   H54610908   0.447   3.753   0.528  0.0255 -0.9501 -1.3376
   12MOL   H54710909   0.588   3.653   0.494 -4.0379 -1.7090 -2.0559
   12MOL   H54810910   0.636   3.937   0.542  0.7741  0.0959  0.5640
   12MOL   H54910911   0.741   3.805   0.561 -0.5531 -0.8145 -0.4385
   12MOL   H55010912   0.493   3.879   0.728  0.6060  1.6460  1.7986
   12MOL   H55110913   0.587   3.719   0.761 -2.5840  1.3567  2.7137
   12MOL   H55210914   0.790   3.834   0.809 -0.3684 -0.3647  1.2963
   12MOL   H55310915   0.711   3.981   0.797 -0.1355  0.6938  0.7554
   12MOL   H55410916   0.567   3.931   0.984  0.2838  0.3510  0.6851
   12MOL   H55510917   0.633   3.764   0.988  1.8439 -0.4210  0.8313
   12MOL   H55610918   0.868   3.850   1.024  1.3105  1.2144  0.5482
   12MOL   H55710919   0.790   4.002   1.024  0.8170 -0.3616 -0.5723
   12MOL   H55810920   0.740   3.763   1.195 -1.0242  0.3938 -0.0239
   12MOL   H55910921   0.658   3.924   1.236  0.3894  0.1997  1.2332
   12MOL   H56010922   0.848   4.014   1.336 -1.0314 -0.6523  0.4822
   12MOL   H56110923   0.950   3.876   1.288  0.4165 -4.6673  3.0658
   12MOL   H56210924   0.895   3.490   1.647 -0.1665 -0.4948 -0.4239
   12MOL   H56310925   0.753   3.399   1.837  1.3690  0.4913  1.0947
   12MOL   H56410926   0.453   3.687   1.743 -0.1058 -0.6805 -0.5262
   12MOL   H56510927   0.592   3.788   1.572  1.3523  0.3808 -1.0162
   12MOL   O56610928   0.457   3.357   2.107 -0.1321 -0.0704  0.0244
   12MOL   C56710929   0.494   3.460   2.202  0.0183 -0.4142  0.2068
   12MOL   C56810930   0.430   3.434   2.338 -0.1221  0.5708  0.3313
   12MOL   C56910931   0.278   3.418   2.341 -0.3506 -0.0386 -0.6312
   12MOL   C57010932   0.209   3.406   2.482 -0.5408 -0.8183 -0.8950
   12MOL   C57110933   0.194   3.544   2.545 -0.5753  0.2187 -0.3116
   12MOL   C57210934   0.181   3.536   2.696 -0.1150  0.2277  0.2973
   12MOL   C57310935   0.037   3.518   2.751  0.1899  0.7324 -0.2914
   12MOL   C57410936   0.021   3.481   2.897  0.0840  0.0700  0.0640
   12MOL   C57510937   0.090   3.575   2.997 -0.0658  0.1723 -0.0649
   12MOL   C57610938   0.088   3.515   3.136  0.0719  1.0539  0.2046
   12MOL   O57710939   0.131   3.382   3.145  0.0791 -0.3482  0.1097
   12MOL   C57810940   0.151   3.328   3.261  0.1666  0.3241 -0.1430
   12MOL   O57910941   0.127   3.375   3.372  0.0471  0.0628  0.2325
   12MOL   C58010942   0.212   3.187   3.251 -0.1614  0.4570  0.2632
   12MOL   C58110943   0.218   3.102   3.363  0.7403 -0.1075  0.7076
   12MOL   C58210944   0.276   2.976   3.359  0.5555  0.2423 -0.2718
   12MOL   C58310945   0.335   2.934   3.238 -0.1474 -0.3661  0.0921
   12MOL   C58410946   0.406   2.799   3.232 -0.1372 -0.5143  0.4844
   12MOL   O58510947   0.434   2.750   3.122 -0.0300  1.0364 -0.2729
   12MOL   O58610948   0.433   2.732   3.349  0.4847  0.3514 -0.1370
   12MOL   C58710949   0.321   3.009   3.119 -0.2874 -0.0558 -0.6201
   12MOL   C58810950   0.261   3.137   3.129 -0.6350  1.2443 -0.0308
   12MOL   H58910951   0.602   3.456   2.213  0.0724  0.3454 -0.0248
   12MOL   H59010952   0.466   3.559   2.164  0.8952  0.0477  0.7420
   12MOL   H59110953   0.458   3.508   2.413  0.7638  1.1233 -0.5332
   12MOL   H59210954   0.479   3.346   2.379  0.2008 -0.2019 -1.6532
   12MOL   H59310955   0.236   3.509   2.297 -0.6095  0.1948  0.0954
   12MOL   H59410956   0.252   3.330   2.282  0.3610 -0.8649  0.2715
   12MOL   H59510957   0.261   3.330   2.539 -1.8089 -1.9943 -1.2972
   12MOL   H59610958   0.114   3.356   2.465  0.0772 -2.6535  0.9202
   12MOL   H59710959   0.286   3.601   2.529 -1.8480  2.3337 -0.2865
   12MOL   H59810960   0.111   3.601   2.504 -0.7246  1.1614  1.2488
   12MOL   H59910961   0.250   3.464   2.740  1.7752  0.3776 -2.3006
   12MOL   H60010962   0.219   3.628   2.740 -0.4731 -0.0216  1.1457
   12MOL   H60110963   7.967   3.609   2.715  0.3415  0.7120 -0.5485
   12MOL   H60210964   7.958   3.447   2.692 -1.4423  0.6001  1.3870
   12MOL   H60310965   7.897   3.463   2.930 -0.3037 -2.0255 -2.0956
   12MOL   H60410966   0.061   3.380   2.906 -0.8432 -0.2306  0.9147
   12MOL   H60510967   0.049   3.676   2.995 -0.6069 -0.0579 -1.9471
   12MOL   H60610968   0.195   3.586   2.968 -0.6419  2.3298 -1.4486
   12MOL   H60710969   7.962   3.513   3.169  0.4072  0.9668  1.2780
   12MOL   H60810970   0.131   3.578   3.213 -0.5170 -0.1515  1.5447
   12MOL   H60910971   0.185   3.149   3.455  1.1762 -1.8861  1.7885
   12MOL   H61010972   0.285   2.916   3.448  0.9313  2.5039  1.2510
   12MOL   H61110973   0.365   2.979   3.025 -0.3809 -1.8047 -0.1205
   12MOL   H61210974   0.257   3.200   3.041  0.0794  2.8073  1.0426
   12MOL   O61310975   0.466   2.579   3.320  0.6353  0.1526 -0.0536
   12MOL   C61410976   0.595   2.542   3.349  0.0987  0.3418  0.4529
   12MOL   C61510977   0.615   2.392   3.321 -0.1531 -0.2846 -0.0562
   12MOL   C61610978   0.741   2.328   3.386 -0.5678 -0.7346 -0.0628
   12MOL   C61710979   0.742   2.176   3.382 -0.3574 -0.0888 -0.0312
   12MOL   C61810980   0.782   2.102   3.252  0.2953 -0.7137  0.8907
   12MOL   C61910981   0.928   2.124   3.220 -0.1899  0.6387 -0.5151
   12MOL   C62010982   0.978   2.033   3.104 -0.7785  0.0830  0.1375
   12MOL   C62110983   0.920   2.082   2.969  1.5958 -0.4030 -0.1055
   12MOL   C62210984   0.954   1.998   2.840 -0.8770 -0.7014 -0.7718
   12MOL   C62310985   0.873   2.020   2.715  0.1537 -0.4812 -0.0286
   12MOL   O62410986   0.884   2.155   2.683  0.3503  0.2020  0.2237
   12MOL   C62510987   0.781   2.237   2.700 -0.1499  0.0065  0.7599
   12MOL   O62610988   0.682   2.212   2.770  0.2628  0.6549  0.2363
   12MOL   C62710989   0.795   2.363   2.617  0.2865 -0.3955 -0.0841
   12MOL   C62810990   0.689   2.453   2.594 -0.8146 -0.0622  0.5783
   12MOL   C62910991   0.706   2.569   2.514  0.3449  0.0683 -0.1226
   12MOL   C63010992   0.826   2.591   2.443 -0.4803 -1.7486  0.8491
   12MOL   C63110993   0.838   2.716   2.371  0.1317  0.0472 -0.4009
   12MOL   O63210994   0.936   2.750   2.308  0.2542  0.3394  0.4744
   12MOL   O63310995   0.721   2.791   2.371  0.3586 -0.7006 -0.5382
   12MOL   C63410996   0.935   2.506   2.463 -0.1329  0.2743  0.3354
   12MOL   C63510997   0.919   2.395   2.554  1.0388  0.0713 -0.3148
   12MOL   H63610998   0.666   2.596   3.285  0.2000  0.8699  0.9985
   12MOL   H63710999   0.623   2.571   3.450 -0.7634 -2.7500  1.6313
   12MOL   H63811000   0.615   2.380   3.212  3.3754 -0.7305 -0.0656
   12MOL   H63911001   0.519   2.351   3.352 -0.4798 -0.1521 -0.8783
   12MOL   H64011002   0.836   2.367   3.351 -0.1217 -2.4791 -0.8579
   12MOL   H64111003   0.745   2.353   3.492 -0.5630 -2.0496  0.2571
   12MOL   H64211004   0.651   2.127   3.416  0.9173 -1.6083  1.2349
   12MOL   H64311005   0.831   2.146   3.437 -1.5488  1.8235  3.0834
   12MOL   H64411006   0.755   1.996   3.259  0.9070 -0.9301  0.0588
   12MOL   H64511007   0.736   2.142   3.161  0.2538 -0.3287  1.0816
   12MOL   H64611008   0.955   2.228   3.200  0.9342  0.9293  2.3265
   12MOL   H64711009   0.996   2.097   3.301 -1.5546 -1.9349 -0.1728
   12MOL   H64811010   1.087   2.034   3.095 -0.4087  1.4250  3.7542
   12MOL   H64911011   0.944   1.934   3.134  1.1437 -0.5660  0.2144
   12MOL   H65011012   0.812   2.099   2.965  1.9436  2.3256  1.4796
   12MOL   H65111013   0.943   2.188   2.956 -1.6999  0.5409  1.3003
   12MOL   H65211014   0.945   1.892   2.866  2.1834  0.0019  3.6725
   12MOL   H65311015   1.059   2.014   2.818 -0.7325 -1.0782 -0.3767
   12MOL   H65411016   0.771   1.982   2.727  0.2219 -0.4321  0.6864
   12MOL   H65511017   0.916   1.954   2.639 -2.2292 -0.0866 -1.7903
   12MOL   H65611018   0.594   2.433   2.641 -1.5586 -1.0578 -1.3270
   12MOL   H65711019   0.623   2.638   2.511  0.8758  0.6735 -0.9653
   12MOL   H65811020   1.030   2.528   2.418  0.1607 -1.3320  0.1532
   12MOL   H65911021   1.003   2.326   2.560  1.2860  0.2998 -1.0435
   12MOL   O66011022   0.727   2.911   2.275  0.7349  0.4153 -0.3007
   12MOL   C66111023   0.643   2.880   2.161 -0.0760  0.6123  0.0783
   12MOL   C66211024   0.664   2.999   2.068 -0.5349  0.1653  0.8406
   12MOL   C66311025   0.630   2.972   1.922  0.2267 -0.4406 -0.4585
   12MOL   C66411026   0.694   3.083   1.830 -0.0263  0.3934 -0.6383
   12MOL   C66511027   0.672   3.065   1.678  0.2572  0.2850  1.1589
   12MOL   C66611028   0.742   3.161   1.586  0.1853  0.3592  0.0787
   12MOL   C66711029   0.892   3.164   1.589  0.2174  0.2305  0.0406
   12MOL   C66811030   0.958   3.252   1.483  0.2775 -0.0456  0.3414
   12MOL   C66911031   1.088   3.316   1.529  0.1333 -0.4516  0.1398
   12MOL   C67011032   1.168   3.399   1.425 -0.8643  0.0102  0.2532
   12MOL   O67111033   1.298   3.422   1.465 -0.1960  0.2123 -0.4135
   12MOL   C67211034   1.399   3.433   1.376  0.0083  0.2654 -0.3364
   12MOL   O67311035   1.384   3.412   1.256  0.4976  0.3615  0.0354
   12MOL   C67411036   1.544   3.451   1.423  0.5827 -0.1603 -0.3939
   12MOL   C67511037   1.575   3.405   1.554 -0.2128 -0.3189 -0.9404
   12MOL   C67611038   1.697   3.436   1.604  0.5788 -0.2948  0.2155
   12MOL   C67711039   1.794   3.504   1.520  0.4398 -0.0736 -0.3663
   12MOL   C67811040   1.932   3.532   1.571  0.0886 -0.4922 -0.5446
   12MOL   O67911041   2.036   3.544   1.504 -0.3450  0.5392  0.7068
   12MOL   O68011042   1.938   3.531   1.707 -0.1693  0.0342  0.1600
   12MOL   C68111043   1.764   3.547   1.393  0.8060  0.8436 -0.3354
   12MOL   C68211044   1.635   3.520   1.345 -0.2797  0.2508  0.1313
   12MOL   H68311045   0.678   2.781   2.134 -0.5125  0.6086 -0.4843
   12MOL   H68411046   0.540   2.872   2.196  0.6933  0.8830  2.5039
   12MOL   H68511047   0.771   3.018   2.063 -0.3575 -0.7691  0.9772
   12MOL   H68611048   0.602   3.081   2.105 -0.5839  0.6591 -0.3229
   12MOL   H68711049   0.681   2.879   1.896 -2.5410 -2.6161  1.6276
   12MOL   H68811050   0.523   2.965   1.900  0.4110 -1.5853 -1.0220
   12MOL   H68911051   0.802   3.082   1.846 -0.3330  2.1104  1.8251
   12MOL   H69011052   0.652   3.181   1.853 -1.3926 -0.3985  0.3094
   12MOL   H69111053   0.705   2.964   1.651  0.3018  0.2831  1.2208
   12MOL   H69211054   0.564   3.058   1.664  0.4392 -0.4691  0.1087
   12MOL   H69311055   0.718   3.141   1.482 -1.0989  1.1577  0.2131
   12MOL   H69411056   0.692   3.256   1.606  0.7378  0.5364  0.6447
   12MOL   H69511057   0.905   3.211   1.687 -0.7360 -0.5096  0.5209
   12MOL   H69611058   0.946   3.070   1.595 -0.2134  0.0368  0.9426
   12MOL   H69711059   0.986   3.191   1.397 -2.7904 -2.8894  1.2546
   12MOL   H69811060   0.886   3.322   1.442 -2.5208 -1.6916  2.2903
   12MOL   H69911061   1.158   3.237   1.556 -0.3013 -0.2119  2.0390
   12MOL   H70011062   1.071   3.370   1.623  0.8178  1.0880 -0.6041
   12MOL   H70111063   1.117   3.490   1.394 -1.5643 -0.0834  1.1308
   12MOL   H70211064   1.176   3.336   1.336  0.8935 -0.2044  0.5458
   12MOL   H70311065   1.502   3.353   1.614 -1.2838 -1.1182 -2.8916
   12MOL   H70411066   1.724   3.414   1.707  1.9858 -0.4510 -0.1694
   12MOL   H70511067   1.832   3.601   1.328  0.2734  0.8846 -0.8689
   12MOL   H70611068   1.613   3.549   1.244 -0.7688 -1.0313 -0.1286
   12MOL   O70711069   2.071   3.558   1.768 -0.0532 -0.0465  0.1388
   12MOL   C70811070   2.132   3.435   1.808 -0.3059  0.2607 -0.2792
   12MOL   C70911071   2.059   3.396   1.938 -0.7864  0.4240  0.0751
   12MOL   C71011072   2.120   3.278   2.009 -0.8098 -0.0825 -0.0702
   12MOL   C71111073   2.039   3.220   2.116 -0.0673  0.4618 -0.3831
   12MOL   C71211074   2.023   3.311   2.241  0.0832 -0.1410 -0.3226
   12MOL   C71311075   1.921   3.260   2.336 -0.2022 -0.4927 -0.7343
   12MOL   C71411076   1.925   3.338   2.473 -0.0362  0.1769  0.3368
   12MOL   C71511077   1.860   3.477   2.466 -0.1076  0.1054 -0.3960
   12MOL   C71611078   1.704   3.471   2.469 -0.5889 -0.0470  0.1481
   12MOL   C71711079   1.641   3.605   2.477  0.2974 -0.3577  0.2617
   12MOL   O71811080   1.499   3.580   2.453 -0.2243  0.8573 -0.1620
   12MOL   C71911081   1.404   3.576   2.555 -0.1480  0.5578  0.4370
   12MOL   O72011082   1.436   3.589   2.675  1.0483  0.0773  0.1710
   12MOL   C72111083   1.270   3.571   2.495  0.0941  0.5373  0.2425
   12MOL   C72211084   1.148   3.606   2.564  0.4881  0.7727  1.0435
   12MOL   C72311085   1.022   3.611   2.497  0.1201 -0.1394 -0.0926
   12MOL   C72411086   1.022   3.598   2.356 -0.1453  0.3848  0.3272
   12MOL   C72511087   0.896   3.633   2.283 -0.4941  0.8846 -0.9431
   12MOL   O72611088   0.788   3.662   2.331 -0.2719 -0.0394 -0.3821
   12MOL   O72711089   0.919   3.619   2.148  0.0452 -0.0740 -0.3040
   12MOL   C72811090   1.135   3.566   2.289 -0.5027  0.2402 -0.1329
   12MOL   C72911091   1.258   3.545   2.352  0.3648 -0.5727 -0.2863
   12MOL   H73011092   2.118   3.363   1.727 -0.3416 -1.2651  1.0755
   12MOL   H73111093   2.237   3.452   1.829 -0.7843  0.6046  1.9939
   12MOL   H73211094   1.959   3.364   1.908 -0.5862  0.7434 -0.9272
   12MOL   H73311095   2.060   3.487   1.997  1.6996  1.2555 -1.1687
   12MOL   H73411096   2.153   3.203   1.936  2.5144  0.8332  0.3988
   12MOL   H73511097   2.219   3.303   2.048  0.3713 -2.5789 -1.3327
   12MOL   H73611098   2.077   3.122   2.145  1.3553  1.4742  1.2587
   12MOL   H73711099   1.940   3.201   2.074  0.2964  1.1442 -1.5820
   12MOL   H73811100   2.118   3.310   2.295  0.8839 -1.9708 -1.6858
   12MOL   H73911101   1.997   3.415   2.220 -2.0543 -0.5880  0.0084
   12MOL   H74011102   1.820   3.247   2.298 -1.3830  2.4089  1.2932
   12MOL   H74111103   1.961   3.163   2.367 -1.1048 -0.0664  1.8607
   12MOL   H74211104   1.861   3.280   2.540 -0.3797 -1.5249 -1.4072
   12MOL   H74311105   2.027   3.340   2.512 -0.0005 -1.1126  0.3416
   12MOL   H74411106   1.885   3.539   2.552 -0.6083  0.6682 -0.6551
   12MOL   H74511107   1.891   3.536   2.380  2.3693  0.1125  0.4746
   12MOL   H74611108   1.667   3.414   2.554 -0.1524 -1.3822 -0.5407
   12MOL   H74711109   1.676   3.419   2.377  3.3866  0.4052 -1.4174
   12MOL   H74811110   1.685   3.664   2.396  3.1941 -0.0490  1.9870
   12MOL   H74911111   1.660   3.648   2.575 -0.0619  0.6386 -0.0969
   12MOL   H75011112   1.150   3.626   2.670  0.2052 -1.9069  1.5640
   12MOL   H75111113   0.935   3.647   2.550  2.7919  1.8837  3.1136
   12MOL   H75211114   1.137   3.552   2.181  1.9509  0.5421 -0.1544
   12MOL   H75311115   1.341   3.519   2.287 -1.0886  1.0374 -2.8733
   12MOL   O75411116   0.792   3.630   2.061 -0.1769 -0.3423  0.7232
   12MOL   C75511117   0.794   3.752   1.982 -0.3374 -0.2269  0.2179
   12MOL   C75611118   0.766   3.887   2.047  0.3790  0.1877 -0.0018
   12MOL   C75711119   0.729   3.985   1.936 -1.0864 -0.2090  0.2355
   12MOL   C75811120   0.692   4.125   1.984 -0.0149  0.4034 -0.7986
   12MOL   C75911121   0.825   4.213   1.982  0.0911 -0.0485  0.6924
   12MOL   C76011122   0.787   4.359   2.011  0.5834  0.0461  0.1690
   12MOL   C76111123   0.906   4.449   2.003 -0.5949 -0.3198  0.0762
   12MOL   C76211124   0.868   4.593   2.035  0.1244  0.1835  0.2256
   12MOL   C76311125   0.935   4.647   2.163 -0.3968 -0.5157 -0.2605
   12MOL   C76411126   0.871   4.583   2.280 -0.4264 -0.6279  0.0427
   12MOL   O76511127   0.928   4.643   2.389  0.3534  0.0314  0.6327
   12MOL   C76611128   0.876   4.625   2.513  0.4548 -0.0468 -0.7233
   12MOL   O76711129   0.773   4.558   2.530 -0.2514 -0.4724 -0.1833
   12MOL   C76811130   0.952   4.702   2.623 -0.1775 -0.3460 -0.2360
   12MOL   C76911131   1.066   4.786   2.590  0.1767 -0.2482 -0.7633
   12MOL   C77011132   1.127   4.863   2.688 -0.1476 -0.8919 -0.2661
   12MOL   C77111133   1.084   4.854   2.824  0.5083 -0.7104  0.2413
   12MOL   C77211134   1.138   4.943   2.941  0.0377  0.6085  0.2643
   12MOL   O77311135   1.116   4.917   3.059 -0.0694  0.2208  0.7089
   12MOL   O77411136   1.200   5.063   2.907  0.8343 -0.5181 -0.0066
   12MOL   C77511137   0.986   4.760   2.854 -0.1357  0.1367 -0.1788
   12MOL   C77611138   0.919   4.690   2.759 -0.1497 -0.2697  0.0335
   12MOL   H77711139   0.876   3.754   1.910 -0.7114  1.0576 -0.1757
   12MOL   H77811140   0.718   3.741   1.905  0.0405  1.6227 -0.4290
   12MOL   H77911141   0.864   3.915   2.086 -0.4790  1.1832  1.4898
   12MOL   H78011142   0.699   3.879   2.132  1.2651 -0.0723  0.6815
   12MOL   H78111143   0.798   3.981   1.852  0.5013  1.2313  1.4419
   12MOL   H78211144   0.635   3.955   1.888 -1.9261  2.7004 -0.0584
   12MOL   H78311145   0.638   4.132   2.079 -0.6574 -3.3053 -0.8081
   12MOL   H78411146   0.614   4.162   1.918  1.2511  0.4427 -2.3002
   12MOL   H78511147   0.896   4.162   2.046  0.6197 -1.2298 -0.7942
   12MOL   H78611148   0.867   4.215   1.881  0.0282  3.2976  0.6939
   12MOL   H78711149   0.707   4.385   1.943 -0.3977 -0.6912  1.0321
   12MOL   H78811150   0.734   4.343   2.105  0.1994 -0.3952 -0.1220
   12MOL   H78911151   0.990   4.412   2.062 -1.9932  0.8269  2.8661
   12MOL   H79011152   0.936   4.452   1.898 -1.5798 -0.2200 -0.2056
   12MOL   H79111153   0.881   4.656   1.947 -3.7866 -1.5484 -1.7270
   12MOL   H79211154   0.759   4.593   2.039  0.1263 -3.1938  2.2582
   12MOL   H79311155   0.918   4.754   2.172 -0.1078 -0.3848 -1.1316
   12MOL   H79411156   1.043   4.635   2.165 -0.0484  2.5430  1.9808
   12MOL   H79511157   0.890   4.476   2.280  1.4014 -0.3420 -2.2509
   12MOL   H79611158   0.764   4.594   2.294 -0.1165  1.5435  0.9672
   12MOL   H79711159   1.095   4.811   2.489  3.3040 -0.4072  0.0519
   12MOL   H79811160   1.203   4.937   2.668 -2.1030  1.5872  1.2169
   12MOL   H79911161   0.955   4.749   2.956 -1.8578  1.2677 -0.5584
   12MOL   H80011162   0.844   4.621   2.794  0.3968 -0.3990  0.9648
   12MOL   O80111163   1.207   5.163   3.019 -0.7907  0.0967  0.1755
   12MOL   C80211164   1.075   5.224   3.031 -0.1002  0.4962  0.9329
   12MOL   C80311165   1.081   5.312   3.160  0.3080  0.3134 -0.6891
   12MOL   C80411166   1.096   5.235   3.299 -0.1108 -0.4865 -0.2986
   12MOL   C80511167   0.966   5.162   3.336  0.1812 -0.3416  0.0966
   12MOL   C80611168   0.964   5.100   3.477 -0.6634  0.1465 -0.4012
   12MOL   C80711169   0.834   5.021   3.506 -0.1429  0.4740  0.0328
   12MOL   C80811170   0.830   4.975   3.653  0.7240 -0.8267  0.2542
   12MOL   C80911171   0.704   4.910   3.696  0.0819 -0.2053  0.2177
   12MOL   C81011172   0.705   4.866   3.842  0.3595 -0.2954  0.6059
   12MOL   C81111173   0.581   4.786   3.879 -0.1914  0.1214 -0.8233
   12MOL   O81211174   0.605   4.725   4.008 -0.8451 -0.1003  0.2299
   12MOL   C81311175   0.601   4.792   4.127  0.3125  0.1184  0.0111
   12MOL   O81411176   0.568   4.912   4.140  0.1896  0.1495  0.2807
   12MOL   C81511177   0.638   4.706   4.246  0.0125  0.5031 -0.5215
   12MOL   C81611178   0.627   4.744   4.379  0.3754 -0.4265  0.8017
   12MOL   C81711179   0.668   4.669   4.488 -0.4183  0.4264  0.7621
   12MOL   C81811180   0.708   4.538   4.461  0.2488 -0.5469  0.3018
   12MOL   C81911181   0.724   4.444   4.569  0.0971  0.7999  0.1038
   12MOL   O82011182   0.764   4.328   4.556 -0.1550 -0.2143 -0.0181
   12MOL   O82111183   0.699   4.500   4.686  0.6823 -0.2528  0.0603
   12MOL   C82211184   0.718   4.497   4.333 -0.3473  0.0025  0.2781
   12MOL   C82311185   0.688   4.576   4.221 -0.5195 -0.2322  0.8704
   12MOL   H82411186   1.061   5.287   2.943 -2.4448 -1.1952  0.0332
   12MOL   H82511187   0.992   5.153   3.024  1.7369 -1.5887 -0.2164
   12MOL   H82611188   0.998   5.383   3.163 -0.2977 -0.4411  0.9730
   12MOL   H82711189   1.174   5.367   3.157  0.9603 -0.7492 -0.0514
   12MOL   H82811190   1.164   5.150   3.296  0.2420 -0.1768 -1.3987
   12MOL   H82911191   1.133   5.309   3.370 -3.4102  1.5043 -0.5350
   12MOL   H83011192   0.956   5.084   3.261  1.7516  1.1847 -1.7543
   12MOL   H83111193   0.874   5.220   3.328  0.3222 -0.0981  0.2311
   12MOL   H83211194   1.046   5.031   3.495 -0.8540 -0.2150 -0.9231
   12MOL   H83311195   0.993   5.175   3.550  1.5612 -1.5109  0.4799
   12MOL   H83411196   0.750   5.088   3.492  0.0021  1.0520  1.8188
   12MOL   H83511197   0.830   4.951   3.423 -0.0701  1.3003 -0.6751
   12MOL   H83611198   0.916   4.911   3.674 -0.2670 -1.8987  1.0660
   12MOL   H83711199   0.845   5.071   3.703 -1.2766  0.6823 -1.9389
   12MOL   H83811200   0.622   4.980   3.685  0.0647 -0.3245 -0.4055
   12MOL   H83911201   0.679   4.821   3.638 -1.2039 -1.4696  2.6456
   12MOL   H84011202   0.702   4.961   3.896  0.0349  1.9041 -3.0576
   12MOL   H84111203   0.803   4.822   3.859  0.8046  0.2813 -0.3627
   12MOL   H84211204   0.554   4.703   3.813  0.5004  0.1231 -1.1061
   12MOL   H84311205   0.498   4.857   3.881  1.5171  2.4478 -4.9897
   12MOL   H84411206   0.590   4.844   4.400  1.1202 -0.3522  1.7943
   12MOL   H84511207   0.658   4.711   4.587  0.8187  0.4717  0.8755
   12MOL   H84611208   0.734   4.392   4.313  0.1478 -0.0020  0.6686
   12MOL   H84711209   0.693   4.539   4.119 -2.2792  0.3884  0.5490
   12MOL   O84811210   0.715   4.418   4.807 -0.2164  0.0313  0.1271
   12MOL   C84911211   0.848   4.435   4.860  0.0334 -0.1214  0.1950
   12MOL   C85011212   0.889   4.314   4.942 -0.2093 -0.2746 -0.0848
   12MOL   C85111213   0.939   4.201   4.844 -0.4471 -0.0506 -0.2532
   12MOL   C85211214   1.028   4.104   4.928 -0.4816 -0.2664  0.0527
   12MOL   C85311215   0.936   4.013   5.020 -0.1627  0.0415 -0.0897
   12MOL   C85411216   1.010   3.888   5.076 -0.1613  0.6892  0.0681
   12MOL   C85511217   0.927   3.809   5.186 -0.0058  0.0497  0.1259
   12MOL   C85611218   0.982   3.671   5.213 -0.3025  0.2583 -0.0494
   12MOL   C85711219   1.104   3.675   5.305 -0.7845 -0.0996  0.2834
   12MOL   C85811220   1.129   3.536   5.351 -0.4331 -0.5178  0.3420
   12MOL   O85911221   1.158   3.450   5.246 -0.0695  0.0198  0.4207
   12MOL   C86011222   1.156   3.317   5.259 -0.4742  0.5122  0.2250
   12MOL   O86111223   1.109   3.260   5.359  0.2653 -0.2917 -0.4420
   12MOL   C86211224   1.204   3.246   5.136 -0.1102  0.0709 -0.7828
   12MOL   C86311225   1.253   3.330   5.035  0.6385 -0.6612  0.1966
   12MOL   C86411226   1.291   3.274   4.910  0.3799 -0.3470 -0.3144
   12MOL   C86511227   1.280   3.137   4.877  0.0361  0.5835  0.4301
   12MOL   C86611228   1.328   3.079   4.744  0.4139 -0.1409 -0.4411
   12MOL   O86711229   1.360   3.153   4.651 -0.1950  0.4087 -0.0332
   12MOL   O86811230   1.335   2.947   4.742  0.2153  0.2042 -0.1559
   12MOL   C86911231   1.228   3.057   4.981 -0.0289  0.1809  0.5311
   12MOL   C87011232   1.189   3.106   5.108 -0.1202  0.1467 -0.1184
   12MOL   H87111233   0.924   4.440   4.782  1.6396  2.4830  1.8390
   12MOL   H87211234   0.843   4.530   4.913  1.2298  0.1818 -0.2188
   12MOL   H87311235   0.807   4.275   5.003  0.9483 -0.3439  1.4525
   12MOL   H87411236   0.960   4.343   5.019 -0.2260 -0.9672  0.1940
   12MOL   H87511237   0.855   4.147   4.801 -0.4707  1.3723 -2.0391
   12MOL   H87611238   0.996   4.238   4.759 -1.4407 -1.6271 -1.6272
   12MOL   H87711239   1.109   4.154   4.980 -2.8019  1.0299  2.5726
   12MOL   H87811240   1.071   4.035   4.855  0.1881  0.4102 -0.1971
   12MOL   H87911241   0.902   4.074   5.103  1.6722 -0.6779  1.2236
   12MOL   H88011242   0.842   3.990   4.970  0.2110 -0.9357 -0.3636
   12MOL   H88111243   1.033   3.820   4.994  0.4279  1.6331 -0.5578
   12MOL   H88211244   1.107   3.919   5.114 -1.4669  2.5634  2.0072
   12MOL   H88311245   0.929   3.869   5.277  1.4012 -1.1466  0.8915
   12MOL   H88411246   0.826   3.792   5.148 -0.4134 -1.9417  1.9857
   12MOL   H88511247   0.909   3.599   5.251  0.4931  0.8534  2.7177
   12MOL   H88611248   1.011   3.620   5.121  0.2471  2.1636 -0.9558
   12MOL   H88711249   1.085   3.739   5.391  0.9432  0.3241  0.3717
   12MOL   H88811250   1.190   3.710   5.248  0.5452  1.9556  3.4116
   12MOL   H88911251   1.036   3.495   5.392 -0.5922 -0.9833 -0.4771
   12MOL   H89011252   1.211   3.530   5.423  0.7258  0.3805 -0.8869
   12MOL   H89111253   1.261   3.437   5.043 -3.9940  0.0049 -2.1104
   12MOL   H89211254   1.317   3.339   4.828  0.7696  0.1815  0.2268
   12MOL   H89311255   1.211   2.951   4.970 -0.0518  0.3675 -1.3829
   12MOL   H89411256   1.145   3.043   5.184 -0.3920  0.1933 -0.2358
   12MOL   O89511257   1.344   2.889   4.607  0.3756 -0.0533  0.3369
   12MOL   C89611258   1.236   2.806   4.583 -0.4074  0.0843 -0.5986
   12MOL   C89711259   1.103   2.881   4.565 -0.2239 -0.2378  0.3971
   12MOL   C89811260   0.988   2.793   4.524  0.2925  0.7371 -0.2605
   12MOL   C89911261   0.867   2.877   4.473  0.2680 -0.2744 -0.5399
   12MOL   C90011262   0.768   2.937   4.579  0.1737 -0.3581 -0.0742
   12MOL   C90111263   0.662   3.031   4.525  0.1633 -0.2957  0.3952
   12MOL   C90211264   0.589   2.975   4.398  0.0030 -0.1489 -0.0946
   12MOL   C90311265   0.636   3.043   4.276  0.2372 -0.2232 -0.0883
   12MOL   C90411266   0.588   2.972   4.147 -0.4564 -0.0974 -0.7598
   12MOL   C90511267   0.662   2.842   4.125 -0.9373 -0.3721 -0.8121
   12MOL   O90611268   0.799   2.868   4.110 -0.0025  0.4759 -0.1911
   12MOL   C90711269   0.866   2.806   4.016  0.5546  0.3919 -0.3207
   12MOL   O90811270   0.805   2.724   3.940 -0.1170 -0.0071 -0.1581
   12MOL   C90911271   1.010   2.834   4.008  0.6403  0.4341  0.4270
   12MOL   C91011272   1.068   2.928   4.091  0.6241  0.1223  0.5429
   12MOL   C91111273   1.207   2.961   4.072 -0.1560 -1.0983 -0.3980
   12MOL   C91211274   1.291   2.888   3.984  0.2417 -0.5845 -0.4563
   12MOL   C91311275   1.430   2.939   3.971  0.1234  0.4962 -0.3712
   12MOL   O91411276   1.477   3.041   4.018  0.3513 -0.0525 -0.1756
   12MOL   O91511277   1.509   2.859   3.895  0.6448 -0.4783  0.1553
   12MOL   C91611278   1.226   2.791   3.904  0.0404  0.9576  0.0880
   12MOL   C91711279   1.087   2.761   3.921 -0.1638 -0.3571  0.5309
   12MOL   H91811280   1.257   2.752   4.491 -0.1737 -1.8931  0.5838
   12MOL   H91911281   1.234   2.729   4.661  1.3778 -0.5645 -1.1757
   12MOL   H92011282   1.127   2.953   4.487  0.6389 -2.0038 -1.0112
   12MOL   H92111283   1.076   2.936   4.655  2.4479  1.9829 -0.0890
   12MOL   H92211284   1.018   2.719   4.450 -2.3935  0.4485 -1.1117
   12MOL   H92311285   0.954   2.747   4.617  1.4598  0.4323  0.0210
   12MOL   H92411286   0.813   2.824   4.395 -1.5139  0.7159 -0.0077
   12MOL   H92511287   0.902   2.965   4.418 -0.7186  0.7506  0.4452
   12MOL   H92611288   0.703   2.863   4.625 -0.7599  0.6414  0.2165
   12MOL   H92711289   0.823   3.001   4.648  1.4025 -0.1523 -1.2337
   12MOL   H92811290   0.584   3.069   4.592  0.4342 -0.5323  0.8453
   12MOL   H92911291   0.717   3.122   4.501 -1.6722  1.0995  1.3024
   12MOL   H93011292   0.606   2.868   4.390  0.8533 -0.0457  0.2016
   12MOL   H93111293   0.484   3.002   4.410  0.4750  1.5653  0.3314
   12MOL   H93211294   0.596   3.144   4.285  2.8705  0.7799  0.9942
   12MOL   H93311295   0.745   3.049   4.265  0.1653  1.6381  0.0883
   12MOL   H93411296   0.605   3.040   4.064 -0.0695  1.9260  0.9171
   12MOL   H93511297   0.481   2.951   4.154 -0.0663 -1.9804 -0.1187
   12MOL   H93611298   0.613   2.787   4.044  0.8733 -1.1389 -1.3991
   12MOL   H93711299   0.644   2.779   4.212 -2.3386 -1.2816 -1.7279
   12MOL   H93811300   1.012   2.983   4.166 -0.3346  1.3519 -1.0364
   12MOL   H93911301   1.256   3.041   4.125 -0.4285  0.3456 -2.2693
   12MOL   H94011302   1.279   2.750   3.819 -1.3575  0.7712 -0.7185
   12MOL   H94111303   1.046   2.678   3.865 -0.1033  0.2823 -0.4741
   12MOL   H94211304   1.590   2.907   3.895 -0.1075  0.8188  1.0514
   13MOL     O111305   7.059   3.178   7.218 -0.6536 -0.2341  0.0308
   13MOL     C211306   7.055   3.040   7.264 -0.0740  0.1027  0.7307
   13MOL     C311307   7.031   2.939   7.150 -0.6809  0.2424 -0.5059
   13MOL     C411308   6.916   2.964   7.071  0.3299  0.3712 -0.2200
   13MOL     C511309   6.895   2.867   6.960 -0.4344  0.0648  0.6077
   13MOL     C611310   6.760   2.894   6.888 -0.5621 -0.0208 -0.1575
   13MOL     C711311   6.717   2.785   6.794  0.2503 -0.0208 -0.0823
   13MOL     C811312   6.596   2.826   6.712  0.1464 -0.1594  0.4876
   13MOL     C911313   6.462   2.845   6.790  0.9351 -0.3119  0.3468
   13MOL    C1011314   6.387   2.724   6.849 -0.3862 -0.4611 -0.1665
   13MOL    C1111315   6.454   2.666   6.976 -0.7201  0.5903  0.2808
   13MOL    O1211316   6.369   2.561   7.027  0.1629 -0.1951 -0.3181
   13MOL    C1311317   6.389   2.503   7.150  0.1215  0.0976  0.3884
   13MOL    O1411318   6.464   2.552   7.233 -0.0603  0.0789 -0.4447
   13MOL    C1511319   6.309   2.378   7.169 -0.4462  0.1785 -0.4366
   13MOL    C1611320   6.315   2.313   7.298  0.2141 -0.0657  0.3619
   13MOL    C1711321   6.240   2.199   7.325 -0.0830  0.1342  0.4261
   13MOL    C1811322   6.142   2.149   7.230 -0.2211 -0.1824  0.3716
   13MOL    C1911323   6.056   2.028   7.260 -0.6035 -0.0248  1.1847
   13MOL    O2011324   5.979   1.979   7.175  0.3309  0.4361  0.3343
   13MOL    O2111325   6.082   1.970   7.380 -0.0022  0.0150  0.2702
   13MOL    C2211326   6.144   2.200   7.101  0.1952  0.4389 -0.1863
   13MOL    C2311327   6.223   2.320   7.073  0.7681  0.0485  0.0720
   13MOL    H2411328   7.144   3.016   7.322  0.4942 -1.8916 -0.9430
   13MOL    H2511329   6.972   3.052   7.333 -3.0201 -0.5239 -2.5887
   13MOL    H2611330   7.030   2.840   7.196 -2.2664  0.2193 -0.5470
   13MOL    H2711331   7.116   2.939   7.081 -1.2764 -1.6783 -1.3008
   13MOL    H2811332   6.824   2.955   7.129  0.3442 -1.4992 -0.4600
   13MOL    H2911333   6.923   3.067   7.037 -0.4516  0.6611  0.4791
   13MOL    H3011334   6.908   2.767   7.001 -0.4853 -0.5194 -0.7595
   13MOL    H3111335   6.975   2.882   6.888 -0.9077  1.7548  0.3907
   13MOL    H3211336   6.685   2.910   6.966 -1.0582  0.2336 -0.6814
   13MOL    H3311337   6.770   2.993   6.843  0.2947  1.8181  3.8537
   13MOL    H3411338   6.789   2.762   6.715  0.5145 -0.1932  0.2065
   13MOL    H3511339   6.705   2.696   6.855 -0.7125 -0.0383 -0.2969
   13MOL    H3611340   6.627   2.923   6.674 -0.5600  0.2171  0.8654
   13MOL    H3711341   6.583   2.768   6.621 -2.5591  0.0408  0.7022
   13MOL    H3811342   6.477   2.918   6.870  0.8405 -1.2510  1.2391
   13MOL    H3911343   6.393   2.900   6.727  0.6296 -0.5294  0.4901
   13MOL    H4011344   6.377   2.649   6.771 -0.1168 -2.1954  1.4412
   13MOL    H4111345   6.281   2.744   6.867 -0.0148 -0.0390  1.6377
   13MOL    H4211346   6.476   2.750   7.041  0.1228 -0.2699  1.1195
   13MOL    H4311347   6.552   2.621   6.962 -1.6893 -1.6108  0.3092
   13MOL    H4411348   6.388   2.351   7.368 -1.4797  2.0489  1.0460
   13MOL    H4511349   6.242   2.155   7.424  0.4102  0.4365  0.5534
   13MOL    H4611350   6.081   2.157   7.025  1.7425 -0.8691 -0.7589
   13MOL    H4711351   6.214   2.369   6.977 -1.3183 -1.0944 -0.3355
   13MOL    H4811352   7.061   3.230   7.297  1.8366 -0.7341  0.3525
   13MOL    O4911353   5.990   1.859   7.428 -0.5243 -0.0543  0.1767
   13MOL    C5011354   5.895   1.906   7.525  0.5403 -0.0237  0.6891
   13MOL    C5111355   5.801   1.791   7.569  0.1583  0.3094 -0.4724
   13MOL    C5211356   5.859   1.684   7.670 -0.5665 -0.0083  1.2149
   13MOL    C5311357   5.963   1.595   7.608  0.2188 -0.2261  1.2186
   13MOL    C5411358   6.026   1.493   7.702 -0.3677 -0.4837  0.5636
   13MOL    C5511359   6.127   1.418   7.619 -0.4350  0.3790 -0.3909
   13MOL    C5611360   6.230   1.332   7.704  0.6252  0.3492 -0.2344
   13MOL    C5711361   6.338   1.259   7.628 -0.3572 -0.9551 -0.4892
   13MOL    C5811362   6.447   1.348   7.571  0.4650  0.7115 -0.1509
   13MOL    C5911363   6.559   1.271   7.496 -0.3061 -0.6819  0.1682
   13MOL    O6011364   6.668   1.360   7.464 -0.1782  0.5897 -0.4452
   13MOL    C6111365   6.662   1.447   7.364  0.2543  0.2365  0.3038
   13MOL    O6211366   6.561   1.452   7.291 -0.5289 -0.4643  0.2255
   13MOL    C6311367   6.781   1.531   7.354 -0.4603 -0.0837  0.1811
   13MOL    C6411368   6.787   1.642   7.271  0.2001 -0.2736 -0.4791
   13MOL    C6511369   6.899   1.726   7.258 -0.3431  0.3642  0.0935
   13MOL    C6611370   7.020   1.695   7.324  0.8277 -0.5591  0.6063
   13MOL    C6711371   7.141   1.776   7.294 -0.1112 -0.7699  0.3822
   13MOL    O6811372   7.142   1.868   7.209 -0.2050 -0.0085 -0.6867
   13MOL    O6911373   7.253   1.737   7.362 -0.1591  0.1954  0.6679
   13MOL    C7011374   7.019   1.582   7.413  0.4053  1.1223  0.7363
   13MOL    C7111375   6.905   1.496   7.423  0.5630 -0.1589  0.3228
   13MOL    H7211376   5.941   1.948   7.614 -0.6096 -0.9718  1.7414
   13MOL    H7311377   5.832   1.984   7.481  0.4115 -0.4557  0.1088
   13MOL    H7411378   5.774   1.728   7.484 -1.8045 -1.6729  1.5397
   13MOL    H7511379   5.705   1.823   7.610 -0.2687  0.2190 -1.4113
   13MOL    H7611380   5.885   1.730   7.765  1.6935  1.9413 -0.2896
   13MOL    H7711381   5.774   1.621   7.694 -1.1241  0.5047  0.5839
   13MOL    H7811382   6.050   1.657   7.584  0.2159 -1.5198 -2.4938
   13MOL    H7911383   5.919   1.551   7.518  0.8701  1.1891  0.1917
   13MOL    H8011384   6.063   1.550   7.787  0.0095 -1.6272  1.1759
   13MOL    H8111385   5.952   1.426   7.747 -1.6811  1.1775  0.9390
   13MOL    H8211386   6.070   1.354   7.552 -0.4664 -1.3001  1.2159
   13MOL    H8311387   6.174   1.490   7.551 -1.5455  0.4298 -1.1240
   13MOL    H8411388   6.272   1.406   7.772  0.8840  0.7036 -0.7705
   13MOL    H8511389   6.167   1.262   7.759 -2.2299  2.4403 -0.6940
   13MOL    H8611390   6.393   1.188   7.690  0.8215  2.3821  2.4786
   13MOL    H8711391   6.300   1.186   7.557 -1.7967 -0.6451 -0.0422
   13MOL    H8811392   6.481   1.406   7.656 -0.0520 -1.2454  1.4325
   13MOL    H8911393   6.402   1.423   7.506 -1.2415 -1.2816 -1.3282
   13MOL    H9011394   6.516   1.222   7.409 -2.6064 -0.5205  1.1743
   13MOL    H9111395   6.593   1.185   7.555 -0.4291 -0.6001  0.3595
   13MOL    H9211396   6.698   1.665   7.215 -1.3344 -3.1229  0.7024
   13MOL    H9311397   6.900   1.813   7.194  2.1636  0.9606  0.8638
   13MOL    H9411398   7.108   1.563   7.472  0.8174  3.3079  0.8403
   13MOL    H9511399   6.918   1.406   7.482 -2.3228  0.1823  1.5469
   13MOL    O9611400   7.384   1.803   7.313  0.9049  0.0044 -0.1294
   13MOL    C9711401   7.451   1.718   7.216 -0.0056  0.5143  0.4777
   13MOL    C9811402   7.585   1.776   7.207 -0.1633 -0.3817 -0.4281
   13MOL    C9911403   7.667   1.755   7.078 -0.7058  0.0187  0.1635
   13MOL   C10011404   7.804   1.829   7.093 -0.5572  0.1925  0.4078
   13MOL   C10111405   7.907   1.807   6.982 -0.1639 -0.6604  0.5475
   13MOL   C10211406   7.862   1.882   6.861 -0.2887  0.2238  0.5304
   13MOL   C10311407   7.965   1.932   6.756  0.6788 -0.0320 -0.1393
   13MOL   C10411408   7.922   2.049   6.674  0.0252 -0.4957  0.2300
   13MOL   C10511409   0.055   2.113   6.591 -0.0829 -0.5154  0.3458
   13MOL   C10611410   0.026   2.247   6.516 -0.2953  0.4067  0.1746
   13MOL   O10711411   7.927   2.345   6.590 -0.7643  0.1906  0.0673
   13MOL   C10811412   0.029   2.453   6.650  0.7484  0.5991  0.0121
   13MOL   O10911413   0.142   2.481   6.612  0.2457 -0.1966 -0.5450
   13MOL   C11011414   7.929   2.522   6.754 -0.1597  0.5493 -0.8048
   13MOL   C11111415   7.963   2.654   6.791 -0.6617  0.9145  0.3129
   13MOL   C11211416   7.901   2.710   6.905  0.2424  0.8859 -0.4569
   13MOL   C11311417   7.795   2.640   6.970 -0.0912  0.3334 -0.8298
   13MOL   C11411418   7.721   2.701   7.086 -0.1134  0.3879  0.1098
   13MOL   O11511419   7.633   2.650   7.157 -0.7012  0.6727 -0.0343
   13MOL   O11611420   7.753   2.830   7.102  0.2696  0.1462  0.4259
   13MOL   C11711421   7.765   2.508   6.931 -0.0871 -0.2107 -0.6626
   13MOL   C11811422   7.833   2.448   6.824  0.4866  0.1428 -0.6959
   13MOL   H11911423   7.439   1.615   7.250  2.5397  0.3909  1.0908
   13MOL   H12011424   7.396   1.733   7.122  0.0552 -0.1192  0.3386
   13MOL   H12111425   7.641   1.714   7.278 -0.7971 -1.1820 -0.6191
   13MOL   H12211426   7.592   1.882   7.231 -0.9120 -0.4653  0.2017
   13MOL   H12311427   7.683   1.649   7.060 -0.5075  0.2787 -1.2309
   13MOL   H12411428   7.609   1.792   6.993 -0.4167 -1.4837 -0.7031
   13MOL   H12511429   7.844   1.799   7.190 -1.3695  0.7957  0.9373
   13MOL   H12611430   7.780   1.934   7.108 -0.6996  0.1870  0.2136
   13MOL   H12711431   0.020   1.851   7.022 -0.1794 -0.3265  0.2153
   13MOL   H12811432   7.928   1.700   6.972  3.5678 -0.0423  1.0888
   13MOL   H12911433   7.778   1.827   6.818  0.9460  0.4279 -2.1911
   13MOL   H13011434   7.822   1.976   6.900  1.7102  1.4339 -0.3026
   13MOL   H13111435   0.088   1.937   6.796 -0.0543 -1.3775  1.9450
   13MOL   H13211436   7.972   1.858   6.676 -0.1501 -0.3783  0.0981
   13MOL   H13311437   7.835   2.029   6.612  0.0022 -1.6774  0.6430
   13MOL   H13411438   7.894   2.129   6.743  3.2108 -0.3270  1.4214
   13MOL   H13511439   0.096   2.041   6.520  1.6676  0.3261  0.4830
   13MOL   H13611440   0.143   2.116   6.655 -0.2701 -0.3107  0.5996
   13MOL   H13711441   7.960   2.221   6.420  0.3706 -1.0447  0.2613
   13MOL   H13811442   0.128   2.273   6.489 -1.2337  3.8046 -0.3978
   13MOL   H13911443   0.063   2.705   6.735  0.6361  0.3272  1.5399
   13MOL   H14011444   7.933   2.806   6.944  0.2971  0.6504  0.0691
   13MOL   H14111445   7.700   2.444   6.988 -1.1277 -0.5153 -2.1751
   13MOL   H14211446   7.808   2.345   6.802 -0.1402  0.4552 -1.4921
   13MOL   O14311447   7.711   2.889   7.229  0.1616 -0.5451  0.0378
   13MOL   C14411448   7.827   2.898   7.318  0.5082 -0.1307  0.5174
   13MOL   C14511449   7.940   2.983   7.278 -0.5621  0.4252 -0.0819
   13MOL   C14611450   7.887   3.128   7.262  0.5386 -1.2144 -0.1200
   13MOL   C14711451   0.032   3.216   7.221 -0.8217 -0.9557 -0.7172
   13MOL   C14811452   7.970   3.347   7.145  0.0378 -0.6710  0.1253
   13MOL   C14911453   0.108   3.445   7.147 -0.8574 -0.4006  0.0078
   13MOL   C15011454   0.077   3.582   7.072 -0.2091  0.8102  0.5377
   13MOL   C15111455   7.969   3.672   7.151  0.4052 -0.0211  0.1484
   13MOL   C15211456   7.919   3.788   7.072  0.8760  0.0287  1.3670
   13MOL   C15311457   7.842   3.890   7.155 -0.3901  0.0650  1.2212
   13MOL   O15411458   7.719   3.846   7.204  0.4983  0.1836  0.3585
   13MOL   C15511459   7.608   3.864   7.130 -0.2488  0.0248  0.8290
   13MOL   O15611460   7.604   3.930   7.029 -0.0522 -0.2026  0.0467
   13MOL   C15711461   7.496   3.793   7.187  0.6980  0.3545 -1.0626
   13MOL   C15811462   7.509   3.690   7.290  0.4266  0.4436  0.2544
   13MOL   C15911463   7.395   3.619   7.337  0.6033  0.4764 -0.2100
   13MOL   C16011464   7.268   3.643   7.271 -0.4604  0.8645 -0.1643
   13MOL   C16111465   7.150   3.556   7.310  0.0625  0.2090  0.0739
   13MOL   O16211466   7.043   3.584   7.259  0.0985  0.3234  0.1589
   13MOL   O16311467   7.181   3.451   7.383 -0.6319 -0.1141 -0.5180
   13MOL   C16411468   7.261   3.737   7.173  0.0889 -0.9922  0.7477
   13MOL   C16511469   7.369   3.820   7.134  0.1084 -0.0042  0.3053
   13MOL   H16611470   7.795   2.929   7.417 -0.3241  1.5524 -0.2546
   13MOL   H16711471   7.853   2.792   7.329  1.9024 -0.0470 -1.5807
   13MOL   H16811472   7.977   2.939   7.185 -1.0878 -0.2650  0.0311
   13MOL   H16911473   0.045   2.975   7.347  0.3265 -0.3806 -1.2372
   13MOL   H17011474   7.822   3.138   7.175 -0.6079  1.6695  1.0051
   13MOL   H17111475   7.836   3.167   7.350  1.2752 -1.8042  0.5702
   13MOL   H17211476   0.104   3.159   7.162  0.7295  1.8347 -1.5932
   13MOL   H17311477   0.071   3.239   7.320 -1.1531 -1.7331 -0.3993
   13MOL   H17411478   7.946   3.317   7.043 -0.4991  0.9305 -0.2334
   13MOL   H17511479   7.872   3.384   7.175  0.3010  0.8489 -0.8723
   13MOL   H17611480   0.140   3.471   7.248  0.5885  1.3439 -0.8785
   13MOL   H17711481   0.194   3.401   7.097 -0.8710 -0.8925  0.4110
   13MOL   H17811482   0.168   3.628   7.035  0.7823 -2.1973 -0.9851
   13MOL   H17911483   0.010   3.556   6.990  1.0225 -0.6876 -0.0109
   13MOL   H18011484   7.885   3.622   7.199  0.7616 -0.4932  0.2833
   13MOL   H18111485   0.053   3.717   7.229  1.1491 -0.1337 -0.3703
   13MOL   H18211486   7.849   3.761   6.993  0.4765  0.6865  1.4922
   13MOL   H18311487   0.025   3.834   7.020 -0.0625 -1.2902 -1.3917
   13MOL   H18411488   7.824   3.979   7.095 -4.0113 -2.2026 -1.2604
   13MOL   H18511489   7.902   3.925   7.239 -0.2309 -0.3647  1.2877
   13MOL   H18611490   7.602   3.663   7.337 -0.6174 -0.8428  1.6294
   13MOL   H18711491   7.400   3.537   7.408  0.7219  1.3759  0.8261
   13MOL   H18811492   7.170   3.755   7.118  0.9301  4.0386  0.8129
   13MOL   H18911493   7.349   3.893   7.057  2.0422 -2.6843 -2.8839
   13MOL   O19011494   7.061   3.374   7.440 -0.9105 -0.1242 -0.2063
   13MOL   C19111495   7.020   3.441   7.553  0.5847  0.3070 -0.4689
   13MOL   C19211496   6.889   3.382   7.613  0.2191 -0.1146 -0.4847
   13MOL   C19311497   6.925   3.269   7.703  0.1306  0.4347 -0.2329
   13MOL   C19411498   6.966   3.147   7.617 -0.3669 -0.9882 -0.7027
   13MOL   C19511499   6.987   3.017   7.694 -0.1365 -0.6886  0.0563
   13MOL   C19611500   7.105   3.033   7.796 -0.6093  0.4939 -0.1123
   13MOL   C19711501   7.151   2.894   7.834  0.0243  0.2275  0.3490
   13MOL   C19811502   7.267   2.895   7.931  0.3021 -0.8557 -0.2131
   13MOL   C19911503   7.276   2.758   0.009  0.1788 -0.1560  0.0436
   13MOL   C20011504   7.401   2.732   0.093  0.6025  0.2838  0.3198
   13MOL   O20111505   7.518   2.742   0.004  0.4527 -0.4093 -0.0876
   13MOL   C20211506   7.639   2.742   0.068  0.2844  0.3174  0.1079
   13MOL   O20311507   7.656   2.755   0.189 -0.3221  0.7231 -0.2854
   13MOL   C20411508   7.748   2.718   7.953 -0.0353  0.4343 -0.3332
   13MOL   C20511509   7.870   2.675   0.030  0.2017  0.3303  0.1072
   13MOL   C20611510   0.005   2.660   7.921  0.2539 -0.1198 -0.0441
   13MOL   C20711511   7.970   2.670   7.783 -0.0382  1.1513  0.2534
   13MOL   C20811512   0.104   2.644   7.696  0.0720 -0.0771  0.3504
   13MOL   O20911513   0.094   2.635   7.574  0.4664  0.1341  0.2199
   13MOL   O21011514   0.223   2.630   7.762  0.2815 -0.4482  0.4257
   13MOL   C21111515   7.848   2.717   7.729 -0.1036  0.5602 -0.0043
   13MOL   C21211516   7.737   2.738   7.810 -0.6680 -0.9597  0.4941
   13MOL   H21311517   7.096   3.436   7.631 -0.0448 -0.1837  0.1347
   13MOL   H21411518   6.990   3.542   7.525 -0.2067  0.3183  0.3724
   13MOL   H21511519   6.805   3.353   7.551  0.1438  0.9743 -0.9021
   13MOL   H21611520   6.822   3.446   7.670  2.6522  0.8936  1.3406
   13MOL   H21711521   7.005   3.297   7.771 -0.8360  0.4266  0.9301
   13MOL   H21811522   6.838   3.238   7.762  2.0935 -1.1043  1.9166
   13MOL   H21911523   7.049   3.167   7.549  0.0925 -2.0611 -0.4584
   13MOL   H22011524   6.883   3.133   7.548 -2.2855  2.9025  0.6553
   13MOL   H22111525   6.896   2.989   7.746 -0.9358  1.9317  0.1291
   13MOL   H22211526   7.000   2.938   7.620  0.0604  1.0118 -1.7636
   13MOL   H22311527   7.191   3.084   7.752  0.9677  0.0196  2.2813
   13MOL   H22411528   7.080   3.081   7.891  1.5251 -0.5132  0.9987
   13MOL   H22511529   7.061   2.846   7.872  1.2525 -1.0881  1.6117
   13MOL   H22611530   7.170   2.830   7.748 -4.2288  1.0869 -1.3711
   13MOL   H22711531   7.353   2.924   7.871  0.5754 -0.3572  0.4154
   13MOL   H22811532   7.248   2.963   0.035  3.1689  0.8452 -0.8981
   13MOL   H22911533   7.287   2.682   7.910  0.8315 -1.4633  1.4130
   13MOL   H23011534   7.191   2.731   0.071 -0.1161  0.3716 -0.1208
   13MOL   H23111535   7.384   2.633   0.135  1.8828 -0.2063 -0.2720
   13MOL   H23211536   7.399   2.803   0.175  1.6179  0.9062 -0.1761
   13MOL   H23311537   7.885   2.652   0.134  0.8214 -2.2682 -0.5297
   13MOL   H23411538   0.097   2.621   7.960  0.5724 -0.7009 -1.3487
   13MOL   H23511539   7.842   2.747   7.625  2.2492 -1.0715 -0.6260
   13MOL   H23611540   7.650   2.781   7.763 -0.8699  0.0189  1.7450
   13MOL   O23711541   0.335   2.578   7.671  0.5200 -0.2123 -0.6068
   13MOL   C23811542   0.425   2.682   7.636 -0.2619 -0.0863 -0.5088
   13MOL   C23911543   0.564   2.626   7.594 -0.8969 -0.4551 -0.6700
   13MOL   C24011544   0.662   2.590   7.708 -0.2097 -0.3293  0.3214
   13MOL   C24111545   0.622   2.472   7.800  0.2302 -0.3263 -0.6453
   13MOL   C24211546   0.729   2.462   7.918 -0.7794  0.2894 -0.0974
   13MOL   C24311547   0.703   2.331   0.022  0.4340  0.0214  0.3595
   13MOL   C24411548   0.738   2.352   0.170 -0.0029 -0.2581  0.3693
   13MOL   C24511549   0.741   2.223   0.254 -0.5248 -0.1165  0.2067
   13MOL   C24611550   0.776   2.253   0.400  0.0124 -0.2255  1.2626
   13MOL   C24711551   0.809   2.121   0.468  0.3009  0.5322 -0.5266
   13MOL   O24811552   0.694   2.039   0.467  0.2654 -0.1009 -0.2523
   13MOL   C24911553   0.611   2.031   0.576  0.5866  0.2417 -0.2068
   13MOL   O25011554   0.624   2.085   0.686  0.2759  0.1328  0.6084
   13MOL   C25111555   0.489   1.953   0.538 -1.1838 -0.2737  0.1469
   13MOL   C25211556   0.481   1.852   0.442  0.0564 -0.7931 -0.4161
   13MOL   C25311557   0.366   1.786   0.402 -0.2966 -0.3655 -0.0197
   13MOL   C25411558   0.242   1.812   0.467 -0.1414  0.1909  0.3776
   13MOL   C25511559   0.117   1.750   0.426  0.4505 -0.1219 -0.1739
   13MOL   O25611560   0.113   1.637   0.378 -0.1943  0.4415 -0.2740
   13MOL   O25711561   0.006   1.817   0.463  0.3490  0.1130 -0.0472
   13MOL   C25811562   0.246   1.912   0.564 -0.2701  0.2175  0.1462
   13MOL   C25911563   0.365   1.979   0.596 -0.9956 -0.0292  0.5806
   13MOL   H26011564   0.384   2.753   7.565 -1.7274 -0.8566 -0.4680
   13MOL   H26111565   0.445   2.750   7.719  2.4278 -2.6106  1.0139
   13MOL   H26211566   0.615   2.698   7.531  0.8343 -2.4988 -1.6884
   13MOL   H26311567   0.560   2.537   7.531 -2.4627 -1.7211  1.1247
   13MOL   H26411568   0.761   2.582   7.662 -0.6368  0.9371 -0.8570
   13MOL   H26511569   0.660   2.674   7.777 -5.6667  0.2691 -0.3664
   13MOL   H26611570   0.620   2.379   7.742 -2.8665 -0.5238 -0.3185
   13MOL   H26711571   0.522   2.495   7.835  1.0174 -0.4584  1.7486
   13MOL   H26811572   0.832   2.463   7.883 -0.0757 -1.3782  1.8395
   13MOL   H26911573   0.724   2.548   0.007  0.9880  0.8414 -0.6437
   13MOL   H27011574   0.602   2.294   0.004 -0.0645  1.2312  0.6421
   13MOL   H27111575   0.763   2.248   7.962 -0.8052  0.5738 -2.9869
   13MOL   H27211576   0.842   2.380   0.157 -0.0033 -0.5777 -0.3510
   13MOL   H27311577   0.693   2.441   0.215 -0.7371 -0.5629  0.2440
   13MOL   H27411578   0.642   2.178   0.246 -1.2147  0.8619  2.7084
   13MOL   H27511579   0.814   2.150   0.221 -2.1392 -1.1908 -1.0450
   13MOL   H27611580   0.689   2.294   0.450 -1.1422  0.2742 -1.1154
   13MOL   H27711581   0.860   2.321   0.410  1.9030 -2.5047  1.4406
   13MOL   H27811582   0.847   2.134   0.570  1.8851 -0.7453 -0.9456
   13MOL   H27911583   0.883   2.063   0.414 -0.7952 -0.1238 -1.3321
   13MOL   H28011584   0.569   1.822   0.386 -0.4261  0.9245 -2.1494
   13MOL   H28111585   0.373   1.710   0.325  1.8229  0.3163 -0.5098
   13MOL   H28211586   0.157   1.942   0.618 -0.3579  1.3219 -0.5986
   13MOL   H28311587   0.360   2.052   0.675  0.9906  0.7084  0.0557
   13MOL   O28411588   7.857   1.743   0.451  0.1160  0.6565  0.1534
   13MOL   C28511589   7.816   1.720   0.586  0.3134  0.6113 -0.3796
   13MOL   C28611590   7.678   1.645   0.586  0.1508 -0.2945 -0.4506
   13MOL   C28711591   7.618   1.612   0.722  0.0647  0.7492 -0.0929
   13MOL   C28811592   7.480   1.532   0.723  0.2642  0.0630  0.0196
   13MOL   C28911593   7.400   1.551   0.851 -0.6732  0.7265 -0.0274
   13MOL   C29011594   7.243   1.557   0.845 -0.2833 -0.2356  0.8046
   13MOL   C29111595   7.175   1.423   0.808 -0.3590  0.4988  0.2918
   13MOL   C29211596   7.024   1.426   0.841  0.4667  0.0406 -0.8886
   13MOL   C29311597   6.966   1.284   0.799 -0.1643 -0.0627 -0.3596
   13MOL   C29411598   6.818   1.256   0.848  0.2851  0.0088 -0.3302
   13MOL   O29511599   6.776   1.122   0.834 -0.3706  0.1803  0.0494
   13MOL   C29611600   6.649   1.091   0.831 -0.1095 -0.1299  0.5961
   13MOL   O29711601   6.555   1.168   0.802  0.1537 -0.0482  0.3385
   13MOL   C29811602   6.623   0.947   0.857  0.0952  0.3014 -0.2025
   13MOL   C29911603   6.722   0.849   0.887 -0.2213 -0.0896  0.5106
   13MOL   C30011604   6.685   0.716   0.911 -0.0590 -0.2595  0.0463
   13MOL   C30111605   6.547   0.685   0.922  0.6125 -0.7714  0.2252
   13MOL   C30211606   6.501   0.554   0.965 -0.3869 -0.2178  0.7707
   13MOL   O30311607   6.397   0.540   1.036 -0.2729 -0.3033  0.1026
   13MOL   O30411608   6.583   0.461   0.930  0.5908 -0.6817  0.0138
   13MOL   C30511609   6.450   0.778   0.889  0.2839 -0.4742 -0.6083
   13MOL   C30611610   6.488   0.910   0.864  0.5968  0.8846 -0.2642
   13MOL   H30711611   7.895   1.652   0.619 -2.5829 -1.5087  2.4607
   13MOL   H30811612   7.816   1.811   0.647  0.0790  0.1088  0.3693
   13MOL   H30911613   7.679   1.546   0.540 -2.0636  0.2393 -1.7219
   13MOL   H31011614   7.607   1.708   0.533 -0.5260  0.7921  1.6780
   13MOL   H31111615   7.692   1.547   0.769 -0.5015 -0.1484 -0.4287
   13MOL   H31211616   7.615   1.705   0.780  2.5092  2.3830 -2.4599
   13MOL   H31311617   7.499   1.425   0.719  0.9435  0.1517  0.9006
   13MOL   H31411618   7.411   1.555   0.642  0.1942  1.4715  0.4643
   13MOL   H31511619   7.427   1.466   0.914 -0.2033 -0.7904 -2.2013
   13MOL   H31611620   7.431   1.642   0.902  1.4778 -0.6701  1.2440
   13MOL   H31711621   7.207   1.605   0.936  1.0860 -0.2848  1.3827
   13MOL   H31811622   7.219   1.630   0.768  0.5259 -1.4096 -0.5695
   13MOL   H31911623   7.196   1.399   0.704  0.0254  0.6451  0.3378
   13MOL   H32011624   7.219   1.341   0.865 -0.1845  2.1728  2.6170
   13MOL   H32111625   7.019   1.439   0.950 -0.6234  0.5434 -0.9890
   13MOL   H32211626   6.970   1.505   0.788  2.7207  1.6622 -0.8872
   13MOL   H32311627   7.033   1.212   0.846 -1.3905  0.0576  1.6708
   13MOL   H32411628   6.973   1.264   0.693  1.1345 -2.9555  0.2483
   13MOL   H32511629   6.747   1.326   0.803  0.7943  1.7560  1.5202
   13MOL   H32611630   6.818   1.285   0.953  0.8602 -1.5632  0.1250
   13MOL   H32711631   6.829   0.858   0.873 -0.2165 -0.4454  0.3103
   13MOL   H32811632   6.764   0.645   0.929  0.0112 -0.2779 -0.3297
   13MOL   H32911633   6.345   0.752   0.899 -0.8663  3.5375 -1.0988
   13MOL   H33011634   6.413   0.980   0.833  1.2460  1.0918 -1.4116
   13MOL   O33111635   6.571   0.335   1.007 -0.2880 -0.2294 -0.3755
   13MOL   C33211636   6.477   0.258   0.934  0.2613  0.0770  0.3643
   13MOL   C33311637   6.499   0.103   0.951 -0.3212 -0.1626  1.0371
   13MOL   C33411638   6.644   0.046   0.935  0.5244  0.0835 -0.3279
   13MOL   C33511639   6.667   7.875   0.967  0.0014 -0.4911  0.5008
   13MOL   C33611640   6.809   7.835   0.920  0.7442 -0.3992 -0.1033
   13MOL   C33711641   6.919   7.873   1.018 -0.6843 -0.1563 -0.1725
   13MOL   C33811642   7.068   7.849   0.971 -0.6886 -0.4322 -0.0322
   13MOL   C33911643   7.176   7.850   1.086  0.2256 -0.8913 -0.2902
   13MOL   C34011644   7.171   7.974   1.173 -0.5610 -0.3771  1.1126
   13MOL   C34111645   7.216   0.130   1.112 -0.3963  0.1731 -0.0502
   13MOL   O34211646   7.131   0.181   1.010 -0.1342 -0.4340 -0.3238
   13MOL   C34311647   7.158   0.305   0.971 -0.3805  0.2414 -0.5987
   13MOL   O34411648   7.268   0.356   0.995  0.4989 -0.0788  0.1456
   13MOL   C34511649   7.053   0.367   0.892  0.8959 -0.5612 -0.6050
   13MOL   C34611650   7.074   0.499   0.845  0.6065 -0.6264 -0.0860
   13MOL   C34711651   6.987   0.558   0.752 -0.5707 -0.7823  0.3027
   13MOL   C34811652   6.868   0.494   0.715  0.3105  0.2301 -0.3523
   13MOL   C34911653   6.782   0.556   0.614 -0.2396 -0.1008  0.1862
   13MOL   O35011654   6.659   0.558   0.613  0.2714  0.2254  0.0556
   13MOL   O35111655   6.853   0.614   0.521 -0.5584  0.4009  0.1062
   13MOL   C35211656   6.835   0.364   0.775  0.1340  0.2138 -0.3691
   13MOL   C35311657   6.932   0.303   0.857 -0.2562 -0.0263 -0.6310
   13MOL   H35411658   6.374   0.280   0.963  0.4942  0.0131  1.2554
   13MOL   H35511659   6.481   0.278   0.827 -3.0622  0.2506  0.1931
   13MOL   H35611660   6.428   0.053   0.886 -1.2516  1.0774  1.0837
   13MOL   H35711661   6.468   0.077   1.052  0.5173  1.3888  1.7164
   13MOL   H35811662   6.668   0.065   0.830  1.3122  0.2516 -0.1155
   13MOL   H35911663   6.704   0.105   1.004 -0.0313 -1.8115  1.8198
   13MOL   H36011664   6.596   7.820   0.906 -0.2062  0.2324  0.0833
   13MOL   H36111665   6.647   7.847   1.070  0.4464  0.7677  0.9389
   13MOL   H36211666   6.810   7.735   0.878  0.5228 -0.4569  0.0283
   13MOL   H36311667   6.840   7.889   0.830 -1.6789 -1.3761 -1.5674
   13MOL   H36411668   6.905   0.002   1.034 -0.4161 -0.1634  0.1061
   13MOL   H36511669   6.906   7.830   1.117  4.2494 -2.0854 -0.2395
   13MOL   H36611670   7.080   7.750   0.925 -1.1494  1.1736 -3.7375
   13MOL   H36711671   7.105   7.913   0.891 -0.7913 -0.1834  0.1192
   13MOL   H36811672   7.158   7.764   1.150 -0.0286 -0.2522  0.4987
   13MOL   H36911673   7.276   7.843   1.043 -0.2766 -0.3569 -1.5831
   13MOL   H37011674   7.249   7.971   1.248 -0.0978  1.4365  0.7332
   13MOL   H37111675   7.071   0.012   1.215 -0.5013 -0.6738  1.3710
   13MOL   H37211676   7.316   0.111   1.072  0.3499  0.4550  1.6087
   13MOL   H37311677   7.227   0.207   1.188  1.0607  0.1601 -0.2303
   13MOL   H37411678   7.164   0.549   0.877 -0.3344 -0.2661  2.0391
   13MOL   H37511679   7.013   0.650   0.701 -0.9307 -0.0871  1.3503
   13MOL   H37611680   6.746   0.315   0.741 -1.2876  2.7075 -0.3491
   13MOL   H37711681   6.903   0.207   0.898  0.1410 -0.8898 -2.3422
   13MOL   O37811682   6.780   0.726   0.447 -0.5971 -0.0449  0.4883
   13MOL   C37911683   6.854   0.847   0.467  0.2807 -0.0700  0.2848
   13MOL   C38011684   6.783   0.970   0.418  0.0965 -0.1127  0.2303
   13MOL   C38111685   6.867   1.103   0.433 -0.2570 -0.4982 -0.1366
   13MOL   C38211686   6.786   1.228   0.409  0.1044  0.0708  0.1501
   13MOL   C38311687   6.876   1.349   0.430 -0.0090  0.0031 -0.5224
   13MOL   C38411688   6.794   1.464   0.486  0.3924  0.2438 -0.1492
   13MOL   C38511689   6.883   1.582   0.509 -0.0328 -0.1013 -0.1899
   13MOL   C38611690   6.810   1.695   0.579 -0.3457  0.0783  0.3615
   13MOL   C38711691   6.909   1.810   0.605 -0.0088  0.0317 -0.1054
   13MOL   C38811692   6.860   1.930   0.680  0.0236 -0.1020 -0.2098
   13MOL   O38911693   6.978   2.002   0.710 -0.7374 -0.3057  0.4029
   13MOL   C39011694   6.980   2.132   0.759 -0.7983 -0.0096  0.6062
   13MOL   O39111695   6.886   2.196   0.806 -0.1970  0.2792  0.2665
   13MOL   C39211696   7.115   2.193   0.744  0.0139  0.0412 -0.2839
   13MOL   C39311697   7.121   2.335   0.743 -1.1282  0.9838  0.0044
   13MOL   C39411698   7.249   2.398   0.751  0.4002  0.2263  0.2799
   13MOL   C39511699   7.367   2.322   0.763  0.7460  0.6837 -0.1331
   13MOL   C39611700   7.496   2.378   0.798  0.6593 -0.5795  0.2958
   13MOL   O39711701   7.595   2.308   0.818 -0.0339 -0.1413 -0.4295
   13MOL   O39811702   7.494   2.512   0.806  0.0025  0.0269 -0.1224
   13MOL   C39911703   7.361   2.177   0.760  0.2261 -0.0326 -0.6197
   13MOL   C40011704   7.236   2.113   0.752  0.3777 -1.2697 -0.7733
   13MOL   H40111705   6.884   0.869   0.569  0.3730  1.6057 -0.0949
   13MOL   H40211706   6.944   0.844   0.405 -0.1857  1.2507 -0.4893
   13MOL   H40311707   6.690   0.977   0.474 -0.6330 -2.3950 -0.6052
   13MOL   H40411708   6.753   0.957   0.314  1.5634 -0.2774 -0.1759
   13MOL   H40511709   6.898   1.105   0.537 -1.0682 -0.8483  0.1156
   13MOL   H40611710   6.956   1.112   0.371  0.5884  0.9980  1.2770
   13MOL   H40711711   6.701   1.231   0.477 -0.9929 -2.6001 -1.0241
   13MOL   H40811712   6.749   1.220   0.306 -1.0138 -0.3408  0.5758
   13MOL   H40911713   6.962   1.335   0.495 -0.2385  3.4460  0.6117
   13MOL   H41011714   6.923   1.369   0.333 -1.8310  3.3708 -0.8032
   13MOL   H41111715   6.702   1.483   0.430 -0.1404 -1.2256  0.2029
   13MOL   H41211716   6.758   1.431   0.584 -0.1195  0.1466 -0.3681
   13MOL   H41311717   6.972   1.545   0.562 -0.0837 -0.1474 -0.1364
   13MOL   H41411718   6.920   1.611   0.411  1.8886  0.5492  0.6873
   13MOL   H41511719   6.722   1.722   0.521 -0.5920  1.7109  1.4705
   13MOL   H41611720   6.770   1.663   0.676  0.5986 -1.3829  0.2870
   13MOL   H41711721   6.959   1.843   0.514  0.3014 -1.1780 -0.3798
   13MOL   H41811722   6.993   1.773   0.663  0.1770  1.8603  0.8333
   13MOL   H41911723   6.821   1.896   0.776 -2.0119  2.3305 -0.1095
   13MOL   H42011724   6.785   1.993   0.632 -0.7998 -1.3030 -0.5188
   13MOL   H42111725   7.033   2.396   0.752 -1.3408  0.1490  5.1581
   13MOL   H42211726   7.245   2.505   0.760 -2.4892  0.4003 -2.3877
   13MOL   H42311727   7.454   2.122   0.762  0.3517  0.2290  2.3938
   13MOL   H42411728   7.236   2.005   0.748  0.0995 -1.3346  0.7730
   13MOL   O42511729   7.627   2.575   0.844  0.5407  0.0111 -0.2123
   13MOL   C42611730   7.611   2.608   0.980  0.1450  0.2199 -0.1466
   13MOL   C42711731   7.755   2.659   1.024  0.6153 -0.1557 -0.7506
   13MOL   C42811732   7.759   2.704   1.167 -0.4087 -0.4896 -0.1586
   13MOL   C42911733   7.898   2.755   1.218 -0.1638 -0.0177 -0.2982
   13MOL   C43011734   7.898   2.812   1.360  0.3310  0.4083 -0.0762
   13MOL   C43111735   0.053   2.871   1.407 -0.0013 -0.2032 -0.5139
   13MOL   C43211736   0.164   2.769   1.424  0.6777  0.4195 -0.6254
   13MOL   C43311737   0.292   2.807   1.509 -0.1052 -0.0014  0.0487
   13MOL   C43411738   0.364   2.935   1.462  0.3613 -0.3320 -0.0858
   13MOL   C43511739   0.486   2.918   1.367 -0.3148 -0.0903 -0.2907
   13MOL   O43611740   0.445   2.831   1.261  0.3724 -0.5147 -0.0706
   13MOL   C43711741   0.488   2.704   1.252  0.0137 -0.0928  0.5205
   13MOL   O43811742   0.571   2.655   1.331 -0.0827 -1.2786  0.8180
   13MOL   C43911743   0.411   2.626   1.154 -0.1455 -0.1453 -0.3169
   13MOL   C44011744   0.294   2.683   1.100 -0.0049  0.0727  0.0160
   13MOL   C44111745   0.224   2.618   0.998  0.9372 -1.0545  0.7936
   13MOL   C44211746   0.278   2.497   0.942 -0.1017 -0.1688  0.1492
   13MOL   C44311747   0.221   2.424   0.830  0.3471 -0.8473 -0.6372
   13MOL   O44411748   0.270   2.322   0.780 -0.0336 -0.0348 -0.2975
   13MOL   O44511749   0.107   2.477   0.777 -0.4470 -0.4303 -0.7518
   13MOL   C44611750   0.395   2.435   1.003  0.8394 -0.2101 -0.8084
   13MOL   C44711751   0.457   2.502   1.113  0.0098  0.6901 -0.2041
   13MOL   H44811752   7.529   2.680   0.982  1.0213  1.2255  0.3520
   13MOL   H44911753   7.590   2.514   1.031  0.1227  0.6172  0.5764
   13MOL   H45011754   7.783   2.739   0.956 -0.7462 -0.0731 -1.2374
   13MOL   H45111755   7.823   2.577   0.999  0.1431 -1.0375  0.8052
   13MOL   H45211756   7.692   2.789   1.177  2.3230  1.5887  1.2194
   13MOL   H45311757   7.719   2.629   1.235  0.8440 -0.6230  0.4407
   13MOL   H45411758   7.937   2.833   1.153  1.3188 -1.2727 -0.9510
   13MOL   H45511759   0.003   2.685   1.213 -0.1721  0.0434 -1.2363
   13MOL   H45611760   7.817   2.882   1.381  1.2303  0.4643  3.5313
   13MOL   H45711761   7.873   2.730   1.428  2.5214  0.3591  0.7094
   13MOL   H45811762   0.076   2.954   1.339 -4.3039  0.1517 -1.6893
   13MOL   H45911763   0.038   2.926   1.499  0.1451  0.8126 -1.0796
   13MOL   H46011764   0.132   2.677   1.474 -2.4798  1.5939 -0.3622
   13MOL   H46111765   0.191   2.728   1.327  0.4455  2.4706 -1.5811
   13MOL   H46211766   0.245   2.837   1.602 -1.0726  1.1683 -0.7970
   13MOL   H46311767   0.358   2.721   1.520  0.3653  0.1881 -1.1756
   13MOL   H46411768   0.396   3.001   1.543  0.6549  1.1835 -1.4156
   13MOL   H46511769   0.300   3.003   1.406  2.6649  0.9616 -1.2126
   13MOL   H46611770   0.568   2.880   1.429  1.8873  1.1517 -2.3510
   13MOL   H46711771   0.514   3.018   1.332  0.9820  0.2982  1.6897
   13MOL   H46811772   0.249   2.774   1.136  1.1657  0.8929 -0.5927
   13MOL   H46911773   0.142   2.675   0.955  2.4427  0.8973  0.4321
   13MOL   H47011774   0.446   2.348   0.963  0.0767 -0.4553 -1.2713
   13MOL   H47111775   0.533   2.450   1.168 -0.1946 -0.0018 -0.5563
   13MOL   O47211776   0.037   2.388   0.674 -0.2894 -0.3345  0.0066
   13MOL   C47311777   7.914   2.318   0.742 -0.4294  0.7715  0.1255
   13MOL   C47411778   7.966   2.175   0.771 -0.5075 -0.8166 -0.2402
   13MOL   C47511779   7.855   2.085   0.839 -0.1690  0.2164  1.1849
   13MOL   C47611780   7.913   1.972   0.925  0.6549 -0.0969  0.0992
   13MOL   C47711781   7.805   1.877   0.967 -0.0056  0.4928  0.1347
   13MOL   C47811782   7.853   1.766   1.063 -0.0465  0.3907  0.2951
   13MOL   C47911783   7.747   1.663   1.108 -0.2782  0.4227  0.3257
   13MOL   C48011784   7.644   1.724   1.209 -0.2337  0.5633 -0.1515
   13MOL   C48111785   7.568   1.615   1.296  0.0653  0.2683 -0.0556
   13MOL   C48211786   7.465   1.669   1.385  0.2943  0.4792 -0.2500
   13MOL   O48311787   7.515   1.770   1.476 -0.1131 -0.2260 -0.5957
   13MOL   C48411788   7.514   1.756   1.604  0.3534 -0.0307  0.6851
   13MOL   O48511789   7.474   1.661   1.664 -0.0820  0.4961  0.5166
   13MOL   C48611790   7.579   1.871   1.681  0.6886  0.2882 -0.3781
   13MOL   C48711791   7.573   1.871   1.822  0.0252  0.4307  0.3239
   13MOL   C48811792   7.651   1.956   1.898 -0.3858 -0.5497 -0.5618
   13MOL   C48911793   7.731   2.048   1.832 -0.1709  0.0054  0.0221
   13MOL   C49011794   7.823   2.137   1.911  0.0941 -0.2861  0.5594
   13MOL   O49111795   7.800   2.171   2.023 -0.6431  0.4637  0.4665
   13MOL   O49211796   7.933   2.174   1.840  0.2274 -1.0083  0.3506
   13MOL   C49311797   7.731   2.052   1.690  0.0852 -0.2541  0.2189
   13MOL   C49411798   7.651   1.967   1.612  0.3142  0.3125 -0.5799
   13MOL   H49511799   7.878   2.374   0.828  1.8733  2.5317 -0.0133
   13MOL   H49611800   7.836   2.315   0.666 -0.5400  2.9338  0.1205
   13MOL   H49711801   0.060   2.174   0.853 -1.8275  0.3025  0.9693
   13MOL   H49811802   0.037   2.140   0.681 -1.3096  2.4010 -2.0026
   13MOL   H49911803   7.787   2.146   0.898 -1.2556  0.4497 -0.2748
   13MOL   H50011804   7.783   2.059   0.761 -2.3610  2.3367  2.4280
   13MOL   H50111805   7.950   2.014   1.018  2.1905 -0.5846 -0.2820
   13MOL   H50211806   0.002   1.913   0.862 -1.4311  0.2753 -2.5759
   13MOL   H50311807   7.717   1.924   1.011 -1.5015 -1.1307 -1.0570
   13MOL   H50411808   7.772   1.829   0.875  0.5272 -2.5178  1.4604
   13MOL   H50511809   7.925   1.697   1.020  0.8271  1.6889 -0.3751
   13MOL   H50611810   7.899   1.810   1.152 -1.2914  0.2693  1.0134
   13MOL   H50711811   7.708   1.607   1.023  0.3158 -1.3796  1.2165
   13MOL   H50811812   7.808   1.588   1.158 -1.5581 -1.2804 -0.6017
   13MOL   H50911813   7.692   1.809   1.257  0.4161 -1.4722  2.9447
   13MOL   H51011814   7.564   1.769   1.150 -0.8639 -0.5154 -0.1300
   13MOL   H51111815   7.641   1.553   1.350 -0.8155  0.0495  0.9018
   13MOL   H51211816   7.519   1.546   1.228 -0.5370  0.9000 -0.2565
   13MOL   H51311817   7.433   1.581   1.442  3.3161 -0.4248  0.1512
   13MOL   H51411818   7.385   1.722   1.334  0.7788  2.4423  0.9795
   13MOL   H51511819   7.512   1.799   1.874 -0.9290 -0.4240 -1.9270
   13MOL   H51611820   7.645   1.959   2.006 -0.8814 -1.6805 -0.5609
   13MOL   H51711821   7.796   2.118   1.635 -0.0236 -0.6081 -0.3441
   13MOL   H51811822   7.658   1.970   1.505  4.3659 -1.2962 -0.4523
   13MOL   O51911823   0.027   2.294   1.896 -0.3659  0.6495 -0.2551
   13MOL   C52011824   0.141   2.256   1.979 -0.6505 -0.0328 -0.4247
   13MOL   C52111825   0.245   2.171   1.906  0.2388  0.2748  0.4003
   13MOL   C52211826   0.261   2.037   1.985  0.4521  0.0993  0.0909
   13MOL   C52311827   0.356   1.931   1.926  0.3922 -0.3709  0.1129
   13MOL   C52411828   0.337   1.795   1.999  0.1309  0.1544  0.8420
   13MOL   C52511829   0.369   1.673   1.902 -0.5184  0.2298 -0.3119
   13MOL   C52611830   0.518   1.676   1.862  0.5492  0.9589 -0.6864
   13MOL   C52711831   0.575   1.547   1.799 -0.9418 -0.4192  0.7346
   13MOL   C52811832   0.713   1.558   1.738 -0.1486  0.0936  0.9528
   13MOL   C52911833   0.707   1.621   1.585  0.3725  0.5574 -0.7555
   13MOL   O53011834   0.657   1.752   1.590  0.1712 -0.1119  0.2039
   13MOL   C53111835   0.734   1.850   1.640 -0.6383 -0.7404  0.6758
   13MOL   O53211836   0.848   1.824   1.673  0.5816 -0.2901 -0.5337
   13MOL   C53311837   0.677   1.989   1.631 -0.3577  0.5652  0.0905
   13MOL   C53411838   0.767   2.095   1.636  0.1746 -0.3728 -0.0228
   13MOL   C53511839   0.714   2.225   1.627 -0.4643 -0.0516  0.3442
   13MOL   C53611840   0.575   2.250   1.622 -0.4231 -0.1820  0.8769
   13MOL   C53711841   0.521   2.392   1.619 -0.1332 -0.2632  0.6814
   13MOL   O53811842   0.399   2.415   1.597 -0.2610  0.1897  0.0568
   13MOL   O53911843   0.604   2.488   1.663  0.7876  0.8169 -0.2615
   13MOL   C54011844   0.486   2.146   1.628 -0.4514  0.7301 -0.3818
   13MOL   C54111845   0.537   2.015   1.635  0.4150  0.4152  0.2253
   13MOL   H54211846   0.186   2.342   2.029  0.8202 -0.8282 -0.3768
   13MOL   H54311847   0.103   2.195   2.061  0.4812 -0.5981 -0.3211
   13MOL   H54411848   0.345   2.210   1.892  0.3950  0.5302  2.1002
   13MOL   H54511849   0.220   2.142   1.804  1.4006  0.7059 -0.0131
   13MOL   H54611850   0.284   2.052   2.090  0.2467 -2.9116  0.6158
   13MOL   H54711851   0.161   1.995   1.984  1.0370 -1.4069  1.9849
   13MOL   H54811852   0.458   1.970   1.924  0.0423  0.5168 -0.3637
   13MOL   H54911853   0.325   1.920   1.822  1.2345  1.7389 -0.3844
   13MOL   H55011854   0.398   1.783   2.088  1.7241  1.2579 -0.0693
   13MOL   H55111855   0.233   1.782   2.029 -0.5446  0.8496 -1.1191
   13MOL   H55211856   0.354   1.576   1.949  3.9040 -0.2723  0.2833
   13MOL   H55311857   0.312   1.661   1.810  1.4188  0.4558 -1.5530
   13MOL   H55411858   0.514   1.752   1.783  0.4868  1.6575 -0.0157
   13MOL   H55511859   0.577   1.707   1.948 -0.5472  0.9279  0.0835
   13MOL   H55611860   0.587   1.468   1.874 -0.0586 -2.8079 -1.8565
   13MOL   H55711861   0.508   1.507   1.723 -0.5167  3.2713 -1.6865
   13MOL   H55811862   0.757   1.458   1.733  2.4759  1.2932 -3.7662
   13MOL   H55911863   0.773   1.619   1.804 -1.2008  1.2657  0.8259
   13MOL   H56011864   0.654   1.554   1.518 -3.2300  0.7375  1.7578
   13MOL   H56111865   0.805   1.626   1.539  1.2108  1.5924  1.0841
   13MOL   H56211866   0.873   2.077   1.639  0.5417  0.6047 -3.6710
   13MOL   H56311867   0.788   2.304   1.623 -0.5718 -0.0359 -2.3894
   13MOL   H56411868   0.378   2.156   1.631 -0.5351 -0.0250 -0.7913
   13MOL   H56511869   0.469   1.933   1.653  0.6720  0.4513  1.3841
   13MOL   O56611870   0.535   2.618   1.693  0.4810 -0.3159  0.6650
   13MOL   C56711871   0.535   2.642   1.828 -0.2358  0.5655 -0.3008
   13MOL   C56811872   0.486   2.527   1.921 -0.1887 -0.0631  0.5134
   13MOL   C56911873   0.412   2.569   2.052 -0.3006 -0.2740  0.4796
   13MOL   C57011874   0.474   2.509   2.178  0.0592  0.9019 -0.2713
   13MOL   C57111875   0.441   2.356   2.188  0.8391 -0.1405  0.1886
   13MOL   C57211876   0.489   2.306   2.328  0.6890 -0.1639  0.0905
   13MOL   C57311877   0.427   2.173   2.359 -0.0191 -0.0266  0.8921
   13MOL   C57411878   0.460   2.113   2.492 -0.1467 -0.0516  0.4809
   13MOL   C57511879   0.374   1.991   2.527 -0.3558  0.2917 -0.3979
   13MOL   C57611880   0.422   1.913   2.653 -0.5362  0.6533 -0.9946
   13MOL   O57711881   0.354   1.793   2.658  0.2929 -0.2943 -0.5167
   13MOL   C57811882   0.392   1.701   2.746 -0.0709 -0.2696  0.4097
   13MOL   O57911883   0.487   1.710   2.827  0.4991 -0.4428 -0.4674
   13MOL   C58011884   0.290   1.589   2.751 -0.1530  0.0232 -0.3428
   13MOL   C58111885   0.182   1.578   2.663 -0.0976 -0.3890  0.0691
   13MOL   C58211886   0.088   1.476   2.677  1.3722 -0.0189 -0.8334
   13MOL   C58311887   0.101   1.379   2.780 -0.1729  0.4205 -0.1842
   13MOL   C58411888   7.973   1.273   2.790 -0.0644 -0.5846  0.2160
   13MOL   O58511889   7.892   1.255   2.700 -0.2608  0.1026 -0.4453
   13MOL   O58611890   0.006   1.198   2.898 -0.6472  0.4189 -0.2958
   13MOL   C58711891   0.200   1.402   2.876 -0.3639  0.2088 -0.2554
   13MOL   C58811892   0.303   1.496   2.860  0.3017 -0.4806  0.3032
   13MOL   H58911893   0.642   2.652   1.847 -0.1244  2.9070 -1.9425
   13MOL   H59011894   0.480   2.732   1.854 -0.5436 -0.2107  1.7853
   13MOL   H59111895   0.572   2.463   1.938 -1.1040 -0.9625  1.9218
   13MOL   H59211896   0.404   2.475   1.870 -1.3900  1.5925  0.7225
   13MOL   H59311897   0.397   2.677   2.058 -1.3005 -0.1598 -2.9832
   13MOL   H59411898   0.310   2.530   2.050 -0.7208  0.8322 -0.9343
   13MOL   H59511899   0.433   2.559   2.265  1.4109  3.2838 -0.9524
   13MOL   H59611900   0.582   2.526   2.178  0.6219 -2.4233 -1.1977
   13MOL   H59711901   0.333   2.339   2.184  1.1431 -1.9103 -1.2148
   13MOL   H59811902   0.488   2.303   2.105  0.2835  1.7877 -1.4023
   13MOL   H59911903   0.597   2.304   2.336  0.6812 -2.2200  0.0705
   13MOL   H60011904   0.460   2.362   2.417 -0.2116  2.0556 -1.5594
   13MOL   H60111905   0.320   2.192   2.363 -0.1185 -0.2883 -0.2654
   13MOL   H60211906   0.454   2.106   2.277 -0.4269  1.0058 -0.1123
   13MOL   H60311907   0.567   2.091   2.498  0.0407  1.2695  2.7664
   13MOL   H60411908   0.449   2.191   2.568 -0.4970 -0.7902  1.1998
   13MOL   H60511909   0.367   1.929   2.438  2.2663  1.9600 -1.8322
   13MOL   H60611910   0.274   2.025   2.555  0.1136  3.5924 -2.4324
   13MOL   H60711911   0.411   1.984   2.735 -2.8376 -1.0347  0.2141
   13MOL   H60811912   0.528   1.889   2.655 -1.1053 -1.9323  1.6313
   13MOL   H60911913   0.180   1.632   2.570  0.5984 -0.8106 -0.1943
   13MOL   H61011914   0.014   1.466   2.598  0.7542  0.3706 -0.3105
   13MOL   H61111915   0.207   1.324   2.951  1.8413 -0.0930 -0.7376
   13MOL   H61211916   0.379   1.496   2.936  0.4793  1.2382  0.1481
   13MOL   O61311917   7.871   1.093   2.910  0.1679 -0.2943  0.6798
   13MOL   C61411918   7.776   1.130   3.009 -0.6760  0.3344 -0.1400
   13MOL   C61511919   7.651   1.043   3.001 -0.3128  0.6422 -0.4465
   13MOL   C61611920   7.585   1.045   2.863  0.5940  0.8726 -0.7528
   13MOL   C61711921   7.454   0.961   2.866 -0.0763  0.6200  0.0791
   13MOL   C61811922   7.381   0.920   2.733 -0.3502 -0.3560  0.7202
   13MOL   C61911923   7.283   0.815   2.739  0.3079 -0.1830 -0.2772
   13MOL   C62011924   7.264   0.746   2.601  0.4009  0.0142  0.6826
   13MOL   C62111925   7.166   0.627   2.609 -0.2998  0.2679  0.5531
   13MOL   C62211926   7.120   0.581   2.464 -0.7368  0.1051  0.3637
   13MOL   C62311927   7.211   0.469   2.418 -0.0092  0.4207  0.1194
   13MOL   O62411928   7.327   0.535   2.364 -0.3108  0.2763 -0.1718
   13MOL   C62511929   7.442   0.478   2.346 -0.9189  0.0698 -0.8927
   13MOL   O62611930   7.455   0.352   2.351 -0.4045 -0.0009 -0.5673
   13MOL   C62711931   7.547   0.572   2.297  0.0472 -0.0147 -0.0382
   13MOL   C62811932   7.660   0.520   2.234  0.0115 -0.0118 -0.4397
   13MOL   C62911933   7.765   0.602   2.178 -0.7652  0.1524 -0.6572
   13MOL   C63011934   7.746   0.746   2.171  0.7193  0.5224  0.2582
   13MOL   C63111935   7.835   0.833   2.092 -0.0477 -0.2855  0.4326
   13MOL   O63211936   7.954   0.801   2.068  0.3930  0.2091  0.1401
   13MOL   O63311937   7.794   0.950   2.060  0.0204 -0.3838  0.6953
   13MOL   C63411938   7.628   0.794   2.232  1.0892 -0.9339  0.0868
   13MOL   C63511939   7.540   0.713   2.301  0.0159  1.0456  0.5894
   13MOL   H63611940   7.816   1.127   3.110 -0.8188 -2.0704 -0.1344
   13MOL   H63711941   7.757   1.236   2.987 -1.6333 -0.1713 -1.8397
   13MOL   H63811942   7.581   1.078   3.077  0.0123  1.8045 -0.6800
   13MOL   H63911943   7.674   0.942   3.034 -1.2363  0.9331  1.1491
   13MOL   H64011944   7.575   1.148   2.830  0.1586  0.4193 -2.0621
   13MOL   H64111945   7.653   1.003   2.789 -0.4495 -1.4530 -0.4430
   13MOL   H64211946   7.380   1.015   2.925 -0.3935 -0.3200  0.5423
   13MOL   H64311947   7.464   0.871   2.926  1.1320  0.8798  0.2882
   13MOL   H64411948   7.331   1.006   2.689  0.6027 -0.3665 -0.4215
   13MOL   H64511949   7.461   0.891   2.665 -0.6028 -0.2176  0.3623
   13MOL   H64611950   7.317   0.741   2.811  0.9759  1.7490  1.4287
   13MOL   H64711951   7.190   0.858   2.774  0.0314  0.9586 -2.2932
   13MOL   H64811952   7.220   0.810   2.525 -1.0019  1.0843  2.3673
   13MOL   H64911953   7.363   0.708   2.576 -0.4834 -2.1488  0.3348
   13MOL   H65011954   7.208   0.549   2.672 -2.3468 -1.4250 -0.1279
   13MOL   H65111955   7.081   0.665   2.666 -1.0147 -0.6775  0.1255
   13MOL   H65211956   7.117   0.658   2.386  0.3964  0.4049  0.6039
   13MOL   H65311957   7.023   0.534   2.481 -0.2713 -1.2051 -0.5347
   13MOL   H65411958   7.161   0.410   2.341  1.3303 -0.3090 -0.2110
   13MOL   H65511959   7.237   0.393   2.492  1.9354  1.2578  0.3465
   13MOL   H65611960   7.675   0.413   2.225  0.3724  0.2333 -3.1221
   13MOL   H65711961   7.852   0.559   2.131 -0.0402  0.1753  0.6476
   13MOL   H65811962   7.618   0.901   2.222  1.2696 -0.7792  1.5022
   13MOL   H65911963   7.452   0.764   2.339 -1.3671 -2.0627  1.6858
   13MOL   O66011964   7.899   1.032   2.003  0.0224  0.5374  0.0889
   13MOL   C66111965   7.869   1.053   1.863  0.0955 -0.0901  0.3396
   13MOL   C66211966   7.913   0.929   1.784  0.5851 -0.2059  0.0257
   13MOL   C66311967   7.934   0.948   1.631  0.0438  0.1159 -0.0543
   13MOL   C66411968   0.027   0.831   1.567 -0.0770  0.3841 -0.8178
   13MOL   C66511969   0.080   0.860   1.433 -0.7644 -0.1573 -0.1985
   13MOL   C66611970   7.941   0.843   1.323 -0.0082  0.4644  0.2959
   13MOL   C66711971   0.023   0.868   1.182  0.5404 -0.1350  0.6540
   13MOL   C66811972   7.887   0.845   1.086  0.0641  0.1726 -0.6381
   13MOL   C66911973   7.926   0.868   0.943  0.2285  0.1525 -0.3067
   13MOL   C67011974   7.813   0.837   0.846 -0.7552  0.1377  0.0079
   13MOL   O67111975   7.695   0.902   0.884 -0.2535 -0.1677  0.4026
   13MOL   C67211976   7.582   0.834   0.911  0.1700  0.4419 -0.7113
   13MOL   O67311977   7.564   0.711   0.895  0.5669  0.4525 -0.2980
   13MOL   C67411978   7.467   0.924   0.942 -0.3079 -0.1672  0.0625
   13MOL   C67511979   7.336   0.872   0.947  0.2306 -0.2117 -0.5179
   13MOL   C67611980   7.232   0.955   1.005 -1.2658 -0.9215 -0.3445
   13MOL   C67711981   7.253   1.085   1.047 -0.5513 -0.3523 -0.1575
   13MOL   C67811982   7.143   1.174   1.103 -0.1406  0.6228 -0.2279
   13MOL   O67911983   7.024   1.137   1.112 -0.1013  0.2324 -0.2853
   13MOL   O68011984   7.186   1.286   1.150 -0.1749 -0.3491 -0.0469
   13MOL   C68111985   7.385   1.138   1.035  0.4378  0.5901  0.2113
   13MOL   C68211986   7.490   1.061   0.978  0.8004  0.5553 -0.3150
   13MOL   H68311987   7.767   1.090   1.850  0.2979  0.6515  0.8018
   13MOL   H68411988   7.933   1.133   1.826  0.1500  0.0692  0.7703
   13MOL   H68511989   7.839   0.851   1.800 -0.6174  1.0349  0.6701
   13MOL   H68611990   0.032   0.906   1.828  0.4714 -1.3404 -0.3197
   13MOL   H68711991   7.842   0.975   1.580  0.1452  1.2535  0.3370
   13MOL   H68811992   0.013   1.041   1.627  0.2593 -0.0069  0.1451
   13MOL   H68911993   7.944   0.741   1.571  0.9376 -0.2637 -0.0541
   13MOL   H69011994   0.102   0.815   1.644  0.4902  0.9888 -1.2323
   13MOL   H69111995   0.128   0.958   1.440 -0.7097 -0.0763 -1.4733
   13MOL   H69211996   0.161   0.789   1.421 -1.1233 -0.5154 -0.5367
   13MOL   H69311997   7.897   0.744   1.337  2.5950 -0.8862 -0.6780
   13MOL   H69411998   7.870   0.923   1.343  1.4746  1.2558  2.6158
   13MOL   H69511999   0.056   0.971   1.168  2.4200 -0.4383  2.5502
   13MOL   H69612000   0.109   0.803   1.172  1.6456  1.4047 -0.0350
   13MOL   H69712001   7.852   0.742   1.082 -0.3429  0.3532 -1.9682
   13MOL   H69812002   7.796   0.899   1.111  1.0359  2.2689 -1.5093
   13MOL   H69912003   0.040   0.811   0.928  0.1481 -0.2959  0.8561
   13MOL   H70012004   7.959   0.970   0.924  0.6327 -0.1910 -1.4982
   13MOL   H70112005   7.798   0.731   0.826  0.6593 -0.0705  0.0070
   13MOL   H70212006   7.839   0.882   0.750 -0.1917 -0.1290  0.0337
   13MOL   H70312007   7.303   0.773   0.919 -0.2352 -0.4715  0.8842
   13MOL   H70412008   7.134   0.912   1.019 -0.7366 -2.4299 -1.1244
   13MOL   H70512009   7.414   1.239   1.061  1.1234  0.5158 -0.2387
   13MOL   H70612010   7.588   1.106   0.969  1.0505 -0.0267 -0.5957
   13MOL   O70712011   7.079   1.365   1.232 -0.0755  0.0388 -0.1784
   13MOL   C70812012   7.103   1.331   1.371  0.2817 -0.7259 -0.4366
   13MOL   C70912013   6.991   1.338   1.461  0.4571 -0.1255 -0.7471
   13MOL   C71012014   6.888   1.223   1.430 -0.2835  0.2553 -0.5730
   13MOL   C71112015   6.790   1.257   1.310 -0.7806 -0.5878 -0.0450
   13MOL   C71212016   6.735   1.129   1.236  0.2135 -0.9198  0.2011
   13MOL   C71312017   6.633   1.051   1.329 -0.3658 -0.0710  0.5507
   13MOL   C71412018   6.553   0.949   1.245 -0.3239 -0.5408 -0.2349
   13MOL   C71512019   6.437   0.892   1.334 -0.2353  0.1517 -1.0727
   13MOL   C71612020   6.346   0.797   1.261 -0.1552  0.3514  0.1429
   13MOL   C71712021   6.215   0.781   1.330  0.1139 -0.0233  0.8526
   13MOL   O71812022   6.197   0.709   1.454  0.0822  0.3371  0.1018
   13MOL   C71912023   6.076   0.701   1.510 -0.2645  0.4700 -0.2546
   13MOL   O72012024   5.968   0.745   1.471 -0.3416 -0.4423  0.6700
   13MOL   C72112025   6.086   0.629   1.638 -0.4129 -0.1129  0.0103
   13MOL   C72212026   6.197   0.559   1.680 -0.2666 -0.3041 -0.3974
   13MOL   C72312027   6.208   0.495   1.801 -0.5048 -0.0600 -0.3096
   13MOL   C72412028   6.104   0.504   1.891  0.4631 -0.0251  0.6622
   13MOL   C72512029   6.113   0.439   2.023  0.3955  0.2411  0.0379
   13MOL   O72612030   6.051   0.479   2.121  0.3852 -0.2957  0.2548
   13MOL   O72712031   6.208   0.338   2.035 -0.0866  0.0433 -0.2298
   13MOL   C72812032   5.983   0.575   1.852  0.1317  0.1116 -0.7808
   13MOL   C72912033   5.973   0.634   1.727 -0.4942 -0.2872 -0.6776
   13MOL   H73012034   7.156   1.236   1.381 -1.0248 -1.4320 -0.2132
   13MOL   H73112035   7.171   1.414   1.393 -1.0966  0.5099 -0.7400
   13MOL   H73212036   6.952   1.437   1.483 -0.8284  0.0275 -3.5290
   13MOL   H73312037   7.029   1.322   1.562  0.2686 -0.2550 -0.6959
   13MOL   H73412038   6.924   1.121   1.415 -0.5010  0.2892 -1.3759
   13MOL   H73512039   6.827   1.211   1.519  1.7657  1.1468  0.9957
   13MOL   H73612040   6.832   1.317   1.229 -1.0883 -0.7513 -0.3275
   13MOL   H73712041   6.700   1.312   1.340  0.1143  0.4349  0.8623
   13MOL   H73812042   6.681   1.161   1.147  0.6310 -1.2728 -0.1858
   13MOL   H73912043   6.822   1.070   1.204  2.0830  2.7612 -1.7722
   13MOL   H74012044   6.687   1.006   1.412 -1.7757 -0.3464  1.3388
   13MOL   H74112045   6.562   1.126   1.364 -0.2623  0.2387  0.1133
   13MOL   H74212046   6.517   0.999   1.155 -2.1267  0.5812  1.0844
   13MOL   H74312047   6.623   0.871   1.215 -0.3221  0.1175 -1.9907
   13MOL   H74412048   6.465   0.842   1.426  2.5763  0.5156 -1.6822
   13MOL   H74512049   6.381   0.977   1.374  2.1070  0.9049  0.6827
   13MOL   H74612050   6.384   0.696   1.246 -0.9789 -0.0955  0.9877
   13MOL   H74712051   6.316   0.835   1.163  1.4581  1.3739  0.0470
   13MOL   H74812052   6.148   0.725   1.264  1.9582 -1.5903  0.2616
   13MOL   H74912053   6.171   0.880   1.343 -0.0050 -0.1574  1.4815
   13MOL   H75012054   6.286   0.561   1.619 -0.0046  0.7826  0.0212
   13MOL   H75112055   6.296   0.440   1.833 -1.0673 -0.3235  0.8219
   13MOL   H75212056   5.901   0.569   1.922  0.6596 -1.4738 -0.2800
   13MOL   H75312057   5.886   0.693   1.703 -0.8630 -1.6165 -2.8010
   13MOL   O75412058   6.232   0.289   2.175  0.4768  0.1861 -0.1571
   13MOL   C75512059   6.362   0.312   2.214  0.7862  0.4646  1.2204
   13MOL   C75612060   6.385   0.454   2.252  0.3977  0.3935  0.4773
   13MOL   C75712061   6.296   0.494   2.372  0.2976 -0.2655 -0.7177
   13MOL   C75812062   6.333   0.628   2.439  0.1689  0.6179 -0.2503
   13MOL   C75912063   6.307   0.746   2.337 -0.8349  0.6133  0.3161
   13MOL   C76012064   6.159   0.770   2.298 -0.2882 -0.4183 -0.2012
   13MOL   C76112065   6.141   0.869   2.179  0.1015 -0.5352  0.3310
   13MOL   C76212066   5.994   0.891   2.165 -0.1484 -0.1312  0.0487
   13MOL   C76312067   5.951   0.998   2.068  0.0305 -0.6253 -0.6940
   13MOL   C76412068   5.932   0.955   1.925 -0.0971 -0.0500  0.1208
   13MOL   O76512069   5.871   1.059   1.857  0.5268 -0.0060  0.5004
   13MOL   C76612070   5.890   1.078   1.728  0.4634  0.8059  0.3039
   13MOL   O76712071   5.967   1.008   1.658  0.3659 -0.1288  0.2758
   13MOL   C76812072   5.813   1.196   1.666  0.3261  0.2092 -0.2018
   13MOL   C76912073   5.844   1.235   1.534  0.2610 -0.4585 -0.0654
   13MOL   C77012074   5.763   1.335   1.473  0.3142 -0.2650  0.1779
   13MOL   C77112075   5.661   1.400   1.540  0.2439  0.1398 -0.6337
   13MOL   C77212076   5.576   1.506   1.481 -0.5478  0.4666  0.1711
   13MOL   O77312077   5.470   1.537   1.533 -0.4783  0.7047 -0.1198
   13MOL   O77412078   5.634   1.573   1.375  0.4557  0.2734  0.2870
   13MOL   C77512079   5.640   1.364   1.677  0.2957 -0.7650 -0.3896
   13MOL   C77612080   5.709   1.256   1.734 -0.6095  0.3814  0.2202
   13MOL   H77712081   6.391   0.241   2.292  1.2361  1.6256  2.1254
   13MOL   H77812082   6.429   0.295   2.130 -0.7856 -0.6727  0.1599
   13MOL   H77912083   6.348   0.521   2.175 -1.5051  0.5662  1.4884
   13MOL   H78012084   6.489   0.462   2.283  0.8009 -3.7890  0.4627
   13MOL   H78112085   6.190   0.483   2.350 -0.5521  3.4911  1.0413
   13MOL   H78212086   6.309   0.422   2.453  1.6673  0.8145  0.0367
   13MOL   H78312087   6.432   0.626   2.484  0.0800 -1.2250 -0.1222
   13MOL   H78412088   6.269   0.652   2.524  1.0050  2.5672 -0.1347
   13MOL   H78512089   6.341   0.830   2.397  0.5662  0.6485 -0.5224
   13MOL   H78612090   6.379   0.733   2.257 -1.1753  1.0445 -0.0613
   13MOL   H78712091   6.113   0.672   2.283  0.7005 -0.9271  0.0290
   13MOL   H78812092   6.110   0.824   2.379 -0.2442  2.4719 -2.0293
   13MOL   H78912093   6.195   0.963   2.185  1.3659 -1.1344 -1.3227
   13MOL   H79012094   6.180   0.825   2.087  2.0299 -0.4478  1.0775
   13MOL   H79112095   5.938   0.802   2.135 -2.9975  0.3491  3.5542
   13MOL   H79212096   5.956   0.926   2.260 -0.9633  1.9278 -1.0010
   13MOL   H79312097   6.019   1.083   2.065 -0.6982  0.0806  1.7325
   13MOL   H79412098   5.858   1.038   2.108  1.8039  0.4264  2.5210
   13MOL   H79512099   5.858   0.875   1.924 -1.6156  1.3332 -1.1181
   13MOL   H79612100   6.022   0.916   1.878  1.5714  2.9100  0.7564
   13MOL   H79712101   5.918   1.186   1.474  0.7248  1.1497 -0.8409
   13MOL   H79812102   5.773   1.352   1.366  0.7840 -1.0936  0.0859
   13MOL   H79912103   5.563   1.417   1.732  0.3317  0.7001 -1.7104
   13MOL   H80012104   5.698   1.239   1.840  3.2154 -2.7777  0.2035
   13MOL   O80112105   5.535   1.672   1.310 -0.5388  0.9776 -0.5737
   13MOL   C80212106   5.451   1.596   1.221 -0.0301  0.3382  0.1024
   13MOL   C80312107   5.440   1.679   1.095 -0.8335 -0.3928  0.3617
   13MOL   C80412108   5.392   1.610   0.974  0.0136  0.3223  0.8069
   13MOL   C80512109   5.237   1.607   0.971  0.6699  0.0982  0.2017
   13MOL   C80612110   5.163   1.550   0.851  0.1779 -0.1674  0.2927
   13MOL   C80712111   5.160   1.394   0.858  0.3774 -0.9573 -0.5086
   13MOL   C80812112   5.148   1.333   0.724  0.0729 -0.2415  0.0382
   13MOL   C80912113   5.098   1.190   0.722 -0.3375 -0.2839  0.1699
   13MOL   C81012114   5.194   1.082   0.787  0.1025  0.0268  0.2396
   13MOL   C81112115   5.138   0.943   0.793 -0.4150  1.0220  0.8464
   13MOL   O81212116   5.144   0.876   0.669  0.6373  0.3182 -0.2145
   13MOL   C81312117   5.106   0.746   0.660  0.0026  0.1443 -0.0423
   13MOL   O81412118   5.069   0.675   0.761 -0.5853  0.4563 -0.3929
   13MOL   C81512119   5.111   0.683   0.524  0.2795 -0.4676 -0.2055
   13MOL   C81612120   5.133   0.766   0.416 -0.8219  0.1243  0.2391
   13MOL   C81712121   5.133   0.706   0.287  0.0808 -0.1572  0.0497
   13MOL   C81812122   5.104   0.569   0.267 -0.9344 -0.3062 -0.9095
   13MOL   C81912123   5.105   0.507   0.136 -0.1133 -0.6321 -0.5111
   13MOL   O82012124   5.144   0.562   0.034 -0.0099 -0.4624 -0.3859
   13MOL   O82112125   5.074   0.372   0.144 -0.2338 -0.3521  0.1620
   13MOL   C82212126   5.081   0.491   0.389  0.2950  0.5845 -0.0945
   13MOL   C82312127   5.075   0.548   0.515  0.1558 -0.2549  0.1075
   13MOL   H82412128   5.503   1.503   1.198 -0.6819  0.1768 -0.7267
   13MOL   H82512129   5.359   1.569   1.273 -0.6903  0.5272 -0.9547
   13MOL   H82612130   5.540   1.713   1.069 -1.1313 -1.1777 -1.9683
   13MOL   H82712131   5.381   1.770   1.108  2.6825  2.0371 -0.1536
   13MOL   H82812132   5.421   1.660   0.881 -2.2672 -0.0399 -0.1521
   13MOL   H82912133   5.419   1.505   0.963  0.5016  0.8073 -3.7308
   13MOL   H83012134   5.197   1.708   0.985 -0.6931 -0.3664 -0.2424
   13MOL   H83112135   5.193   1.556   1.057 -0.8754  1.9375  0.5568
   13MOL   H83212136   5.061   1.588   0.858 -0.3552 -1.9188  3.0901
   13MOL   H83312137   5.210   1.589   0.761 -0.3691 -0.0624  0.0518
   13MOL   H83412138   5.249   1.349   0.902  1.8460  2.5159  0.2860
   13MOL   H83512139   5.076   1.361   0.919 -0.5676  1.3979 -0.4908
   13MOL   H83612140   5.084   1.393   0.658  0.8285  0.2285 -0.2754
   13MOL   H83712141   5.247   1.330   0.678  0.4681 -1.4181  0.9562
   13MOL   H83812142   5.004   1.192   0.778 -0.2782 -1.2607  0.3152
   13MOL   H83912143   5.064   1.158   0.624  0.8494 -0.1799 -0.2844
   13MOL   H84012144   5.218   1.113   0.889  1.1042 -0.8497  0.2755
   13MOL   H84112145   5.293   1.077   0.742 -0.4161  2.4068 -1.2797
   13MOL   H84212146   5.035   0.933   0.828  0.3583 -0.5077  2.7460
   13MOL   H84312147   5.200   0.883   0.858  2.1586  3.7201  1.0010
   13MOL   H84412148   5.146   0.872   0.431 -1.2313  0.4127 -1.3598
   13MOL   H84512149   5.155   0.761   0.197 -1.2196 -0.3467 -0.3906
   13MOL   H84612150   5.053   0.387   0.382  2.4707  0.0233 -0.8532
   13MOL   H84712151   5.057   0.492   0.606  2.8784  1.0053  1.4984
   13MOL   O84812152   5.044   0.294   0.015 -0.6510 -0.3441  0.2443
   13MOL   C84912153   5.173   0.248   7.947  0.3530 -0.6841  0.0686
   13MOL   C85012154   5.242   0.151   0.078  0.8249  0.2922  0.0880
   13MOL   C85112155   5.333   0.219   0.182 -0.1132  0.4583 -0.4289
   13MOL   C85212156   5.345   0.134   0.317 -0.4081 -0.5812  0.6521
   13MOL   C85312157   5.454   0.187   0.420  0.6592 -0.2178  0.8706
   13MOL   C85412158   5.464   0.101   0.546 -0.3476 -0.7883  0.0815
   13MOL   C85512159   5.334   0.085   0.625 -0.0421  0.1676  0.3908
   13MOL   C85612160   5.269   0.216   0.681  0.6626  0.0493  0.9755
   13MOL   C85712161   5.141   0.199   0.757  0.0374  0.9705  0.4770
   13MOL   C85812162   5.020   0.135   0.680  0.0116  0.0567  0.1754
   13MOL   O85912163   5.051   0.008   0.639  0.1542 -0.0732  0.3696
   13MOL   C86012164   5.034   7.878   0.721  0.3221  0.2956  0.4085
   13MOL   O86112165   5.006   7.890   0.842 -0.0549  0.3709  0.2703
   13MOL   C86212166   5.054   7.752   0.643  0.3919  0.7481  0.3509
   13MOL   C86312167   5.099   7.756   0.506 -0.3093 -0.1372 -0.6359
   13MOL   C86412168   5.130   7.639   0.440  0.6475  0.1352 -0.0416
   13MOL   C86512169   5.122   7.515   0.508  0.1844  1.0983  0.7167
   13MOL   C86612170   5.151   7.390   0.432 -0.1851 -0.0920 -0.0397
   13MOL   O86712171   5.164   7.382   0.307 -0.5148  0.1090 -0.2953
   13MOL   O86812172   5.168   7.284   0.507 -0.3062 -0.9860 -0.1851
   13MOL   C86912173   5.077   7.509   0.640 -0.3364 -0.2396 -0.3922
   13MOL   C87012174   5.036   7.626   0.703 -0.8020 -0.6686 -0.7239
   13MOL   H87112175   5.152   0.184   7.861  0.8465 -1.8649  0.8000
   13MOL   H87212176   5.240   0.329   7.918 -0.3809 -0.1376 -0.0837
   13MOL   H87312177   5.298   0.075   0.024  1.1675 -0.4324  1.4446
   13MOL   H87412178   5.164   0.097   0.133  1.1090 -0.1668  0.0438
   13MOL   H87512179   5.431   0.230   0.135 -1.6580 -0.4547 -4.1065
   13MOL   H87612180   5.308   0.321   0.210 -2.6064 -0.5399  1.1417
   13MOL   H87712181   5.367   0.028   0.308  1.8465 -0.2045  1.2726
   13MOL   H87812182   5.254   0.152   0.374 -0.1768  1.6050  0.4119
   13MOL   H87912183   5.543   0.177   0.358  0.0097  0.2463 -0.1540
   13MOL   H88012184   5.447   0.293   0.442  1.4399 -0.2358  1.2256
   13MOL   H88112185   5.498   0.004   0.511 -0.7718 -0.6394 -0.7632
   13MOL   H88212186   5.536   0.142   0.617 -0.4453  0.0743 -0.3092
   13MOL   H88312187   5.265   0.033   0.559 -0.8228 -0.3097  1.5504
   13MOL   H88412188   5.366   0.030   0.714  0.2022  0.0457  0.2264
   13MOL   H88512189   5.345   0.261   0.744  0.7410  1.3821 -0.0584
   13MOL   H88612190   5.242   0.285   0.602 -0.3325  0.0138  1.2768
   13MOL   H88712191   5.115   0.299   0.793  0.6141  1.1743  0.3280
   13MOL   H88812192   5.160   0.138   0.845 -1.5522  0.5846  0.5838
   13MOL   H88912193   4.988   0.189   0.591 -0.0801  1.6073  1.1230
   13MOL   H89012194   4.932   0.137   0.744  0.7233 -0.0310  1.1718
   13MOL   H89112195   5.097   7.842   0.440  0.6700  0.1568 -0.2948
   13MOL   H89212196   5.146   7.641   0.333  1.8869  1.2750  0.1495
   13MOL   H89312197   5.069   7.413   0.687 -1.4937  0.0598  0.0449
   13MOL   H89412198   5.003   7.638   0.805 -1.1894 -0.4937 -0.8656
   13MOL   O89512199   5.256   7.181   0.445 -0.5413  0.2317 -0.4338
   13MOL   C89612200   5.177   7.072   0.413  0.2568  0.3029  0.7184
   13MOL   C89712201   5.186   6.958   0.508  0.1717  0.2096 -0.3630
   13MOL   C89812202   5.329   6.893   0.507  0.8927  0.1037  0.1543
   13MOL   C89912203   5.358   6.783   0.611  0.4020 -0.2096 -0.1754
   13MOL   C90012204   5.339   6.830   0.759  0.3597 -0.4584  0.8017
   13MOL   C90112205   5.372   6.720   0.858  0.4475 -0.5809 -0.4972
   13MOL   C90212206   5.342   6.747   1.008 -0.1921  0.6484 -0.5711
   13MOL   C90312207   5.198   6.780   1.054 -0.1059  0.4030 -0.7662
   13MOL   C90412208   5.092   6.677   1.016  0.3298  0.3464 -0.5446
   13MOL   C90512209   5.100   6.543   1.090  0.3042 -0.1739 -0.1770
   13MOL   O90612210   5.088   6.547   1.230  0.0383  0.0747  0.4925
   13MOL   C90712211   4.973   6.578   1.293  0.2389  0.0606 -0.0176
   13MOL   O90812212   4.864   6.580   1.232 -0.0841 -0.2428 -0.6535
   13MOL   C90912213   4.987   6.599   1.438  0.3890  0.6513  0.3238
   13MOL   C91012214   5.107   6.553   1.499 -0.5218  0.2849 -0.2700
   13MOL   C91112215   5.129   6.577   1.638  0.0556  0.5164  0.2173
   13MOL   C91212216   5.024   6.639   1.718 -0.3748 -0.3061 -0.6617
   13MOL   C91312217   5.058   6.680   1.856 -0.4305 -1.6449  0.3952
   13MOL   O91412218   4.979   6.747   1.921  0.2347  0.3604 -0.1381
   13MOL   O91512219   5.160   6.623   1.907 -0.3262  0.0131  0.2961
   13MOL   C91612220   4.911   6.687   1.652  0.4526 -0.2013 -0.1308
   13MOL   C91712221   4.887   6.663   1.514  0.3606  1.4529 -0.3014
   13MOL   H91812222   5.070   7.090   0.407  0.2113 -0.7971 -2.6300
   13MOL   H91912223   5.212   7.029   0.320 -2.3799 -2.3872  0.9000
   13MOL   H92012224   5.103   6.887   0.495 -2.0369  2.4889  0.8169
   13MOL   H92112225   5.168   6.997   0.608 -1.1268  0.8946 -0.8581
   13MOL   H92212226   5.365   6.846   0.416  1.7973 -0.9380  1.0294
   13MOL   H92312227   5.396   6.978   0.517  0.3318  0.4272  1.2554
   13MOL   H92412228   5.449   6.726   0.594 -0.1847 -0.5982 -2.0510
   13MOL   H92512229   5.282   6.713   0.577  0.5596 -0.3634 -0.2140
   13MOL   H92612230   5.405   6.913   0.785  2.5317 -1.9107  0.0412
   13MOL   H92712231   5.236   6.847   0.792 -0.1049  1.1058 -1.3729
   13MOL   H92812232   5.309   6.632   0.847 -0.3941 -0.0769  0.2225
   13MOL   H92912233   5.473   6.679   0.859  0.5670 -0.2603  0.4985
   13MOL   H93012234   5.379   6.669   1.075  1.4448 -0.8287 -3.1218
   13MOL   H93112235   5.402   6.834   1.033  0.6040  0.2028 -0.9226
   13MOL   H93212236   5.200   6.800   1.161  0.1927 -0.3054 -0.6374
   13MOL   H93312237   5.162   6.876   1.017 -1.3905 -0.1542 -0.9787
   13MOL   H93412238   5.084   6.659   0.909 -0.3421 -0.1311 -0.4155
   13MOL   H93512239   4.997   6.718   1.050  1.2313  0.8004  1.4871
   13MOL   H93612240   5.198   6.500   1.068  0.0194 -0.8654 -0.1277
   13MOL   H93712241   5.023   6.477   1.049 -0.1250  0.8805 -1.0662
   13MOL   H93812242   5.194   6.513   1.450 -0.5794  0.4665 -0.5232
   13MOL   H93912243   5.219   6.544   1.687 -0.4610 -0.7715  0.3327
   13MOL   H94012244   4.838   6.752   1.698 -0.9752 -0.9165 -1.3223
   13MOL   H94112245   4.796   6.694   1.465 -0.5632  0.7069  0.9007
   13MOL   H94212246   5.153   6.615   2.000  1.2747  1.9814  0.6117
   14MOL     O112247   2.624   7.952   2.507  0.1305 -0.2301  0.3375
   14MOL     C212248   2.690   0.068   2.587  0.5441  0.0329  0.0854
   14MOL     C312249   2.655   0.208   2.536 -0.6174 -0.0761 -0.6657
   14MOL     C412250   2.508   0.242   2.556  0.4024  0.3787 -1.1602
   14MOL     C512251   2.464   0.386   2.513 -0.1846  0.5036  0.5292
   14MOL     C612252   2.319   0.416   2.538  0.6181 -0.1216 -0.1962
   14MOL     C712253   2.249   0.526   2.460 -0.1866  0.3616 -0.1239
   14MOL     C812254   2.101   0.521   2.497 -0.0370  0.0331 -0.0898
   14MOL     C912255   2.010   0.606   2.404 -0.1569  0.0663 -0.3085
   14MOL    C1012256   1.868   0.585   2.455  0.7218  0.5080 -0.2181
   14MOL    C1112257   1.747   0.659   2.385 -0.5390  0.0506  0.4003
   14MOL    O1212258   1.753   0.800   2.407  0.1873 -0.1206  0.5109
   14MOL    C1312259   1.659   0.857   2.478 -0.2627 -0.3393 -0.3478
   14MOL    O1412260   1.587   0.795   2.552  0.2868 -0.0336 -0.2987
   14MOL    C1512261   1.646   1.004   2.453 -0.2579 -0.0749 -0.3322
   14MOL    C1612262   1.733   1.074   2.361  0.3220 -0.0888 -0.1305
   14MOL    C1712263   1.721   1.215   2.349 -0.0138 -0.2159 -0.5483
   14MOL    C1812264   1.623   1.291   2.419  0.0170  0.1786 -0.0434
   14MOL    C1912265   1.619   1.436   2.410  0.5378 -0.5354  0.0386
   14MOL    O2012266   1.698   1.503   2.341 -0.1082 -0.0678  0.5651
   14MOL    O2112267   1.515   1.495   2.473  0.6315 -0.2891  0.6780
   14MOL    C2212268   1.538   1.224   2.513  0.0256  0.1359 -0.1807
   14MOL    C2312269   1.549   1.083   2.527 -0.2482  0.6958  0.6064
   14MOL    H2412270   2.679   0.053   2.694  0.3161  3.4518  0.5738
   14MOL    H2512271   2.797   0.049   2.577  0.3396 -0.9836 -0.3224
   14MOL    H2612272   2.677   0.210   2.430 -2.3309  2.6006 -1.0074
   14MOL    H2712273   2.715   0.287   2.581 -2.8179  1.0257  0.4234
   14MOL    H2812274   2.454   0.165   2.502 -2.6894  3.0108 -2.0143
   14MOL    H2912275   2.484   0.230   2.662  0.0606 -0.9101 -1.3838
   14MOL    H3012276   2.486   0.392   2.406 -1.1517  0.1360  0.3063
   14MOL    H3112277   2.525   0.457   2.569  1.0446 -1.8342  2.2545
   14MOL    H3212278   2.270   0.324   2.508  1.7518 -1.4641  1.9586
   14MOL    H3312279   2.301   0.424   2.646 -0.8488  0.6825 -0.4789
   14MOL    H3412280   2.295   0.619   2.493 -0.4618  0.3516  0.2946
   14MOL    H3512281   2.265   0.514   2.353 -1.1659  1.7145 -0.4324
   14MOL    H3612282   2.078   0.415   2.486  0.6413 -0.6552  4.2687
   14MOL    H3712283   2.078   0.549   2.599 -2.3775 -1.2957 -0.2031
   14MOL    H3812284   2.045   0.709   2.407  1.3991 -0.4930  2.2205
   14MOL    H3912285   2.022   0.578   2.299  2.8075  1.8283 -0.4988
   14MOL    H4012286   1.867   0.610   2.561 -0.4561  1.0795 -0.3614
   14MOL    H4112287   1.857   0.477   2.461  1.4873  0.4144 -0.4084
   14MOL    H4212288   1.657   0.613   2.426 -1.8078 -0.1824 -2.4929
   14MOL    H4312289   1.751   0.640   2.277 -2.9177  1.7923 -0.0365
   14MOL    H4412290   1.803   1.012   2.308 -0.1293 -0.8244  0.1283
   14MOL    H4512291   1.787   1.274   2.287  0.6817 -1.5087 -1.0617
   14MOL    H4612292   1.461   1.279   2.565  1.0689  0.7936  0.6988
   14MOL    H4712293   1.480   1.036   2.596 -0.2403 -0.6626 -0.2901
   14MOL    H4812294   2.530   7.954   2.519  0.0148  0.1467 -0.6063
   14MOL    O4912295   1.537   1.641   2.502 -0.3435  0.3603  0.0374
   14MOL    C5012296   1.470   1.716   2.412 -0.0383  0.1768 -0.1896
   14MOL    C5112297   1.490   1.864   2.455 -0.3635  0.0391 -0.1822
   14MOL    C5212298   1.395   1.908   2.569 -0.7271 -0.2316 -0.7550
   14MOL    C5312299   1.410   2.054   2.610  0.2669 -0.1269 -0.3258
   14MOL    C5412300   1.306   2.084   2.720  0.0954 -0.2991  0.4167
   14MOL    C5512301   1.335   2.218   2.791  0.0608  0.1363 -0.0974
   14MOL    C5612302   1.241   2.256   2.904 -0.0957 -0.2346 -0.2499
   14MOL    C5712303   1.316   2.320   3.020  0.2241  0.7822 -0.0127
   14MOL    C5812304   1.231   2.337   3.145 -0.3014  0.2261  0.0213
   14MOL    C5912305   1.289   2.439   3.246  0.1512 -0.1399  0.3529
   14MOL    O6012306   1.415   2.390   3.297  0.4910 -0.4237 -0.4632
   14MOL    C6112307   1.415   2.323   3.414 -0.5941 -0.5281  0.4350
   14MOL    O6212308   1.313   2.297   3.481  0.4735  0.3099 -0.2090
   14MOL    C6312309   1.548   2.264   3.451  0.0759  0.3253  0.2301
   14MOL    C6412310   1.554   2.191   3.571 -0.6011 -0.7572 -0.7271
   14MOL    C6512311   1.678   2.151   3.616  0.1776  0.7816 -0.2238
   14MOL    C6612312   1.798   2.182   3.534  0.0022  0.1722  0.1552
   14MOL    C6712313   1.934   2.129   3.575  0.0710 -0.0026 -0.0804
   14MOL    O6812314   2.037   2.182   3.539  0.2570  0.0900  0.0183
   14MOL    O6912315   1.929   2.022   3.661  0.3906  0.5330 -0.3322
   14MOL    C7012316   1.786   2.257   3.413 -0.5371  0.0658 -0.3937
   14MOL    C7112317   1.660   2.297   3.372  0.3792  0.4487 -0.0927
   14MOL    H7212318   1.489   1.691   2.308  1.1266 -0.0627  0.0713
   14MOL    H7312319   1.365   1.696   2.435 -0.0720 -2.0187 -2.1335
   14MOL    H7412320   1.468   1.927   2.368 -1.5023  0.7344  0.5917
   14MOL    H7512321   1.594   1.890   2.469 -0.1983 -0.4126 -0.5573
   14MOL    H7612322   1.291   1.880   2.553 -0.8939  0.3234 -0.6374
   14MOL    H7712323   1.420   1.840   2.650 -0.3108 -0.8218 -1.3814
   14MOL    H7812324   1.421   2.113   2.519 -1.5604  0.1663 -0.3635
   14MOL    H7912325   1.502   2.069   2.667  0.4351  2.0991 -1.1228
   14MOL    H8012326   1.215   2.110   2.666  1.0105 -2.0484 -2.0820
   14MOL    H8112327   1.293   1.992   2.777 -2.4908  0.1376  0.5827
   14MOL    H8212328   1.434   2.197   2.831 -1.8253 -0.2394  4.6488
   14MOL    H8312329   1.347   2.299   2.719  1.0171  0.8354  0.8415
   14MOL    H8412330   1.160   2.312   2.856  1.0209  0.1468 -1.7561
   14MOL    H8512331   1.192   2.166   2.938 -0.0135 -0.0348  0.3974
   14MOL    H8612332   1.401   2.258   3.048 -0.8135 -1.3222 -1.3649
   14MOL    H8712333   1.356   2.418   2.994 -1.4332  1.8881  1.4855
   14MOL    H8812334   1.216   2.236   3.184 -0.8798  0.1966 -0.2717
   14MOL    H8912335   1.138   2.385   3.116 -0.0667  1.1917  0.8128
   14MOL    H9012336   1.217   2.449   3.327 -1.2874 -0.5180 -0.8516
   14MOL    H9112337   1.292   2.538   3.200 -2.2670  0.2463  0.9915
   14MOL    H9212338   1.467   2.177   3.634 -0.8101  0.0707 -0.8207
   14MOL    H9312339   1.690   2.102   3.711  2.5985  1.7823  0.0247
   14MOL    H9412340   1.872   2.278   3.351 -0.4263  1.0925  0.1032
   14MOL    H9512341   1.650   2.351   3.279 -2.0228  1.0230  0.4663
   14MOL    O9612342   2.051   1.999   3.737  0.2928  0.4653  0.2748
   14MOL    C9712343   2.112   1.883   3.690  0.2705  0.6005 -0.2990
   14MOL    C9812344   2.253   1.891   3.742  0.1494 -0.1522 -0.3917
   14MOL    C9912345   2.279   1.844   3.890 -0.3357  0.4049  0.0242
   14MOL   C10012346   2.430   1.851   3.929  0.4432 -0.1032  0.5353
   14MOL   C10112347   2.438   1.809   4.081 -0.0754 -0.4470 -0.2994
   14MOL   C10212348   2.585   1.811   4.138 -0.3693 -1.0462 -0.5716
   14MOL   C10312349   2.661   1.682   4.097 -0.4992  0.3894  0.4090
   14MOL   C10412350   2.811   1.691   4.121 -0.0916  0.8007  0.0705
   14MOL   C10512351   2.891   1.808   4.064  0.1946  0.3180  0.0895
   14MOL   C10612352   3.046   1.783   4.044  0.4471  0.8995 -0.7324
   14MOL   O10712353   3.095   1.885   3.969 -0.2176  0.1771  0.3786
   14MOL   C10812354   3.207   1.948   3.991 -0.1348 -0.1780  0.4672
   14MOL   O10912355   3.278   1.939   4.090 -0.2262 -0.1641  0.1791
   14MOL   C11012356   3.230   2.064   3.893 -0.2219  0.5694 -0.3582
   14MOL   C11112357   3.303   2.183   3.930  0.5409 -0.4111 -0.0341
   14MOL   C11212358   3.318   2.294   3.842  0.6546 -0.0329  0.0625
   14MOL   C11312359   3.261   2.278   3.713 -0.7699  0.5157 -0.2390
   14MOL   C11412360   3.288   2.393   3.617 -0.4311 -0.4558 -1.3209
   14MOL   O11512361   3.386   2.467   3.625 -0.2452 -0.1579  0.5988
   14MOL   O11612362   3.211   2.391   3.515  0.2443  0.0683 -0.4466
   14MOL   C11712363   3.190   2.170   3.675  0.0965 -0.1253 -0.6754
   14MOL   C11812364   3.170   2.059   3.762 -0.3794 -0.8702 -0.9777
   14MOL   H11912365   2.051   1.800   3.727  2.1438 -0.1460  1.1924
   14MOL   H12012366   2.113   1.882   3.581 -1.4485 -2.9452 -0.3651
   14MOL   H12112367   2.300   1.985   3.716  1.0824 -0.2085  1.0625
   14MOL   H12212368   2.307   1.820   3.679  1.2940 -1.0787  1.6110
   14MOL   H12312369   2.213   1.896   3.959  0.9591 -0.1765  1.7242
   14MOL   H12412370   2.258   1.738   3.897  2.7896 -0.1797  1.4243
   14MOL   H12512371   2.488   1.942   3.915  1.1152 -0.5203  0.5782
   14MOL   H12612372   2.481   1.771   3.874 -0.9758 -0.2009 -0.6522
   14MOL   H12712373   2.390   1.875   4.153 -0.6797 -0.0607 -1.0491
   14MOL   H12812374   2.392   1.711   4.082  1.2931 -1.1004 -0.8288
   14MOL   H12912375   2.628   1.901   4.095 -0.1055  0.1057  2.0582
   14MOL   H13012376   2.589   1.819   4.246  1.0404  2.4613 -0.8270
   14MOL   H13112377   2.613   1.594   4.141  1.1282 -1.4294 -1.3313
   14MOL   H13212378   2.646   1.661   3.991 -0.8895 -1.0102  0.7254
   14MOL   H13312379   2.818   1.687   4.230  1.6815 -1.0706 -0.0806
   14MOL   H13412380   2.865   1.601   4.093  0.5254  1.2974 -0.3527
   14MOL   H13512381   2.867   1.891   4.130  0.7706  0.8467 -0.3594
   14MOL   H13612382   2.851   1.834   3.966  0.4598  0.3770 -0.0024
   14MOL   H13712383   3.076   1.692   3.992 -1.3516 -0.7844  1.0607
   14MOL   H13812384   3.095   1.769   4.140  0.1586 -0.8242 -0.8305
   14MOL   H13912385   3.336   2.196   4.032  0.2112  0.9970 -0.0950
   14MOL   H14012386   3.361   2.384   3.882  1.3018 -0.8783  1.3060
   14MOL   H14112387   3.135   2.172   3.581  0.9256  3.0753 -1.1448
   14MOL   H14212388   3.107   1.977   3.728 -1.8458  0.2925 -1.0991
   14MOL   O14312389   3.249   2.493   3.419  0.3467  0.8054  0.8601
   14MOL   C14412390   3.143   2.586   3.401  0.4459  0.2908 -0.2901
   14MOL   C14512391   3.056   2.549   3.282 -0.2924  0.2410  0.2810
   14MOL   C14612392   2.959   2.661   3.239 -0.0957 -0.2725 -0.4087
   14MOL   C14712393   2.866   2.616   3.129  1.1931 -0.2715 -0.1936
   14MOL   C14812394   2.939   2.603   2.994 -0.0553 -0.5964 -0.0743
   14MOL   C14912395   2.852   2.544   2.890 -0.7277  0.3223 -0.2016
   14MOL   C15012396   2.922   2.538   2.753  0.3761 -0.4839  0.2258
   14MOL   C15112397   2.840   2.465   2.646  0.8423  0.0645 -0.7953
   14MOL   C15212398   2.902   2.436   2.512  0.0124  0.0424  0.0539
   14MOL   C15312399   2.979   2.298   2.522  0.9200  0.0336  0.2070
   14MOL   O15412400   3.051   2.273   2.405  0.1722  0.2105 -0.1705
   14MOL   C15512401   3.103   2.152   2.393 -0.4343  0.3892  0.8842
   14MOL   O15612402   3.126   2.080   2.489  0.4509 -0.0821 -0.3313
   14MOL   C15712403   3.143   2.111   2.255  0.3723  1.0105 -0.2070
   14MOL   C15812404   3.160   1.971   2.227 -0.3140  0.3912  0.8083
   14MOL   C15912405   3.183   1.923   2.096  0.1351 -0.6468 -0.3581
   14MOL   C16012406   3.178   2.016   1.987 -0.0253 -0.3657 -0.0184
   14MOL   C16112407   3.177   1.970   1.842 -0.0598 -0.7315  0.1358
   14MOL   O16212408   3.182   1.848   1.816 -0.1135 -0.4472  0.3285
   14MOL   O16312409   3.185   2.067   1.748  0.3591  0.1451 -0.1136
   14MOL   C16412410   3.166   2.151   2.012  0.4421 -1.2570  0.3028
   14MOL   C16512411   3.142   2.198   2.144 -0.3725 -0.9549 -0.4439
   14MOL   H16612412   3.093   2.624   3.490 -1.3039  1.2046 -1.6478
   14MOL   H16712413   3.209   2.670   3.378  0.0894 -0.2628 -3.5872
   14MOL   H16812414   3.001   2.455   3.293 -0.2368 -0.3923 -3.9847
   14MOL   H16912415   3.132   2.533   3.206 -1.1335  1.5020 -0.8315
   14MOL   H17012416   2.898   2.698   3.321  1.6175 -0.1291  0.8367
   14MOL   H17112417   3.021   2.746   3.211 -0.0682  0.0455  0.5899
   14MOL   H17212418   2.783   2.685   3.113  0.8520 -0.6056  0.1111
   14MOL   H17312419   2.831   2.516   3.156 -2.4606  0.2495 -2.5455
   14MOL   H17412420   2.963   2.707   2.971 -1.6900  0.1481  1.5006
   14MOL   H17512421   3.030   2.549   3.022 -0.8687 -1.4352  0.9863
   14MOL   H17612422   2.809   2.447   2.917 -2.3635  0.7013 -1.3676
   14MOL   H17712423   2.760   2.602   2.880 -1.1138 -0.6146 -2.3243
   14MOL   H17812424   2.943   2.640   2.718  0.3997 -0.6923 -0.3759
   14MOL   H17912425   3.022   2.495   2.764  1.0179  0.9235  0.0286
   14MOL   H18012426   2.796   2.378   2.694 -0.0637  0.8280 -0.2274
   14MOL   H18112427   2.749   2.522   2.628  0.4047 -0.5313 -0.4367
   14MOL   H18212428   2.971   2.518   2.494  1.2101 -0.9585  0.0282
   14MOL   H18312429   2.837   2.439   2.425 -1.1427 -1.0419  0.8695
   14MOL   H18412430   2.903   2.223   2.541  0.5086  0.3293 -0.2415
   14MOL   H18512431   3.047   2.293   2.607  2.4585  0.9331 -0.9361
   14MOL   H18612432   3.153   1.910   2.316 -1.1643  1.6119  1.5954
   14MOL   H18712433   3.177   1.815   2.092  0.5127 -0.6895  0.2159
   14MOL   H18812434   3.167   2.232   1.941 -1.5465 -2.1501 -0.7894
   14MOL   H18912435   3.130   2.305   2.158 -0.2168 -0.7208 -2.0711
   14MOL   O19012436   3.187   2.021   1.603  0.2728  0.6729 -0.4532
   14MOL   C19112437   3.318   2.031   1.547  0.2917 -0.1268 -0.4539
   14MOL   C19212438   3.366   2.175   1.523 -0.1543 -0.8101 -0.3209
   14MOL   C19312439   3.420   2.244   1.658  0.1780  0.4314  0.5859
   14MOL   C19412440   3.475   2.379   1.632 -0.2769 -1.1941  0.0725
   14MOL   C19512441   3.510   2.442   1.767  0.4311  0.5268  0.3396
   14MOL   C19612442   3.405   2.440   1.872  0.3569  0.3124  0.8337
   14MOL   C19712443   3.435   2.517   1.996 -0.1923  0.0084 -0.9620
   14MOL   C19812444   3.320   2.498   2.092 -0.4930 -0.6179 -0.4592
   14MOL   C19912445   3.364   2.576   2.223  0.2046 -0.4294 -0.6895
   14MOL   C20012446   3.251   2.580   2.325 -0.2057 -0.1064 -0.0656
   14MOL   O20112447   3.286   2.487   2.425  0.4864  0.1281 -0.0666
   14MOL   C20212448   3.278   2.514   2.559  0.1748  0.3188  0.3041
   14MOL   O20312449   3.220   2.621   2.601 -0.2644  0.5510 -0.4709
   14MOL   C20412450   3.347   2.419   2.647  0.5129 -0.5731 -0.3694
   14MOL   C20512451   3.370   2.458   2.781 -0.1906 -0.1212  0.3564
   14MOL   C20612452   3.446   2.376   2.869  0.2966 -0.4356  0.6310
   14MOL   C20712453   3.505   2.256   2.820  0.4757 -0.2300  0.4283
   14MOL   C20812454   3.607   2.175   2.900  0.4230 -0.1437  1.0451
   14MOL   O20912455   3.649   2.065   2.864 -0.1508 -0.5462 -0.0043
   14MOL   O21012456   3.647   2.235   3.012 -0.6690  0.1515 -0.5267
   14MOL   C21112457   3.476   2.218   2.686 -0.4268 -0.3088  0.3402
   14MOL   C21212458   3.392   2.294   2.605  0.4652 -0.2096 -0.2926
   14MOL   H21312459   3.378   1.990   1.628 -0.6198 -0.2567  0.1756
   14MOL   H21412460   3.318   1.975   1.453 -0.6597 -1.6871  0.4447
   14MOL   H21512461   3.293   2.244   1.480  2.4619  1.6173 -1.0179
   14MOL   H21612462   3.450   2.179   1.454 -0.5845  3.2768 -0.7333
   14MOL   H21712463   3.330   2.256   1.719  0.0582 -0.7250  0.6500
   14MOL   H21812464   3.494   2.178   1.702 -0.1797 -1.6696 -1.9075
   14MOL   H21912465   3.404   2.439   1.575  1.0264 -2.3620 -2.8824
   14MOL   H22012466   3.558   2.386   1.562 -0.2875 -0.5226  0.1208
   14MOL   H22112467   3.605   2.403   1.804  0.3638  0.4461  0.4286
   14MOL   H22212468   3.521   2.549   1.748  0.3431  0.7388  1.4265
   14MOL   H22312469   3.307   2.469   1.835  1.5568  3.4468  0.0273
   14MOL   H22412470   3.388   2.336   1.901  0.4735  0.7238  2.4413
   14MOL   H22512471   3.530   2.483   2.039  0.0032  1.4304 -0.2234
   14MOL   H22612472   3.439   2.625   1.985  1.4638  0.0348 -0.2938
   14MOL   H22712473   3.229   2.547   2.057 -0.0937 -0.1600 -0.8666
   14MOL   H22812474   3.308   2.393   2.119 -1.7710 -0.3681 -0.0256
   14MOL   H22912475   3.400   2.677   2.202  1.6688 -0.9843 -0.8921
   14MOL   H23012476   3.449   2.524   2.267  0.9479  1.7889  0.6005
   14MOL   H23112477   3.154   2.557   2.281 -0.2095 -1.3553  0.5767
   14MOL   H23212478   3.233   2.674   2.376  3.1022  0.7621 -0.3860
   14MOL   H23312479   3.353   2.560   2.812  3.3071  1.1619 -1.6501
   14MOL   H23412480   3.463   2.409   2.970  2.1326  1.2439 -0.1888
   14MOL   H23512481   3.515   2.123   2.653  2.1266  1.1068 -0.8050
   14MOL   H23612482   3.364   2.260   2.506 -0.0010 -2.1982  0.5079
   14MOL   O23712483   3.719   2.140   3.108 -0.3531 -0.0749 -0.2022
   14MOL   C23812484   3.627   2.078   3.190  0.1634 -0.2764 -0.5413
   14MOL   C23912485   3.566   2.194   3.282 -0.0476 -0.8585  0.2143
   14MOL   C24012486   3.451   2.140   3.370 -0.0865  0.1925  0.6240
   14MOL   C24112487   3.325   2.105   3.288 -0.1592  0.0484  0.2503
   14MOL   C24212488   3.278   2.199   3.178  0.4714  0.2778  1.2669
   14MOL   C24312489   3.163   2.133   3.094  0.1398  0.1248  0.7017
   14MOL   C24412490   3.089   2.239   3.011 -0.5370 -0.4554 -0.9332
   14MOL   C24512491   3.009   2.186   2.892 -0.3200 -0.0731  0.1262
   14MOL   C24612492   2.919   2.065   2.926 -0.6782  0.1091  0.5100
   14MOL   C24712493   2.780   2.106   2.976  0.8293  0.0216  0.5297
   14MOL   O24812494   2.772   2.177   3.105  0.5456 -0.0671 -0.0143
   14MOL   C24912495   2.812   2.126   3.217 -1.2132 -0.3333  0.1535
   14MOL   O25012496   2.841   2.011   3.224  0.1599  0.5529  0.3506
   14MOL   C25112497   2.812   2.219   3.332  0.4707  0.4676  0.2987
   14MOL   C25212498   2.896   2.198   3.442 -0.4778  0.6119  0.1726
   14MOL   C25312499   2.897   2.293   3.549  0.3442 -0.5041  0.5818
   14MOL   C25412500   2.821   2.416   3.537 -0.0289  0.0601 -0.2053
   14MOL   C25512501   2.840   2.521   3.646  0.4790  0.7651  0.2055
   14MOL   O25612502   2.776   2.628   3.647 -0.3827  0.3704 -0.4356
   14MOL   O25712503   2.928   2.484   3.742 -0.1894 -0.8524  0.0500
   14MOL   C25812504   2.741   2.432   3.418  0.2319  0.4036 -0.9217
   14MOL   C25912505   2.732   2.336   3.317  0.4514  0.0382 -0.2898
   14MOL   H26012506   3.547   2.033   3.132 -1.7013  1.8913  0.2709
   14MOL   H26112507   3.664   1.996   3.250 -1.1342 -0.5026 -0.0383
   14MOL   H26212508   3.525   2.286   3.240 -1.8213 -1.0273  1.5020
   14MOL   H26312509   3.643   2.243   3.341  1.0267  0.0433 -1.8843
   14MOL   H26412510   3.489   2.057   3.429 -2.0237 -0.8039  0.5065
   14MOL   H26512511   3.433   2.219   3.444  0.2511 -0.2355  1.1704
   14MOL   H26612512   3.244   2.088   3.359  0.9515 -0.0679  1.5040
   14MOL   H26712513   3.347   2.004   3.252  1.4275  0.6524 -0.5423
   14MOL   H26812514   3.230   2.289   3.215 -1.3031 -0.2991  0.4352
   14MOL   H26912515   3.360   2.221   3.109 -0.3797  0.4243  0.2854
   14MOL   H27012516   3.214   2.060   3.032 -1.8577  0.5732 -1.5591
   14MOL   H27112517   3.097   2.087   3.167 -1.1296  3.1067  1.5337
   14MOL   H27212518   3.034   2.304   3.079  2.6655  1.6637 -0.2837
   14MOL   H27312519   3.170   2.299   2.971  1.1566 -2.9440 -1.3438
   14MOL   H27412520   2.946   2.268   2.858  1.7199  1.6087  0.2843
   14MOL   H27512521   3.077   2.153   2.813 -0.7697 -1.5850  0.3570
   14MOL   H27612522   2.976   2.000   2.991  0.2385  0.4143  0.0281
   14MOL   H27712523   2.897   2.013   2.833  1.0665 -0.4717  0.4014
   14MOL   H27812524   2.706   2.027   2.990 -0.1022  0.9800  1.0820
   14MOL   H27912525   2.742   2.174   2.899  3.7158  0.8085 -0.2796
   14MOL   H28012526   2.960   2.111   3.447  2.0529  2.3373 -1.5919
   14MOL   H28112527   2.951   2.268   3.639 -1.7545  2.9648  2.9522
   14MOL   H28212528   2.691   2.527   3.404 -0.0561  0.1852 -1.3836
   14MOL   H28312529   2.661   2.350   3.237 -1.3363  1.1226  1.4405
   14MOL   O28412530   2.928   2.584   3.861 -0.5126 -0.2278  0.0670
   14MOL   C28512531   3.053   2.655   3.854  0.0949 -0.2629 -0.0150
   14MOL   C28612532   3.055   2.768   3.952 -0.7586  0.1249  0.2601
   14MOL   C28712533   3.086   2.722   4.093  0.0875  0.8543  0.5689
   14MOL   C28812534   3.124   2.834   4.194  1.0477  0.0691 -0.3017
   14MOL   C28912535   3.001   2.906   4.264  0.9991  1.0248  0.2378
   14MOL   C29012536   3.047   3.021   4.358 -0.0368  0.4125  0.4014
   14MOL   C29112537   2.929   3.084   4.439 -0.2484 -0.2846  0.6358
   14MOL   C29212538   2.836   3.186   4.374 -0.6325 -0.3574 -0.5992
   14MOL   C29312539   2.712   3.199   4.467  0.0220 -0.6388 -0.5264
   14MOL   C29412540   2.600   3.282   4.413 -0.5699  0.5536 -0.0555
   14MOL   O29512541   2.638   3.420   4.412 -0.0090  0.6688  0.0580
   14MOL   C29612542   2.552   3.515   4.389  0.3601  0.4908  0.0707
   14MOL   O29712543   2.427   3.492   4.391 -0.6958  0.4590  0.1132
   14MOL   C29812544   2.603   3.648   4.352 -0.5136  0.0423 -0.2904
   14MOL   C29912545   2.745   3.684   4.358  0.0500  0.4203  0.0922
   14MOL   C30012546   2.790   3.801   4.300 -0.2742  0.1528  0.4354
   14MOL   C30112547   2.702   3.899   4.259  0.3054  0.2714 -0.2019
   14MOL   C30212548   2.764   4.034   4.237 -0.0154  0.5229 -0.0483
   14MOL   O30312549   2.881   4.050   4.207 -0.3463 -0.1015 -0.5449
   14MOL   O30412550   2.675   4.138   4.244 -0.1297 -0.2430 -0.1734
   14MOL   C30512551   2.561   3.880   4.262  0.8209  0.3509 -0.6384
   14MOL   C30612552   2.514   3.752   4.311  0.5492  0.5143  0.0179
   14MOL   H30712553   3.127   2.576   3.865 -1.3136 -1.6734 -0.4657
   14MOL   H30812554   3.058   2.691   3.751 -1.1070  0.6986  0.2440
   14MOL   H30912555   2.964   2.828   3.950  0.5704  2.2600  1.6949
   14MOL   H31012556   3.134   2.843   3.942  0.5051 -0.8677  2.5309
   14MOL   H31112557   3.009   2.651   4.122  0.9230 -0.1280  0.4247
   14MOL   H31212558   3.176   2.660   4.087 -0.5848 -0.0293 -0.5526
   14MOL   H31312559   3.188   2.906   4.143 -0.0159  1.2486  0.0031
   14MOL   H31412560   3.177   2.796   4.281 -1.8091 -1.2862  0.9094
   14MOL   H31512561   2.949   2.963   4.187 -0.1958 -1.9093 -1.1986
   14MOL   H31612562   2.936   2.833   4.313  0.4872  0.4004 -1.3446
   14MOL   H31712563   3.131   2.989   4.421  0.4936 -2.3530 -1.6099
   14MOL   H31812564   3.083   3.104   4.297  0.7627 -0.9717 -1.0519
   14MOL   H31912565   2.857   3.005   4.458 -2.6267  1.7371  0.2764
   14MOL   H32012566   2.965   3.127   4.533 -2.0623  1.7192  0.4560
   14MOL   H32112567   2.884   3.281   4.351  1.8068 -1.0446  1.4909
   14MOL   H32212568   2.819   3.137   4.278  0.4093 -1.0611 -0.4320
   14MOL   H32312569   2.746   3.226   4.566  0.5640 -2.7080 -0.1237
   14MOL   H32412570   2.671   3.100   4.489 -1.0477 -0.1242 -0.1804
   14MOL   H32512571   2.507   3.259   4.466 -0.3261  0.1580  0.2069
   14MOL   H32612572   2.577   3.245   4.313 -1.1895 -0.3519  0.4072
   14MOL   H32712573   2.810   3.611   4.403 -0.7039  0.3539  1.0885
   14MOL   H32812574   2.895   3.826   4.298  0.3894 -2.4712 -0.8880
   14MOL   H32912575   2.496   3.962   4.237  2.6555  1.7980 -0.7281
   14MOL   H33012576   2.412   3.720   4.300  0.2434  0.9252  1.4484
   14MOL   O33112577   2.738   4.268   4.198 -0.5173  0.5704 -0.2849
   14MOL   C33212578   2.776   4.345   4.316  0.6095 -0.0808  0.4258
   14MOL   C33312579   2.826   4.484   4.276  0.6593  1.0814 -0.4592
   14MOL   C33412580   2.969   4.485   4.222  0.0272  0.5301 -0.2927
   14MOL   C33512581   3.003   4.386   4.107  0.0045 -0.3947  0.2300
   14MOL   C33612582   3.135   4.427   4.037 -0.1677 -0.8712  0.3181
   14MOL   C33712583   3.170   4.335   3.920  0.5066 -0.4446 -0.7302
   14MOL   C33812584   3.294   4.381   3.841 -0.3649  0.2459  0.8310
   14MOL   C33912585   3.297   4.325   3.696  0.1068  0.2039 -0.3805
   14MOL   C34012586   3.425   4.377   3.630 -0.0410 -0.1940 -0.2452
   14MOL   C34112587   3.453   4.341   3.485 -0.1435 -0.2754 -0.6190
   14MOL   O34212588   3.436   4.201   3.483  0.3913 -0.4120  0.3681
   14MOL   C34312589   3.468   4.120   3.380 -0.4054 -0.2652 -0.7944
   14MOL   O34412590   3.504   4.167   3.274  0.3658 -0.2643 -0.5393
   14MOL   C34512591   3.444   3.973   3.410  0.1490  0.3377  0.2397
   14MOL   C34612592   3.496   3.877   3.324 -0.7219 -0.5660 -0.0762
   14MOL   C34712593   3.468   3.738   3.353 -0.3334  0.6768  0.1220
   14MOL   C34812594   3.385   3.701   3.455 -0.1010  0.0999  0.0633
   14MOL   C34912595   3.344   3.558   3.481  0.4300  0.4445 -0.1347
   14MOL   O35012596   3.358   3.471   3.394  0.0884 -0.9625 -0.3764
   14MOL   O35112597   3.303   3.531   3.609  0.6001 -0.8013  0.2191
   14MOL   C35212598   3.331   3.800   3.537 -0.5889  0.0025 -0.2941
   14MOL   C35312599   3.365   3.933   3.523  0.0033 -0.3471  0.3398
   14MOL   H35412600   2.684   4.344   4.374  0.7970 -0.4880  0.7147
   14MOL   H35512601   2.852   4.287   4.369  0.5508 -0.6623 -0.1180
   14MOL   H35612602   2.827   4.555   4.358 -1.1894 -0.3198  0.8277
   14MOL   H35712603   2.754   4.526   4.206 -1.4953  1.1228  1.7063
   14MOL   H35812604   2.998   4.584   4.189 -0.6200  0.0526 -2.3562
   14MOL   H35912605   3.041   4.461   4.301 -1.2202  2.2885  1.4200
   14MOL   H36012606   2.924   4.390   4.032 -0.4154 -2.7530  0.4885
   14MOL   H36112607   2.999   4.284   4.145  1.7346 -0.4575  0.2513
   14MOL   H36212608   3.123   4.529   4.001 -0.0112 -0.7309  0.6512
   14MOL   H36312609   3.211   4.437   4.115 -0.7388 -0.0933  0.7853
   14MOL   H36412610   3.176   4.232   3.955 -3.8080 -1.1945 -1.8428
   14MOL   H36512611   3.094   4.309   3.846  1.8480 -2.3941 -1.4655
   14MOL   H36612612   3.297   4.490   3.839 -0.4358  0.3091  2.6842
   14MOL   H36712613   3.385   4.357   3.897 -0.5529 -0.3233  0.8962
   14MOL   H36812614   3.290   4.217   3.707 -0.5463  0.1824 -1.0014
   14MOL   H36912615   3.213   4.368   3.641 -0.1731 -0.1748 -0.2510
   14MOL   H37012616   3.511   4.338   3.685  0.8712  3.6357  1.1958
   14MOL   H37112617   3.428   4.485   3.622  0.8352 -0.3448 -2.6519
   14MOL   H37212618   3.548   4.377   3.445 -0.3511  1.8086  0.6898
   14MOL   H37312619   3.380   4.383   3.416 -0.4057 -0.2568 -0.3332
   14MOL   H37412620   3.545   3.906   3.233 -1.8162 -0.3164 -0.6003
   14MOL   H37512621   3.504   3.657   3.291 -0.2283 -0.3900  1.5760
   14MOL   H37612622   3.262   3.776   3.616  0.9305  1.2031  1.4282
   14MOL   H37712623   3.335   4.007   3.596  0.1259 -0.5305  0.5744
   14MOL   O37812624   3.278   3.382   3.644 -0.4126 -0.0911 -0.1020
   14MOL   C37912625   3.147   3.353   3.687 -0.2697  0.5275  0.4816
   14MOL   C38012626   3.034   3.393   3.583 -0.5816  0.5847 -0.2819
   14MOL   C38112627   2.904   3.340   3.632 -0.1283  0.3215  0.1231
   14MOL   C38212628   2.784   3.373   3.544 -0.2858 -0.0298  0.2853
   14MOL   C38312629   2.657   3.314   3.614 -0.2150  0.2753 -0.4757
   14MOL   C38412630   2.525   3.353   3.549  0.1868  0.3363  1.4127
   14MOL   C38512631   2.495   3.272   3.421 -0.1360  0.0030 -0.2667
   14MOL   C38612632   2.377   3.332   3.349 -0.6321  0.1751  0.0205
   14MOL   C38712633   2.245   3.306   3.418  0.6670  0.1607  1.2359
   14MOL   C38812634   2.189   3.409   3.527  0.2721  0.0498 -0.9507
   14MOL   O38912635   2.115   3.517   3.468  0.3195  0.1057 -0.2534
   14MOL   C39012636   2.177   3.638   3.425  0.2265 -0.2858 -0.5728
   14MOL   O39112637   2.301   3.654   3.436  0.1370  0.0611  0.1297
   14MOL   C39212638   2.079   3.736   3.374 -0.1487 -0.0424 -0.4116
   14MOL   C39312639   2.122   3.874   3.352  0.1310 -0.3661 -0.3373
   14MOL   C39412640   2.027   3.978   3.311 -0.4355 -0.2301 -0.1378
   14MOL   C39512641   1.890   3.945   3.303 -0.4873  0.1132 -0.3215
   14MOL   C39612642   1.797   4.052   3.283  0.1623 -0.0312 -0.4646
   14MOL   O39712643   1.832   4.171   3.292  0.6269  0.2344 -0.0000
   14MOL   O39812644   1.671   4.010   3.264  0.0556  0.0677  0.3682
   14MOL   C39912645   1.847   3.811   3.309 -0.1504 -0.2840 -0.3164
   14MOL   C40012646   1.940   3.711   3.349  0.0249  0.0516 -0.3694
   14MOL   H40112647   3.127   3.250   3.715  2.7419  0.0079  0.9252
   14MOL   H40212648   3.131   3.412   3.777 -0.4552  0.3504  0.5651
   14MOL   H40312649   3.065   3.349   3.488 -2.0939  1.3414 -1.1511
   14MOL   H40412650   3.021   3.498   3.557 -1.0441  0.4927 -0.4360
   14MOL   H40512651   2.906   3.232   3.644  3.1284  0.3315  0.1763
   14MOL   H40612652   2.881   3.377   3.732  1.4119  0.8693  0.2863
   14MOL   H40712653   2.788   3.320   3.448 -0.4945  0.7282 -0.1430
   14MOL   H40812654   2.782   3.481   3.534 -0.2328 -0.2738 -3.1685
   14MOL   H40912655   2.668   3.207   3.635  0.7005  0.9189  2.4610
   14MOL   H41012656   2.653   3.349   3.717  0.4887  1.2021 -0.7606
   14MOL   H41112657   2.442   3.326   3.614 -0.8132 -0.5033 -0.1707
   14MOL   H41212658   2.518   3.461   3.536  0.7663  0.1185 -0.8494
   14MOL   H41312659   2.581   3.278   3.353  0.8868 -1.2601  0.8866
   14MOL   H41412660   2.489   3.164   3.435 -1.7762  0.4222  2.6219
   14MOL   H41512661   2.382   3.440   3.330 -0.4316  0.0511 -0.6459
   14MOL   H41612662   2.378   3.291   3.248 -0.4542  1.2508 -0.4231
   14MOL   H41712663   2.259   3.205   3.456  0.4554 -0.8398 -1.2863
   14MOL   H41812664   2.179   3.287   3.334 -0.4365  0.2817  2.0750
   14MOL   H41912665   2.279   3.450   3.571  0.2628 -1.4060  0.4619
   14MOL   H42012666   2.145   3.362   3.615  2.1011  0.8469  0.3951
   14MOL   H42112667   2.228   3.891   3.364  0.0842  1.5898 -2.3566
   14MOL   H42212668   2.050   4.083   3.302  1.4706 -0.5759  0.4497
   14MOL   H42312669   1.743   3.785   3.320 -0.8273  2.2299 -0.4334
   14MOL   H42412670   1.908   3.609   3.366  1.2971 -0.0346  1.6583
   14MOL   O42512671   1.580   4.121   3.241 -0.3494  0.7199  0.3572
   14MOL   C42612672   1.567   4.135   3.101  0.1375  0.1854 -0.1298
   14MOL   C42712673   1.449   4.051   3.049  0.6843  0.8883  0.4925
   14MOL   C42812674   1.423   4.058   2.905 -0.6756 -0.5447  0.2004
   14MOL   C42912675   1.295   3.982   2.857  0.1048  0.6013  0.7197
   14MOL   C43012676   1.254   4.013   2.718  0.0871 -0.9390 -0.1364
   14MOL   C43112677   1.381   4.001   2.617 -0.7106 -0.6440 -0.0328
   14MOL   C43212678   1.330   3.965   2.478 -0.3444 -0.9356  0.8675
   14MOL   C43312679   1.443   3.988   2.377 -0.5392  0.1271  0.0118
   14MOL   C43412680   1.410   3.970   2.229 -0.3351 -0.4242 -0.1537
   14MOL   C43512681   1.528   3.981   2.129 -0.0188 -0.0178 -0.2456
   14MOL   O43612682   1.582   4.111   2.138  0.5350  0.4583 -0.0170
   14MOL   C43712683   1.660   4.159   2.033 -0.2404 -0.0861  0.3853
   14MOL   O43812684   1.710   4.087   1.951  0.7802  0.0369 -0.0833
   14MOL   C43912685   1.701   4.303   2.047  0.5429 -0.4672 -0.0264
   14MOL   C44012686   1.646   4.384   2.148 -0.5286  0.3052  0.7861
   14MOL   C44112687   1.670   4.523   2.158 -0.1923 -0.0895 -1.3043
   14MOL   C44212688   1.753   4.585   2.059 -0.2742 -0.0642 -1.0974
   14MOL   C44312689   1.803   4.725   2.070 -0.0855 -0.2488 -0.0967
   14MOL   O44412690   1.900   4.765   1.996 -0.4802 -0.4416 -0.1009
   14MOL   O44512691   1.748   4.795   2.167  0.6198  0.0917 -0.1337
   14MOL   C44612692   1.807   4.507   1.952 -0.1058 -0.0505 -0.7277
   14MOL   C44712693   1.782   4.368   1.950 -0.2686 -0.0279  0.0146
   14MOL   H44812694   1.534   4.238   3.084 -1.2789  0.1612  2.3709
   14MOL   H44912695   1.659   4.128   3.042 -0.3103  0.9595 -0.9308
   14MOL   H45012696   1.359   4.067   3.108 -0.4917 -0.6523 -0.8402
   14MOL   H45112697   1.481   3.952   3.081 -2.3459 -0.1076  0.6344
   14MOL   H45212698   1.431   4.159   2.864 -0.4883 -0.7952 -0.3844
   14MOL   H45312699   1.513   4.013   2.863  0.2643  1.6801 -0.2201
   14MOL   H45412700   1.217   4.013   2.927 -0.5095  0.0079  0.2995
   14MOL   H45512701   1.309   3.877   2.882  1.7775  0.1943 -1.8032
   14MOL   H45612702   1.184   3.934   2.688  0.6191 -1.7914  0.8248
   14MOL   H45712703   1.214   4.114   2.714  1.8140 -0.2147  0.2088
   14MOL   H45812704   1.426   4.100   2.610  1.3202 -1.5264  0.0702
   14MOL   H45912705   1.463   3.934   2.643  0.9737  1.9909  1.7459
   14MOL   H46012706   1.298   3.861   2.484  0.3278 -1.1109  1.4930
   14MOL   H46112707   1.244   4.022   2.442  2.3662  1.8169 -1.5035
   14MOL   H46212708   1.490   4.086   2.392  0.2492 -0.3937  1.0374
   14MOL   H46312709   1.525   3.922   2.404  0.3882  0.9405 -0.7563
   14MOL   H46412710   1.331   4.038   2.198 -3.0726 -2.7166  1.5270
   14MOL   H46512711   1.361   3.873   2.216 -0.5337 -0.3423 -0.0321
   14MOL   H46612712   1.496   3.950   2.030  0.0125  0.8511 -0.5266
   14MOL   H46712713   1.606   3.909   2.155  0.6713  0.4460 -0.9934
   14MOL   H46812714   1.591   4.335   2.227  0.8676 -1.6837  0.5612
   14MOL   H46912715   1.627   4.577   2.242  3.1604  0.7621 -0.0617
   14MOL   H47012716   1.855   4.558   1.869 -0.1545 -0.2140 -0.8565
   14MOL   H47112717   1.826   4.309   1.871  0.1385  1.9400 -1.2523
   14MOL   O47212718   1.805   4.938   2.167 -0.6649 -0.1952  0.5599
   14MOL   C47312719   1.716   5.028   2.096 -0.0904 -0.0659 -0.8426
   14MOL   C47412720   1.778   5.167   2.070  0.5084 -0.3200 -0.8663
   14MOL   C47512721   1.909   5.155   1.979  0.5037  0.0079 -0.1833
   14MOL   C47612722   1.968   5.293   1.959  0.1485  0.0750  0.9155
   14MOL   C47712723   2.096   5.289   1.871  0.9291  0.4397  0.6697
   14MOL   C47812724   2.148   5.424   1.853 -0.0789 -0.6702  0.2130
   14MOL   C47912725   2.261   5.435   1.746 -0.1372  0.0194  0.1605
   14MOL   C48012726   2.396   5.385   1.794  0.3867  0.0862 -0.7228
   14MOL   C48112727   2.513   5.427   1.701  0.4160  0.8221  0.2564
   14MOL   C48212728   2.655   5.386   1.760  0.2341 -0.4205 -0.3236
   14MOL   O48312729   2.668   5.242   1.750 -0.3923 -0.2782  0.4100
   14MOL   C48412730   2.752   5.175   1.839 -0.0565 -0.0330 -0.4464
   14MOL   O48512731   2.830   5.230   1.920  0.3835  0.1756  0.0776
   14MOL   C48612732   2.738   5.028   1.827  0.2624 -0.5682 -0.2447
   14MOL   C48712733   2.630   4.973   1.756  0.8126 -0.6512 -0.1117
   14MOL   C48812734   2.619   4.831   1.743 -1.8366  0.4522  0.4907
   14MOL   C48912735   2.716   4.750   1.807 -0.6733  0.5539 -0.0089
   14MOL   C49012736   2.709   4.604   1.779  0.0043  0.0369  0.7530
   14MOL   O49112737   2.628   4.554   1.701  0.2593  0.5905 -0.3399
   14MOL   O49212738   2.791   4.524   1.849 -0.4085  0.3252  0.0026
   14MOL   C49312739   2.822   4.806   1.878 -0.0695 -0.6987 -0.1907
   14MOL   C49412740   2.833   4.943   1.887 -0.3346 -0.2281 -0.8764
   14MOL   H49512741   1.695   4.986   1.997 -0.2136 -0.0752 -0.8120
   14MOL   H49612742   1.621   5.044   2.146 -0.5246  2.7344 -2.4534
   14MOL   H49712743   1.800   5.198   2.172  0.3412 -3.1399  0.0750
   14MOL   H49812744   1.703   5.227   2.018  0.1735 -0.0736 -0.1137
   14MOL   H49912745   1.976   5.083   2.027 -1.2128 -1.9317 -0.6486
   14MOL   H50012746   1.866   5.112   1.889 -0.0603 -0.2124  0.1847
   14MOL   H50112747   1.986   5.341   2.055 -1.7440  0.9948  0.8268
   14MOL   H50212748   1.895   5.350   1.902  0.5765  0.3846  0.6819
   14MOL   H50312749   2.166   5.228   1.928 -1.3455 -0.4537  2.5677
   14MOL   H50412750   2.072   5.236   1.779 -0.6182  0.4130  1.0707
   14MOL   H50512751   2.076   5.498   1.820  0.4067  0.6618  2.0718
   14MOL   H50612752   2.183   5.460   1.950 -2.9665  1.5178  0.4854
   14MOL   H50712753   2.229   5.386   1.654  1.8806 -0.8139 -0.1205
   14MOL   H50812754   2.274   5.539   1.716  1.1426 -0.1556  0.0931
   14MOL   H50912755   2.418   5.427   1.892  1.0452 -2.0784  0.1050
   14MOL   H51012756   2.394   5.278   1.815 -0.7768  1.0167  4.5690
   14MOL   H51112757   2.514   5.535   1.685  1.2631  1.2775  3.1646
   14MOL   H51212758   2.496   5.373   1.607  1.0286  1.5328 -0.2709
   14MOL   H51312759   2.670   5.421   1.862  1.2990 -2.3972  0.2199
   14MOL   H51412760   2.735   5.440   1.709  0.5912 -0.1554  0.5208
   14MOL   H51512761   2.559   5.035   1.703  0.1609 -1.6354 -0.3961
   14MOL   H51612762   2.548   4.788   1.674 -0.3755  2.7561 -2.5515
   14MOL   H51712763   2.897   4.745   1.926  2.3247  1.2616 -1.3282
   14MOL   H51812764   2.908   4.999   1.940 -0.4759  0.0368 -0.9552
   14MOL   O51912765   2.767   4.373   1.826  0.2114 -0.1662  0.1111
   14MOL   C52012766   2.670   4.318   1.918  0.6540 -0.3170 -0.5261
   14MOL   C52112767   2.651   4.169   1.891 -0.7111 -0.7277 -0.1127
   14MOL   C52212768   2.778   4.090   1.933  1.6681  0.4455  0.7505
   14MOL   C52312769   2.749   3.939   1.913  0.2529 -0.2951 -0.2490
   14MOL   C52412770   2.875   3.871   1.972 -0.0687  0.3560  0.5629
   14MOL   C52512771   2.904   3.881   2.124  0.0663 -0.5915  0.2365
   14MOL   C52612772   3.030   3.803   2.164 -0.4776  0.0154  0.2032
   14MOL   C52712773   3.062   3.825   2.314  0.1871  0.1360  0.0282
   14MOL   C52812774   3.203   3.767   2.355  0.3272  0.1077 -1.2922
   14MOL   C52912775   3.312   3.873   2.325  0.1745 -0.0375  0.6717
   14MOL   O53012776   3.275   3.974   2.426 -0.2083  0.0242 -0.4568
   14MOL   C53112777   3.353   4.076   2.465  1.0161 -0.0728 -0.0001
   14MOL   O53212778   3.456   4.102   2.409  0.2068 -0.2086 -0.1090
   14MOL   C53312779   3.302   4.147   2.588 -0.0527 -0.1760  0.1259
   14MOL   C53412780   3.189   4.112   2.663  0.5372  0.1195 -0.1282
   14MOL   C53512781   3.164   4.168   2.789 -0.0585 -0.0803 -0.1122
   14MOL   C53612782   3.260   4.258   2.846 -0.6044  0.4423 -0.1787
   14MOL   C53712783   3.257   4.299   2.987  0.2617  0.2088 -0.2789
   14MOL   O53812784   3.303   4.405   3.025  0.0707 -0.1450 -0.1710
   14MOL   O53912785   3.195   4.211   3.068  0.4994 -0.5082  0.8638
   14MOL   C54012786   3.354   4.314   2.757  0.0270  0.4945 -0.0986
   14MOL   C54112787   3.383   4.252   2.634 -0.0947 -0.1849 -0.4235
   14MOL   H54212788   2.690   4.334   2.024 -0.2802 -1.8226 -0.1042
   14MOL   H54312789   2.575   4.372   1.909  1.0361  0.3901 -0.3403
   14MOL   H54412790   2.621   4.154   1.787  3.1967  0.7117 -1.5241
   14MOL   H54512791   2.565   4.127   1.943 -0.5518 -0.2095  0.5727
   14MOL   H54612792   2.872   4.120   1.887  0.8912  2.2532  0.3227
   14MOL   H54712793   2.787   4.113   2.040 -1.1388  1.8445  0.7382
   14MOL   H54812794   2.740   3.917   1.807  1.5493  0.5013 -0.5370
   14MOL   H54912795   2.652   3.917   1.957  0.7310 -0.7452  0.5897
   14MOL   H55012796   2.885   3.763   1.956  2.3470  0.7624 -0.8885
   14MOL   H55112797   2.960   3.907   1.914 -0.2285  0.5433  0.4465
   14MOL   H55212798   2.907   3.978   2.174  0.3264 -0.2615 -0.4128
   14MOL   H55312799   2.811   3.835   2.158 -0.0769 -1.0236 -0.7245
   14MOL   H55412800   3.041   3.697   2.139  4.2771  0.5442 -0.5151
   14MOL   H55512801   3.113   3.856   2.118  0.1499 -0.8821  0.2943
   14MOL   H55612802   3.040   3.930   2.334  0.0063  0.8099 -3.5136
   14MOL   H55712803   2.987   3.774   2.375  0.7933 -1.5601 -0.6205
   14MOL   H55812804   3.225   3.674   2.302  0.5562 -1.3604  1.2866
   14MOL   H55912805   3.205   3.741   2.461 -2.2138  1.7395 -0.8008
   14MOL   H56012806   3.303   3.919   2.227 -0.3926  0.5034  0.9770
   14MOL   H56112807   3.413   3.832   2.333  1.2908  2.4353 -0.1350
   14MOL   H56212808   3.131   4.024   2.637  1.7400 -0.1717 -1.9292
   14MOL   H56312809   3.083   4.124   2.845  1.9431 -1.3710  1.9031
   14MOL   H56412810   3.427   4.384   2.795  0.0143  0.0508  0.7509
   14MOL   H56512811   3.468   4.289   2.579  1.7483 -0.4533  2.1342
   14MOL   O56612812   3.201   4.254   3.215  0.1410 -0.5223 -0.0482
   14MOL   C56712813   3.082   4.320   3.244 -0.2196 -0.6273  1.0768
   14MOL   C56812814   3.077   4.365   3.391 -0.4043 -0.0985  0.2552
   14MOL   C56912815   2.956   4.462   3.418 -0.7441 -0.7293  0.0456
   14MOL   C57012816   2.950   4.505   3.566  0.3042 -0.7038  0.3877
   14MOL   C57112817   2.863   4.631   3.588 -0.0554 -0.0421  0.7343
   14MOL   C57212818   2.851   4.679   3.736 -0.3855  0.2120  0.2443
   14MOL   C57312819   2.788   4.582   3.840  0.5381  0.9704  0.5914
   14MOL   C57412820   2.638   4.570   3.817 -0.7011  0.6030 -0.3125
   14MOL   C57512821   2.573   4.483   3.931  0.5069 -0.2763  0.7692
   14MOL   C57612822   2.431   4.423   3.918 -0.1722  0.4279 -0.4536
   14MOL   O57712823   2.409   4.358   4.036 -0.4458  0.4583 -0.2068
   14MOL   C57812824   2.289   4.301   4.057  0.6708  0.0655 -0.4672
   14MOL   O57912825   2.194   4.317   3.977  0.3067 -0.2767  0.6471
   14MOL   C58012826   2.288   4.227   4.187  0.3675  0.1044 -0.2217
   14MOL   C58112827   2.391   4.229   4.282  0.6463 -0.6657 -0.2211
   14MOL   C58212828   2.386   4.150   4.398  0.4619 -0.4463  0.2841
   14MOL   C58312829   2.282   4.052   4.415 -0.0892  0.0295 -0.2173
   14MOL   C58412830   2.273   3.970   4.535 -0.0178 -0.4475 -0.9601
   14MOL   O58512831   2.176   3.902   4.558  0.8004  0.0850 -0.1283
   14MOL   O58612832   2.388   3.982   4.610 -0.2424  0.3295  0.1999
   14MOL   C58712833   2.175   4.056   4.322  0.0682 -0.6850 -0.0651
   14MOL   C58812834   2.172   4.147   4.217 -0.5651  0.1655  0.1032
   14MOL   H58912835   3.078   4.411   3.184  1.2646 -1.3017 -0.0674
   14MOL   H59012836   2.991   4.260   3.233 -1.4224  1.1047  1.3521
   14MOL   H59112837   3.176   4.407   3.412  0.5887 -2.2252 -0.0285
   14MOL   H59212838   3.079   4.280   3.460  1.9404  0.6933  1.2099
   14MOL   H59312839   2.984   4.548   3.356  0.9947 -1.0276  0.3816
   14MOL   H59412840   2.854   4.434   3.392 -1.1428 -0.5487  1.4119
   14MOL   H59512841   3.052   4.522   3.601  0.7071 -2.1557 -0.0681
   14MOL   H59612842   2.924   4.420   3.629 -1.8773  0.0204  0.4980
   14MOL   H59712843   2.914   4.700   3.522  1.9517 -2.1713 -0.0017
   14MOL   H59812844   2.765   4.606   3.546  0.7684 -0.3174 -1.0748
   14MOL   H59912845   2.953   4.715   3.755 -0.8339  1.6613 -0.0426
   14MOL   H60012846   2.795   4.772   3.746 -1.4126 -0.5222  1.3653
   14MOL   H60112847   2.828   4.481   3.845  1.6732  1.4416  1.4527
   14MOL   H60212848   2.815   4.621   3.939  0.6595  1.0680  0.5202
   14MOL   H60312849   2.601   4.672   3.829  0.7447  1.0909  0.0474
   14MOL   H60412850   2.598   4.526   3.725 -0.6776  1.1588 -0.5909
   14MOL   H60512851   2.569   4.562   4.006  1.8823  1.7735 -1.2180
   14MOL   H60612852   2.644   4.410   3.970  2.4015  1.3664  0.4725
   14MOL   H60712853   2.427   4.347   3.841 -1.0209  0.0991 -0.0976
   14MOL   H60812854   2.357   4.501   3.897 -1.8298 -0.3609  2.2040
   14MOL   H60912855   2.475   4.294   4.262  0.1973  0.2069  0.6797
   14MOL   H61012856   2.469   4.150   4.467 -0.3782  0.5472  1.3055
   14MOL   H61112857   2.098   3.984   4.347 -0.9294  0.3395 -0.1601
   14MOL   H61212858   2.095   4.140   4.141  0.7278 -1.0560 -1.1278
   14MOL   O61312859   2.373   3.893   4.731  0.1181  0.2592 -0.5770
   14MOL   C61412860   2.435   3.765   4.706  0.0744  0.3511  0.2451
   14MOL   C61512861   2.588   3.773   4.696 -0.3234  0.0686 -0.0545
   14MOL   C61612862   2.651   3.639   4.716 -0.6018  0.9647  0.3846
   14MOL   C61712863   2.805   3.637   4.716 -0.0015 -0.7995  0.3916
   14MOL   C61812864   2.873   3.501   4.738  0.8363  0.6918 -0.1047
   14MOL   C61912865   2.987   3.446   4.646 -0.6022  0.1002 -0.1031
   14MOL   C62012866   3.081   3.347   4.715 -0.1875  0.5784  0.1400
   14MOL   C62112867   3.204   3.294   4.642 -0.3630  0.3176  0.0622
   14MOL   C62212868   3.303   3.211   4.732 -0.3044 -0.2937 -0.1626
   14MOL   C62312869   3.449   3.220   4.692 -0.1980  0.0199  0.0533
   14MOL   O62412870   3.478   3.137   4.582 -0.3196 -0.5743  0.0129
   14MOL   C62512871   3.458   3.169   4.460  0.7758  0.0098  0.7303
   14MOL   O62612872   3.440   3.284   4.419  0.3628 -0.1712  0.4414
   14MOL   C62712873   3.469   3.056   4.363  0.0638  0.0268  0.3427
   14MOL   C62812874   3.515   3.078   4.232 -1.0514 -0.9166 -0.4203
   14MOL   C62912875   3.518   2.972   4.142 -0.1403 -0.0363  0.0293
   14MOL   C63012876   3.477   2.844   4.181  0.1198 -0.7691 -0.4961
   14MOL   C63112877   3.478   2.728   4.086 -0.1786 -0.0571  0.0648
   14MOL   O63212878   3.465   2.607   4.129  0.4996 -0.6293 -0.1343
   14MOL   O63312879   3.490   2.759   3.949  0.5267 -0.1717  0.3280
   14MOL   C63412880   3.439   2.816   4.317 -0.2228 -0.7754 -0.1729
   14MOL   C63512881   3.441   2.923   4.408 -0.9568  0.3202 -0.1291
   14MOL   H63612882   2.399   3.689   4.776 -0.0431 -1.0934 -1.3639
   14MOL   H63712883   2.411   3.722   4.609  1.4024  0.3774 -0.1004
   14MOL   H63812884   2.613   3.835   4.783  0.2411  0.1135 -0.2486
   14MOL   H63912885   2.621   3.820   4.604 -1.0671  0.0355 -0.3392
   14MOL   H64012886   2.605   3.588   4.800  0.0048 -1.7213 -0.8717
   14MOL   H64112887   2.618   3.581   4.630  0.9023 -1.9858  1.7583
   14MOL   H64212888   2.842   3.711   4.787  1.0596  0.2857 -1.2378
   14MOL   H64312889   2.849   3.670   4.621 -2.8383 -0.6992 -0.9350
   14MOL   H64412890   2.919   3.516   4.836 -1.1120  1.3574  0.7167
   14MOL   H64512891   2.802   3.424   4.769  0.6454  0.9700  0.1544
   14MOL   H64612892   2.936   3.414   4.555 -2.6010  2.6105  0.0833
   14MOL   H64712893   3.036   3.539   4.619 -0.0426 -1.1587 -3.5782
   14MOL   H64812894   3.108   3.390   4.811  1.3400  0.3424 -0.1684
   14MOL   H64912895   3.029   3.252   4.731  0.5109  0.4955  1.9799
   14MOL   H65012896   3.168   3.221   4.570 -3.6610  2.7714 -0.8880
   14MOL   H65112897   3.247   3.381   4.592  0.2942  0.8097  1.4419
   14MOL   H65212898   3.274   3.107   4.744 -1.6073  0.0357 -0.3482
   14MOL   H65312899   3.299   3.243   4.835 -1.2802 -2.2390  0.4342
   14MOL   H65412900   3.511   3.189   4.777 -1.4673  0.4661  1.1555
   14MOL   H65512901   3.483   3.322   4.676  0.8669 -0.1077  1.3920
   14MOL   H65612902   3.529   3.175   4.186  0.4955  0.3057  2.4584
   14MOL   H65712903   3.556   2.991   4.042 -1.5902 -0.4439 -0.6243
   14MOL   H65812904   3.411   2.720   4.357  1.2835 -0.8762  0.6846
   14MOL   H65912905   3.404   2.908   4.508  1.3544 -1.5706  0.5012
   14MOL   O66012906   3.512   2.628   3.870 -0.6993 -0.3806  0.7658
   14MOL   C66112907   3.643   2.624   3.822 -0.4739  0.4796 -0.0662
   14MOL   C66212908   3.690   2.754   3.752 -0.6487  0.0230 -0.4854
   14MOL   C66312909   3.624   2.783   3.620 -0.1717  0.3485  0.3453
   14MOL   C66412910   3.696   2.876   3.522 -0.2102  0.1745 -0.1126
   14MOL   C66512911   3.610   2.904   3.397 -0.2793 -0.0882 -0.3155
   14MOL   C66612912   3.669   2.995   3.287 -0.4713 -0.5153  0.6317
   14MOL   C66712913   3.702   3.138   3.337  0.5355  0.7617  0.1749
   14MOL   C66812914   3.765   3.215   3.220  0.5961  0.4783 -0.4618
   14MOL   C66912915   3.822   3.351   3.264 -0.0390  0.8792 -0.1271
   14MOL   C67012916   3.877   3.429   3.134  0.0460  0.2226  0.3354
   14MOL   O67112917   4.012   3.399   3.107 -0.2231  0.1413 -0.2253
   14MOL   C67212918   4.059   3.323   2.997  0.3199 -0.0657  0.7904
   14MOL   O67312919   3.989   3.287   2.901 -0.2550  0.1677  0.3765
   14MOL   C67412920   4.204   3.311   2.992  0.4062  0.1372  0.4355
   14MOL   C67512921   4.289   3.354   3.096  0.3542 -0.1787 -0.2329
   14MOL   C67612922   4.429   3.340   3.085  1.1777 -0.1770 -0.1239
   14MOL   C67712923   4.489   3.291   2.964 -0.1639  0.4683  0.0493
   14MOL   C67812924   4.638   3.276   2.963  0.1673  0.4236  1.0556
   14MOL   O67912925   4.712   3.313   3.051 -0.4340  0.7497 -0.2686
   14MOL   O68012926   4.682   3.219   2.852 -0.2086 -0.5805  0.2394
   14MOL   C68112927   4.406   3.245   2.859  0.6379  0.7964 -1.1857
   14MOL   C68212928   4.268   3.250   2.876 -0.3656 -0.1462 -0.7679
   14MOL   H68312929   3.710   2.620   3.908  0.7658 -1.1879 -1.0592
   14MOL   H68412930   3.668   2.533   3.766 -0.8139  0.3624 -0.0248
   14MOL   H68512931   3.794   2.740   3.723  0.1554  1.9020  1.3980
   14MOL   H68612932   3.705   2.825   3.833  1.9392 -0.6990 -0.2991
   14MOL   H68712933   3.604   2.688   3.572 -2.2697  1.1418 -0.4370
   14MOL   H68812934   3.528   2.819   3.656  0.6851  1.4379  1.5902
   14MOL   H68912935   3.788   2.818   3.510 -0.8426 -1.0083  0.6853
   14MOL   H69012936   3.726   2.962   3.584  2.1146 -0.8423  0.2432
   14MOL   H69112937   3.587   2.809   3.349  2.2122 -1.0822  0.4170
   14MOL   H69212938   3.507   2.934   3.416 -1.6659 -3.2454 -2.2872
   14MOL   H69312939   3.752   2.942   3.240 -0.0026  1.4885 -0.8545
   14MOL   H69412940   3.588   3.009   3.216  0.1919 -0.6364 -0.1477
   14MOL   H69512941   3.607   3.187   3.360 -0.1603  0.5635 -2.1722
   14MOL   H69612942   3.763   3.138   3.428  0.9369  0.1567 -0.0917
   14MOL   H69712943   3.843   3.162   3.166  0.2504 -1.7496  1.1354
   14MOL   H69812944   3.679   3.233   3.157 -0.1430  0.4242  0.5169
   14MOL   H69912945   3.909   3.328   3.325  1.2148  0.4413 -2.0658
   14MOL   H70012946   3.750   3.403   3.328 -1.7912 -1.8764  0.2143
   14MOL   H70112947   3.870   3.536   3.151 -1.2121 -0.3152  3.5913
   14MOL   H70212948   3.817   3.419   3.043 -1.4299  0.4635  1.2698
   14MOL   H70312949   4.250   3.400   3.186  0.8997 -1.0849  0.4771
   14MOL   H70412950   4.498   3.371   3.162 -1.1972  0.0198  1.9859
   14MOL   H70512951   4.450   3.192   2.775  2.0308  2.3792 -1.4748
   14MOL   H70612952   4.205   3.210   2.799 -2.1281  1.4036 -0.1590
   14MOL   O70712953   4.831   3.211   2.855  0.5904  0.0397  1.0922
   14MOL   C70812954   4.879   3.275   2.736  0.1391  0.0109 -0.0617
   14MOL   C70912955   5.020   3.239   2.695  0.5280  0.3136 -0.3975
   14MOL   C71012956   5.055   3.089   2.695 -0.7371  0.3750 -0.7752
   14MOL   C71112957   5.010   3.022   2.561 -0.6054  0.5456  0.1484
   14MOL   C71212958   5.038   2.870   2.550  0.0431  0.8781  0.0953
   14MOL   C71312959   5.066   2.827   2.398  0.4996  0.3075 -0.4030
   14MOL   C71412960   5.118   2.685   2.389 -0.3459 -0.1738  0.3680
   14MOL   C71512961   4.996   2.602   2.426 -0.6177 -1.1021  0.0755
   14MOL   C71612962   5.011   2.456   2.407 -0.4208  0.5612 -0.0896
   14MOL   C71712963   4.886   2.372   2.446  1.0041  0.6049 -0.2506
   14MOL   O71812964   4.779   2.427   2.377  0.3966  0.4623  0.4704
   14MOL   C71912965   4.658   2.363   2.361 -0.1549  0.3317 -0.0328
   14MOL   O72012966   4.630   2.253   2.414 -0.0991  0.4486 -0.6841
   14MOL   C72112967   4.567   2.436   2.276 -1.0944  0.4586 -0.5112
   14MOL   C72212968   4.443   2.377   2.243  0.2129  0.4225  0.0045
   14MOL   C72312969   4.348   2.441   2.161 -0.0004  0.0839 -0.8112
   14MOL   C72412970   4.391   2.567   2.112 -0.2895 -0.2108 -0.2278
   14MOL   C72512971   4.305   2.641   2.011 -0.3937  0.7858  0.2907
   14MOL   O72612972   4.333   2.747   1.959  0.1015  0.4941  0.5973
   14MOL   O72712973   4.202   2.573   1.967  0.1555 -0.5259  0.2638
   14MOL   C72812974   4.515   2.633   2.142  0.0649 -0.3807 -0.0884
   14MOL   C72912975   4.591   2.573   2.235  0.1747  0.4788 -0.0675
   14MOL   H73012976   4.815   3.241   2.654  0.6207 -0.2673 -0.3241
   14MOL   H73112977   4.866   3.384   2.734  0.6626  0.0811  0.5583
   14MOL   H73212978   5.101   3.288   2.749  0.6880  0.9913 -1.2533
   14MOL   H73312979   5.047   3.285   2.601  2.1456  2.1379  0.9222
   14MOL   H73412980   5.162   3.079   2.711 -0.5549  1.8591 -0.9924
   14MOL   H73512981   5.003   3.053   2.784  0.2763  2.6017  0.7511
   14MOL   H73612982   5.061   3.080   2.485  0.5914  2.6508  2.4748
   14MOL   H73712983   4.905   3.047   2.546 -0.8433 -0.6257 -0.1937
   14MOL   H73812984   5.127   2.838   2.604 -0.1892 -0.5478 -0.3508
   14MOL   H73912985   4.952   2.821   2.595  0.6654 -0.5502 -0.2153
   14MOL   H74012986   4.968   2.840   2.352  0.4857 -0.4118 -0.5842
   14MOL   H74112987   5.141   2.892   2.354  0.7179 -0.4334 -1.1458
   14MOL   H74212988   5.149   2.667   2.286 -1.4445 -0.9102  0.1677
   14MOL   H74312989   5.196   2.667   2.464  2.0567 -1.5448 -2.3451
   14MOL   H74412990   4.971   2.619   2.531 -2.3145 -0.6101 -0.3796
   14MOL   H74512991   4.913   2.638   2.365 -0.0831  0.2191  0.0925
   14MOL   H74612992   5.098   2.427   2.466 -0.6242 -1.8041 -0.9306
   14MOL   H74712993   5.038   2.430   2.305  1.5196  2.6143 -0.1266
   14MOL   H74812994   4.873   2.378   2.554 -0.9149 -2.1054 -0.2584
   14MOL   H74912995   4.901   2.266   2.422 -0.5465  0.6566 -1.5132
   14MOL   H75012996   4.438   2.275   2.279  0.6122  0.0906 -0.8547
   14MOL   H75112997   4.254   2.394   2.137 -0.0976 -1.1028  1.7035
   14MOL   H75212998   4.541   2.724   2.090 -0.7579  0.1387  0.3744
   14MOL   H75312999   4.674   2.631   2.273  1.7928 -1.6923 -0.2241
   14MOL   O75413000   4.129   2.627   1.845  0.2104  0.3038  0.5272
   14MOL   C75513001   4.181   2.575   1.724 -0.9252  0.0830  0.2437
   14MOL   C75613002   4.131   2.651   1.606  0.1061 -0.1999  0.2051
   14MOL   C75713003   3.984   2.621   1.583 -0.1926  0.2601 -0.2430
   14MOL   C75813004   3.933   2.656   1.444 -0.5194 -0.2883 -0.0035
   14MOL   C75913005   3.787   2.657   1.413  0.2913 -0.7986  0.5367
   14MOL   C76013006   3.698   2.731   1.517 -0.2599 -0.5729  0.6515
   14MOL   C76113007   3.559   2.759   1.457 -0.4792 -0.2448 -0.5248
   14MOL   C76213008   3.481   2.861   1.536 -0.4705  0.0034  0.2662
   14MOL   C76313009   3.338   2.894   1.481 -0.1881  0.2643  0.4461
   14MOL   C76413010   3.242   2.981   1.568 -1.0108 -0.1475 -0.3748
   14MOL   O76513011   3.180   2.907   1.665  0.1038 -0.5148 -0.3507
   14MOL   C76613012   3.205   2.927   1.799  0.3362  0.3811 -0.6191
   14MOL   O76713013   3.300   2.990   1.846 -0.3276  0.2429 -0.0919
   14MOL   C76813014   3.100   2.860   1.891  0.5069 -0.2759  0.0559
   14MOL   C76913015   3.133   2.829   2.019  0.0800 -0.4403  0.5010
   14MOL   C77013016   3.042   2.778   2.111 -0.5442  0.2791 -0.6966
   14MOL   C77113017   2.906   2.752   2.077 -0.2332 -0.0323  0.2849
   14MOL   C77213018   2.804   2.711   2.175  0.0594 -0.3978  0.7156
   14MOL   O77313019   2.686   2.700   2.148 -0.3123 -0.3772  0.1938
   14MOL   O77413020   2.842   2.701   2.304 -0.5746  0.0043  0.8166
   14MOL   C77513021   2.871   2.794   1.943 -0.4856  0.0344 -0.1228
   14MOL   C77613022   2.964   2.840   1.850  0.5666 -0.1791  0.1315
   14MOL   H77713023   4.289   2.593   1.724 -0.7849 -0.7577  0.1440
   14MOL   H77813024   4.160   2.470   1.709  2.5745 -0.8127  1.0311
   14MOL   H77913025   4.195   2.607   1.529  0.0120 -0.6359  0.3694
   14MOL   H78013026   4.152   2.757   1.614 -1.9734  0.2724 -0.2833
   14MOL   H78113027   3.958   2.518   1.606 -0.4355  0.1268 -1.0888
   14MOL   H78213028   3.930   2.685   1.652 -0.8214  1.1058 -1.4860
   14MOL   H78313029   3.980   2.589   1.372  0.7270  1.6459 -1.0441
   14MOL   H78413030   3.981   2.750   1.414 -1.0646  0.6332  1.9122
   14MOL   H78513031   3.780   2.686   1.308 -0.0922 -1.9045  0.2570
   14MOL   H78613032   3.761   2.552   1.420  0.6267 -0.9154  0.0334
   14MOL   H78713033   3.687   2.670   1.607  0.2374  0.5176  1.4663
   14MOL   H78813034   3.752   2.822   1.542 -0.0799 -0.5424  0.1495
   14MOL   H78913035   3.554   2.779   1.350 -0.3495 -1.3379 -0.7487
   14MOL   H79013036   3.514   2.660   1.467  0.1952 -0.3185  2.0771
   14MOL   H79113037   3.470   2.837   1.642  2.2689  1.5461  0.9603
   14MOL   H79213038   3.545   2.949   1.547 -1.4147  0.7569 -0.1200
   14MOL   H79313039   3.286   2.802   1.456  1.0026 -0.4146  0.4313
   14MOL   H79413040   3.350   2.949   1.388 -2.4985  1.0471  0.5763
   14MOL   H79513041   3.156   3.027   1.520 -0.7698  0.5951 -0.1076
   14MOL   H79613042   3.297   3.069   1.603 -0.7008 -0.4256 -0.1618
   14MOL   H79713043   3.234   2.846   2.054 -0.5472  1.0889  1.6369
   14MOL   H79813044   3.068   2.771   2.215 -1.8124  0.9923 -0.3110
   14MOL   H79913045   2.767   2.783   1.917 -0.6028  0.0001  0.3443
   14MOL   H80013046   2.928   2.871   1.753 -1.1034 -0.5220  0.6196
   14MOL   O80113047   2.726   2.695   2.393 -0.8977 -0.5176  0.4400
   14MOL   C80213048   2.692   2.820   2.444  0.3669 -0.0866 -0.5139
   14MOL   C80313049   2.795   2.861   2.556  0.4995 -0.2605 -0.1083
   14MOL   C80413050   2.785   3.000   2.603 -0.3180 -0.2719 -0.3108
   14MOL   C80513051   2.845   3.009   2.741  0.1882 -0.4417 -0.2108
   14MOL   C80613052   2.880   3.157   2.772 -0.1980  1.3841 -0.0485
   14MOL   C80713053   2.908   3.192   2.919  0.0026 -0.0078 -1.6037
   14MOL   C80813054   2.777   3.201   2.994 -0.6293 -0.0587 -0.2647
   14MOL   C80913055   2.790   3.171   3.145 -0.1513 -0.4531 -0.3732
   14MOL   C81013056   2.775   3.017   3.158 -0.1387  0.7228 -0.0160
   14MOL   C81113057   2.791   2.972   3.301  0.4764 -0.1565 -0.3165
   14MOL   O81213058   2.922   2.995   3.350 -0.3559 -0.3062  0.3555
   14MOL   C81313059   2.946   2.952   3.473  0.4258 -0.7388 -0.0928
   14MOL   O81413060   2.875   2.870   3.537  0.1918  0.0036  0.3655
   14MOL   C81513061   3.079   3.007   3.527  0.4202  0.1939  0.6025
   14MOL   C81613062   3.169   3.073   3.435  0.2755  0.8441 -0.8070
   14MOL   C81713063   3.299   3.100   3.484 -0.1732 -0.1922 -0.0291
   14MOL   C81813064   3.336   3.076   3.618 -0.1010 -0.2836  0.4845
   14MOL   C81913065   3.471   3.113   3.672  0.2919 -0.2124 -0.1204
   14MOL   O82013066   3.512   3.089   3.788  0.0260  0.2071 -0.0107
   14MOL   O82113067   3.539   3.174   3.585 -0.0367 -0.4142  0.0303
   14MOL   C82213068   3.239   3.022   3.705  0.4800  0.2754 -0.1751
   14MOL   C82313069   3.120   2.966   3.658  0.4186 -0.5590  0.8267
   14MOL   H82413070   2.707   2.884   2.357 -0.4598 -0.6766 -1.0947
   14MOL   H82513071   2.586   2.824   2.468  0.5499  3.2763  0.0386
   14MOL   H82613072   2.896   2.832   2.531  1.1529 -0.5165  2.6897
   14MOL   H82713073   2.780   2.789   2.636 -0.2628  0.7072  0.6315
   14MOL   H82813074   2.833   3.065   2.531  0.1350 -2.9805 -2.5222
   14MOL   H82913075   2.682   3.035   2.608  0.1403  1.3158 -1.5569
   14MOL   H83013076   2.927   2.938   2.743  0.3304 -0.2607  0.5331
   14MOL   H83113077   2.771   2.967   2.809  0.7282 -0.5960  0.2913
   14MOL   H83213078   2.964   3.190   2.713  0.5346 -1.0590 -0.4502
   14MOL   H83313079   2.795   3.220   2.744 -0.5292  0.7175 -0.5586
   14MOL   H83413080   2.971   3.117   2.967 -0.1750  0.2395 -0.9878
   14MOL   H83513081   2.953   3.291   2.923  1.3898 -0.6370 -1.2144
   14MOL   H83613082   2.745   3.305   2.986  0.9380  0.4643 -0.0291
   14MOL   H83713083   2.699   3.136   2.954 -0.7161 -1.4380  2.0821
   14MOL   H83813084   2.881   3.218   3.180  0.4687 -0.3114 -2.1174
   14MOL   H83913085   2.708   3.224   3.193  0.1104 -0.4985  0.1286
   14MOL   H84013086   2.840   2.952   3.099 -1.9859 -1.4148  0.2671
   14MOL   H84113087   2.675   2.989   3.127  0.4531 -0.0078 -1.3080
   14MOL   H84213088   2.765   2.868   3.318  2.6330 -0.5124  1.0769
   14MOL   H84313089   2.724   3.034   3.361  0.0732  0.8517 -1.7687
   14MOL   H84413090   3.143   3.103   3.335 -1.0352 -1.8368 -1.3187
   14MOL   H84513091   3.370   3.143   3.414  0.9602 -2.5426 -0.3655
   14MOL   H84613092   3.262   3.014   3.810  1.1243  0.0011 -0.3295
   14MOL   H84713093   3.049   2.916   3.722 -1.1962  0.4562 -0.1413
   14MOL   O84813094   3.680   3.215   3.640  0.5082  0.3093 -0.2212
   14MOL   C84913095   3.691   3.350   3.616  0.1725 -0.2714 -0.5264
   14MOL   C85013096   3.612   3.434   3.720 -0.4535  0.5256  1.1319
   14MOL   C85113097   3.634   3.581   3.719 -0.5508  0.1104  0.6512
   14MOL   C85213098   3.558   3.650   3.829  0.2128  0.2218 -0.3100
   14MOL   C85313099   3.591   3.801   3.830  0.1803 -0.0266  0.5017
   14MOL   C85413100   3.515   3.877   3.938 -0.2194 -0.1519 -0.4669
   14MOL   C85513101   3.360   3.906   3.910 -0.1343 -0.1818  0.0801
   14MOL   C85613102   3.280   3.959   4.027 -0.5826 -0.0101  0.2191
   14MOL   C85713103   3.128   3.955   3.995 -0.6790  0.2706  1.1622
   14MOL   C85813104   3.071   3.810   3.987  0.3318 -0.0121 -0.0492
   14MOL   O85913105   2.932   3.829   3.956  0.6274 -0.2938 -0.2979
   14MOL   C86013106   2.855   3.726   3.945  0.0106 -0.5029 -0.2829
   14MOL   O86113107   2.904   3.613   3.949 -0.1813 -0.6118 -0.3932
   14MOL   C86213108   2.711   3.757   3.916 -0.2866 -0.1679  0.2940
   14MOL   C86313109   2.639   3.651   3.852  0.8194  0.3972  0.5660
   14MOL   C86413110   2.504   3.678   3.828  0.0159  0.2075 -0.0236
   14MOL   C86513111   2.444   3.804   3.851  0.2770  0.4132 -0.2982
   14MOL   C86613112   2.301   3.834   3.815 -0.0852 -0.0644 -0.4968
   14MOL   O86713113   2.234   3.753   3.757 -0.2849 -0.1329  0.0376
   14MOL   O86813114   2.260   3.953   3.855 -0.2216 -0.2960 -0.9543
   14MOL   C86913115   2.530   3.911   3.898 -0.0370 -0.1427 -0.1855
   14MOL   C87013116   2.663   3.889   3.936 -0.2839 -0.4927 -0.4272
   14MOL   H87113117   3.796   3.378   3.622 -0.2614  1.5108 -0.9938
   14MOL   H87213118   3.660   3.384   3.518 -0.8203 -0.1964 -0.1986
   14MOL   H87313119   3.642   3.398   3.818  2.3124  0.6655  0.3616
   14MOL   H87413120   3.507   3.408   3.706  0.0664 -1.2179  0.3868
   14MOL   H87513121   3.739   3.591   3.747  0.0365 -1.2218 -0.9471
   14MOL   H87613122   3.609   3.620   3.620  0.4329 -1.8278 -0.3940
   14MOL   H87713123   3.579   3.602   3.924 -0.8589  2.4700  1.1086
   14MOL   H87813124   3.450   3.633   3.822 -0.1507  1.6966  1.5951
   14MOL   H87913125   3.698   3.815   3.838  0.2657 -0.9548  1.1478
   14MOL   H88013126   3.566   3.853   3.738  3.4408 -0.5505 -0.7472
   14MOL   H88113127   3.506   3.824   4.033 -0.8260  2.6374  1.1105
   14MOL   H88213128   3.559   3.971   3.971  2.0721 -1.2728 -0.2692
   14MOL   H88313129   3.344   3.985   3.836  1.9494  1.4581  1.3092
   14MOL   H88413130   3.303   3.819   3.878 -0.8466 -0.7580  2.7928
   14MOL   H88513131   3.295   3.899   4.117  1.0589 -0.9596 -0.6798
   14MOL   H88613132   3.299   4.062   4.056  0.1993 -0.1600  0.2397
   14MOL   H88713133   3.110   3.993   3.895 -2.6066 -0.3956  1.2211
   14MOL   H88813134   3.068   4.012   4.066  0.2553  5.1704 -1.8014
   14MOL   H88913135   3.090   3.753   4.078 -0.7272 -1.3436 -0.6392
   14MOL   H89013136   3.116   3.751   3.907  1.0170 -0.8297  0.9246
   14MOL   H89113137   2.677   3.554   3.823 -0.1342  0.4971 -1.1298
   14MOL   H89213138   2.450   3.616   3.758 -0.1105  0.9381 -0.5740
   14MOL   H89313139   2.497   4.013   3.914  2.0865  0.2540  1.8750
   14MOL   H89413140   2.727   3.966   3.976 -0.1008 -1.0836  0.4540
   14MOL   O89513141   2.107   3.967   3.834  0.2669  0.7298  0.4277
   14MOL   C89613142   2.084   4.061   3.720  0.5466 -0.3172  0.0016
   14MOL   C89713143   1.937   4.088   3.698  0.8282  0.2249 -0.3369
   14MOL   C89813144   1.862   3.958   3.666 -0.2238 -0.6236  0.1281
   14MOL   C89913145   1.712   3.987   3.658 -0.1671  0.0927 -0.3113
   14MOL   C90013146   1.623   3.867   3.615 -0.2385 -0.1950 -0.2579
   14MOL   C90113147   1.620   3.740   3.700 -0.3782  0.0988 -0.7101
   14MOL   C90213148   1.729   3.643   3.652  0.2599  0.3141 -0.1728
   14MOL   C90313149   1.728   3.502   3.718  0.7652 -1.2719 -0.6080
   14MOL   C90413150   1.850   3.421   3.682  0.2453 -0.8170  0.2547
   14MOL   C90513151   1.841   3.275   3.736 -0.5888 -0.2118 -0.2364
   14MOL   O90613152   1.969   3.205   3.703  0.4604 -0.6608 -0.0429
   14MOL   C90713153   1.975   3.107   3.617  0.5276  0.0175  0.4150
   14MOL   O90813154   1.875   3.064   3.555 -0.7827  0.0046 -0.2404
   14MOL   C90913155   2.108   3.038   3.602  0.0959  0.3198  0.0140
   14MOL   C91013156   2.129   2.952   3.493 -0.0503 -0.1986  0.2953
   14MOL   C91113157   2.248   2.883   3.488  0.3803 -0.0599 -0.8745
   14MOL   C91213158   2.353   2.909   3.583 -0.5695  0.3543 -0.2071
   14MOL   C91313159   2.481   2.828   3.582 -0.4308 -0.4225 -0.7698
   14MOL   O91413160   2.520   2.765   3.482  0.2847 -0.3642 -0.5291
   14MOL   O91513161   2.575   2.860   3.685 -0.4898  0.2837  0.3274
   14MOL   C91613162   2.341   3.002   3.683 -0.5181  0.0999 -0.4145
   14MOL   C91713163   2.213   3.059   3.699  0.0866 -0.1015  0.1915
   14MOL   H91813164   2.143   4.150   3.744  0.8866 -0.6528  0.4363
   14MOL   H91913165   2.130   4.024   3.628 -0.8485  0.5507 -1.0611
   14MOL   H92013166   1.906   4.151   3.615  0.2386 -0.0898 -0.3614
   14MOL   H92113167   1.904   4.132   3.793 -1.1203 -2.2061  0.1644
   14MOL   H92213168   1.896   3.911   3.574  0.0565  0.0170 -0.0964
   14MOL   H92313169   1.892   3.881   3.736  0.9920 -0.3270 -0.0528
   14MOL   H92413170   1.708   4.069   3.585 -0.4812  2.4183  2.2234
   14MOL   H92513171   1.674   4.027   3.752  1.5189 -2.1945  1.3862
   14MOL   H92613172   1.524   3.911   3.606 -0.2651 -0.6119 -2.4706
   14MOL   H92713173   1.650   3.837   3.513 -1.5362 -3.2694  0.2356
   14MOL   H92813174   1.622   3.770   3.805  1.6267  0.0325 -0.7076
   14MOL   H92913175   1.517   3.704   3.702 -1.1656  2.2404 -1.6012
   14MOL   H93013176   1.715   3.629   3.545  0.8096 -0.1900 -0.1830
   14MOL   H93113177   1.831   3.682   3.656 -0.3376  1.8754  0.3465
   14MOL   H93213178   1.738   3.529   3.823 -0.5867 -0.2511 -0.7400
   14MOL   H93313179   1.638   3.441   3.708  0.0184 -0.4900  1.1104
   14MOL   H93413180   1.936   3.459   3.737  0.0526  0.2537 -0.1815
   14MOL   H93513181   1.870   3.422   3.575 -2.3979  1.2308 -0.2868
   14MOL   H93613182   1.744   3.231   3.710 -0.9924  0.9084 -0.6627
   14MOL   H93713183   1.839   3.282   3.845 -0.7214 -0.3629 -0.2290
   14MOL   H93813184   2.050   2.924   3.424 -1.5213  0.0666  1.8613
   14MOL   H93913185   2.259   2.799   3.422  1.2602 -1.2033  0.6945
   14MOL   H94013186   2.419   3.021   3.755 -1.6024 -0.4309  0.9127
   14MOL   H94113187   2.203   3.138   3.772  0.9596  0.6440 -0.4946
   14MOL   H94213188   2.658   2.821   3.664 -0.7547  0.0115 -0.2391
   15MOL     O113189   7.516   1.958   5.321  0.5255 -0.0349  0.1855
   15MOL     C213190   7.522   1.824   5.357 -0.1952  0.2623  0.1246
   15MOL     C313191   7.524   1.733   5.237  0.5715 -0.5433 -0.9173
   15MOL     C413192   7.512   1.587   5.288  0.0438 -0.1475  0.1700
   15MOL     C513193   7.523   1.484   5.173  0.6502  0.3077  0.1460
   15MOL     C613194   7.395   1.478   5.082  0.0347 -0.6763  0.4405
   15MOL     C713195   7.379   1.347   5.002 -0.0224 -0.4411  0.1724
   15MOL     C813196   7.245   1.340   4.920 -0.3445  0.7080  0.1057
   15MOL     C913197   7.241   1.198   4.859  0.2534  0.4786 -0.3366
   15MOL    C1013198   7.118   1.171   4.769 -0.6596 -0.8064 -0.0828
   15MOL    C1113199   7.123   1.042   4.691  0.4972  0.0490  0.0399
   15MOL    O1213200   7.023   1.048   4.591  0.9134 -0.3637 -0.0862
   15MOL    C1313201   6.950   0.936   4.553 -0.0880  0.2789 -0.2713
   15MOL    O1413202   6.980   0.822   4.599  0.0527  0.9475  0.2066
   15MOL    C1513203   6.837   0.984   4.456  0.5899  0.6693 -0.9554
   15MOL    C1613204   6.728   0.895   4.439  0.1398 -0.2307  0.0199
   15MOL    C1713205   6.634   0.943   4.343  0.1246 -0.2201  0.4036
   15MOL    C1813206   6.645   1.073   4.273  0.0608  0.4155 -0.0093
   15MOL    C1913207   6.534   1.119   4.184  0.1663 -0.8094 -0.3883
   15MOL    O2013208   6.437   1.055   4.150  0.1656  0.3818 -0.2594
   15MOL    O2113209   6.553   1.246   4.133  0.8747  0.6145 -0.2270
   15MOL    C2213210   6.761   1.152   4.292  0.2388 -0.2609 -0.2185
   15MOL    C2313211   6.851   1.111   4.392 -0.3178  0.2868  0.4002
   15MOL    H2413212   7.609   1.802   5.419  0.3900 -0.2039 -0.8530
   15MOL    H2513213   7.437   1.801   5.420 -0.6316  0.1541 -0.5041
   15MOL    H2613214   7.616   1.747   5.179  0.4802 -1.0554 -1.1879
   15MOL    H2713215   7.431   1.749   5.182 -0.0772  0.2765  0.4022
   15MOL    H2813216   7.589   1.568   5.362  1.0945 -0.0671 -0.8817
   15MOL    H2913217   7.423   1.566   5.347  1.0160 -1.4540  1.2124
   15MOL    H3013218   7.523   1.382   5.210  0.1638  0.1532 -0.2806
   15MOL    H3113219   7.608   1.496   5.106 -1.2849  1.3013 -2.2338
   15MOL    H3213220   7.303   1.475   5.141 -1.6879  0.3393 -2.1176
   15MOL    H3313221   7.380   1.561   5.013  2.8023 -1.5677 -1.2878
   15MOL    H3413222   7.466   1.339   4.937 -0.8006 -0.1053 -0.9358
   15MOL    H3513223   7.385   1.269   5.078 -2.6039 -0.4500  0.4090
   15MOL    H3613224   7.162   1.373   4.982 -0.4914  0.8328 -0.1609
   15MOL    H3713225   7.240   1.410   4.837 -0.4327 -1.2648 -1.5868
   15MOL    H3813226   7.336   1.177   4.811 -1.1419  0.2162 -3.1351
   15MOL    H3913227   7.237   1.138   4.949 -1.7633  1.3123  0.1658
   15MOL    H4013228   7.105   1.250   4.696  2.0027 -1.5986 -1.4963
   15MOL    H4113229   7.023   1.178   4.821 -0.1843  2.1080  0.4774
   15MOL    H4213230   7.114   0.957   4.759 -0.5290  1.8585  2.2534
   15MOL    H4313231   7.211   1.041   4.627  0.1109  0.3183 -0.5015
   15MOL    H4413232   6.712   0.802   4.493 -1.9114  0.2238  0.2279
   15MOL    H4513233   6.541   0.896   4.315  0.9228 -1.7883  0.3334
   15MOL    H4613234   6.778   1.241   4.234  1.3128 -1.1505 -1.3059
   15MOL    H4713235   6.941   1.170   4.400 -0.6874  0.6548  2.1099
   15MOL    H4813236   7.583   1.978   5.257  0.5341 -2.9449 -0.7931
   15MOL    O4913237   6.448   1.289   4.043  0.3757 -0.3984 -0.7869
   15MOL    C5013238   6.346   1.367   4.117 -0.3439 -0.7987  0.2523
   15MOL    C5113239   6.230   1.282   4.180 -0.1939 -0.1419  0.4387
   15MOL    C5213240   6.148   1.195   4.087  0.3855  0.8954 -0.1598
   15MOL    C5313241   6.048   1.105   4.168 -0.2140  0.0330 -0.0988
   15MOL    C5413242   5.967   1.010   4.078 -0.2552 -0.4922  0.0449
   15MOL    C5513243   5.812   1.036   4.096  0.6053 -0.6353 -0.0489
   15MOL    C5613244   5.765   1.178   4.038  0.1793  0.1440  0.2200
   15MOL    C5713245   5.813   1.307   4.109 -0.3467 -0.5695 -0.2506
   15MOL    C5813246   5.734   1.429   4.060  0.1671  1.0916 -0.1885
   15MOL    C5913247   5.787   1.567   4.112 -0.0888  0.7474  0.0930
   15MOL    O6013248   5.744   1.576   4.247 -0.2988  0.6564 -0.1233
   15MOL    C6113249   5.636   1.648   4.278  0.2357  0.3949 -0.1192
   15MOL    O6213250   5.560   1.710   4.200 -0.4814  0.5418  0.6279
   15MOL    C6313251   5.611   1.646   4.425 -0.6306  0.4609  0.2153
   15MOL    C6413252   5.687   1.566   4.514 -0.1191 -0.4409 -0.8253
   15MOL    C6513253   5.659   1.561   4.653  0.1524 -0.0804  1.0917
   15MOL    C6613254   5.559   1.645   4.706  0.2831 -0.5899 -0.1104
   15MOL    C6713255   5.532   1.660   4.854 -0.2294  0.0270  0.7717
   15MOL    O6813256   5.417   1.669   4.895 -0.2481  0.1857  0.0345
   15MOL    O6913257   5.645   1.652   4.931  0.1427 -0.4591 -0.1641
   15MOL    C7013258   5.473   1.716   4.621 -0.3916  0.1213 -0.3748
   15MOL    C7113259   5.502   1.720   4.484 -0.3213  0.9601 -0.9023
   15MOL    H7213260   6.390   1.434   4.191 -1.0392  3.5167 -3.0378
   15MOL    H7313261   6.296   1.440   4.053  2.2953  1.3359  0.5781
   15MOL    H7413262   6.172   1.352   4.241 -0.1194 -1.8280  2.5127
   15MOL    H7513263   6.280   1.216   4.251  1.2210 -0.0968 -0.4901
   15MOL    H7613264   6.105   1.263   4.014  0.4194  0.2601 -0.7659
   15MOL    H7713265   6.211   1.131   4.025 -2.3997  0.1355 -2.2830
   15MOL    H7813266   5.981   1.168   4.225  0.0731  0.5359 -0.3133
   15MOL    H7913267   6.105   1.039   4.234  0.2326  1.5834  1.0706
   15MOL    H8013268   6.011   1.031   3.981  2.5038 -0.5829  1.2372
   15MOL    H8113269   5.992   0.905   4.097  0.7835 -0.4080 -0.7866
   15MOL    H8213270   5.755   0.958   4.043 -0.6514  1.1280 -1.3600
   15MOL    H8313271   5.786   1.043   4.202 -0.2365  0.3985 -0.3149
   15MOL    H8413272   5.804   1.186   3.937  1.7646 -0.9375  0.7372
   15MOL    H8513273   5.656   1.177   4.028  0.2749 -1.0897 -0.8646
   15MOL    H8613274   5.804   1.311   4.218  1.1073  1.4222 -0.1738
   15MOL    H8713275   5.920   1.318   4.092 -0.2912 -1.0492 -0.2304
   15MOL    H8813276   5.629   1.418   4.087  1.1623  0.4962  3.7779
   15MOL    H8913277   5.738   1.431   3.952 -2.1767 -0.2348 -0.3316
   15MOL    H9013278   5.744   1.646   4.050  0.8815  1.4639  0.3256
   15MOL    H9113279   5.896   1.579   4.105  0.1789 -1.7690 -0.4471
   15MOL    H9213280   5.761   1.498   4.472  1.9662  0.5881  1.0676
   15MOL    H9313281   5.697   1.494   4.729  1.1856  0.2606  0.8781
   15MOL    H9413282   5.388   1.771   4.658 -1.9248 -0.8532 -2.3527
   15MOL    H9513283   5.442   1.786   4.423  0.9874  1.1054 -2.0361
   15MOL    O9613284   5.617   1.669   5.077  0.2317 -0.5692 -0.5460
   15MOL    C9713285   5.650   1.804   5.115  0.4668 -0.0399  0.2775
   15MOL    C9813286   5.598   1.806   5.262 -0.2376  0.3640  0.1176
   15MOL    C9913287   5.641   1.930   5.340 -0.3293 -0.2925 -0.1331
   15MOL   C10013288   5.565   2.057   5.285 -0.4930 -0.4522 -0.1440
   15MOL   C10113289   5.614   2.190   5.359  0.2917  0.3581 -0.2238
   15MOL   C10213290   5.581   2.317   5.277  0.2973 -0.1960  0.0313
   15MOL   C10313291   5.662   2.329   5.145  0.2181 -0.1229 -0.5417
   15MOL   C10413292   5.625   2.451   5.065  0.8123 -0.4407  0.3952
   15MOL   C10513293   5.718   2.473   4.949 -0.6653 -0.3019  0.8769
   15MOL   C10613294   5.691   2.587   4.859  0.0105 -0.1353  0.1443
   15MOL   O10713295   5.562   2.581   4.812 -0.2971 -0.1515 -0.0424
   15MOL   C10813296   5.508   2.612   4.686  0.9971 -0.0770 -0.1415
   15MOL   O10913297   5.569   2.668   4.597 -0.7666  0.0965  0.2321
   15MOL   C11013298   5.366   2.582   4.675  0.6032  0.2126  0.0641
   15MOL   C11113299   5.298   2.606   4.555  0.3782  0.2440 -0.2896
   15MOL   C11213300   5.162   2.584   4.544  0.4300  0.0061  0.8576
   15MOL   C11313301   5.086   2.535   4.653  0.2068  0.3832 -0.9357
   15MOL   C11413302   4.936   2.515   4.644 -0.3787  0.9932  0.3201
   15MOL   O11513303   4.881   2.529   4.536 -0.2078  0.5460 -0.1931
   15MOL   O11613304   4.884   2.478   4.764 -0.1121  0.0305  0.0733
   15MOL   C11713305   5.154   2.506   4.773  0.5061 -1.2095  0.0852
   15MOL   C11813306   5.295   2.526   4.782 -0.6385 -0.3309  0.3337
   15MOL   H11913307   5.758   1.811   5.101  0.8449 -3.2291  1.3713
   15MOL   H12013308   5.590   1.874   5.056 -1.4016 -0.1497  1.9923
   15MOL   H12113309   5.638   1.715   5.306  1.7309  2.0318  1.8832
   15MOL   H12213310   5.491   1.794   5.249 -0.2658 -2.7399  2.7708
   15MOL   H12313311   5.622   1.907   5.445 -2.1966 -2.9261 -1.0020
   15MOL   H12413312   5.748   1.951   5.332 -0.3162 -0.3446 -0.0959
   15MOL   H12513313   5.457   2.054   5.295 -0.4467  0.8498  0.9141
   15MOL   H12613314   5.573   2.056   5.177  1.2123  0.5330 -0.0458
   15MOL   H12713315   5.571   2.191   5.459  0.0941 -2.5909 -0.2189
   15MOL   H12813316   5.720   2.181   5.385 -0.5290  0.7085  3.5488
   15MOL   H12913317   5.478   2.333   5.245  0.7621 -0.0588 -1.4169
   15MOL   H13013318   5.612   2.397   5.344  1.8881  0.5273 -1.5354
   15MOL   H13113319   5.770   2.315   5.159 -0.2751 -1.5114  2.4178
   15MOL   H13213320   5.636   2.241   5.085 -0.0512 -0.0399 -0.5460
   15MOL   H13313321   5.522   2.444   5.030  1.4047 -1.5082 -1.1816
   15MOL   H13413322   5.632   2.535   5.134  0.5541 -0.4865  0.4782
   15MOL   H13513323   5.745   2.386   4.889  2.8745  0.3182  1.4463
   15MOL   H13613324   5.814   2.510   4.985 -0.3827 -0.2562  0.0786
   15MOL   H13713325   5.770   2.597   4.784 -1.1506  0.2173 -1.0659
   15MOL   H13813326   5.687   2.683   4.911 -2.0710  0.8000 -1.6597
   15MOL   H13913327   5.349   2.664   4.480  0.0337  0.7251 -0.1547
   15MOL   H14013328   5.117   2.610   4.449  1.3719  0.6635  0.5883
   15MOL   H14113329   5.095   2.469   4.855  2.6196 -1.5888  1.4629
   15MOL   H14213330   5.350   2.504   4.872  1.3766 -0.3359 -0.8676
   15MOL   O14313331   4.728   2.438   4.756 -0.2903 -0.1728 -0.1726
   15MOL   C14413332   4.713   2.310   4.697  0.1372  0.2445 -0.2353
   15MOL   C14513333   4.573   2.253   4.748 -0.4949  0.7353  0.1520
   15MOL   C14613334   4.547   2.099   4.712  0.7345  0.0877 -0.5086
   15MOL   C14713335   4.411   2.046   4.748 -0.4189 -0.1234 -0.1432
   15MOL   C14813336   4.378   2.034   4.894  0.1182  0.4356 -1.1014
   15MOL   C14913337   4.251   1.945   4.918  0.6954 -0.2776 -0.0830
   15MOL   C15013338   4.215   1.940   5.066 -0.7198  0.8350 -0.0790
   15MOL   C15113339   4.093   1.854   5.096 -0.3627  0.0787 -0.0275
   15MOL   C15213340   3.963   1.927   5.122 -0.4180  0.2627  0.0229
   15MOL   C15313341   3.850   1.824   5.132  0.2255  0.3396  0.2926
   15MOL   O15413342   3.729   1.895   5.141 -0.3058 -0.2092 -0.6082
   15MOL   C15513343   3.608   1.829   5.152  0.0648  0.6912  0.1093
   15MOL   O15613344   3.615   1.704   5.151  0.6772  0.2414 -0.4738
   15MOL   C15713345   3.487   1.917   5.141 -0.1023  0.2014  0.4758
   15MOL   C15813346   3.358   1.858   5.138  0.2601  0.2202 -0.0119
   15MOL   C15913347   3.248   1.939   5.135 -1.0395 -0.2841  0.1502
   15MOL   C16013348   3.257   2.079   5.130  0.1158 -0.1418  0.0559
   15MOL   C16113349   3.137   2.158   5.110  0.1755  0.1866 -0.4744
   15MOL   O16213350   3.026   2.103   5.083 -0.0524  0.1468  0.2815
   15MOL   O16313351   3.155   2.285   5.117 -0.0691  0.1603  0.1694
   15MOL   C16413352   3.386   2.139   5.137  0.5104 -0.7023  0.0156
   15MOL   C16513353   3.499   2.058   5.148  0.5285  0.7555 -0.4380
   15MOL   H16613354   4.720   2.336   4.592  1.6024  1.2946  0.1118
   15MOL   H16713355   4.800   2.247   4.715  0.4264  1.2628  2.1181
   15MOL   H16813356   4.494   2.323   4.722 -0.1947  0.8889 -0.3721
   15MOL   H16913357   4.574   2.251   4.857 -3.9946  1.4895  0.2494
   15MOL   H17013358   4.554   2.082   4.605 -1.0716  0.7349 -0.7511
   15MOL   H17113359   4.630   2.035   4.740  1.9616  2.5971  1.7972
   15MOL   H17213360   4.400   1.948   4.702 -1.5465 -0.0956  0.0542
   15MOL   H17313361   4.320   2.099   4.720 -1.0294 -0.1014  1.7697
   15MOL   H17413362   4.466   1.993   4.944  0.5138  0.3517 -1.8671
   15MOL   H17513363   4.358   2.128   4.945 -2.1662 -1.6054  1.9421
   15MOL   H17613364   4.165   1.986   4.865  1.0169 -0.6686 -0.9223
   15MOL   H17713365   4.258   1.849   4.868 -0.2548  0.2791 -1.3180
   15MOL   H17813366   4.297   1.885   5.113 -1.5269  0.4247  0.8724
   15MOL   H17913367   4.210   2.035   5.120  2.1812  0.5720  0.7458
   15MOL   H18013368   4.084   1.770   5.028  1.8530 -1.6410  1.6877
   15MOL   H18113369   4.120   1.811   5.193  0.8746  1.8408  0.4369
   15MOL   H18213370   3.954   2.002   5.042 -2.0701  0.4826  0.3859
   15MOL   H18313371   3.968   1.983   5.215 -2.1269 -1.7134  1.3228
   15MOL   H18413372   3.860   1.768   5.225  0.6747 -1.2712 -0.7084
   15MOL   H18513373   3.844   1.746   5.057  0.8923 -0.6605  1.2744
   15MOL   H18613374   3.347   1.752   5.156  0.8873  0.5148  2.2501
   15MOL   H18713375   3.152   1.891   5.135 -0.0480 -2.3121  1.1097
   15MOL   H18813376   3.400   2.246   5.134  1.0489 -0.7063  1.7873
   15MOL   H18913377   3.596   2.104   5.164  0.4555  0.7444  0.0475
   15MOL   O19013378   3.020   2.358   5.129 -0.4203 -0.4494  0.1441
   15MOL   C19113379   2.969   2.398   4.997 -0.2385 -0.6890 -0.1701
   15MOL   C19213380   2.859   2.502   5.034 -0.4680 -0.0224 -0.1093
   15MOL   C19313381   2.760   2.533   4.917 -0.5084  0.1079  0.5937
   15MOL   C19413382   2.620   2.559   4.981 -0.1957  0.2791  0.0396
   15MOL   C19513383   2.515   2.573   4.875 -0.3436  0.0039 -0.3912
   15MOL   C19613384   2.378   2.603   4.931  0.2741  0.1921 -0.3075
   15MOL   C19713385   2.271   2.626   4.822  0.0159  0.2295 -0.0318
   15MOL   C19813386   2.130   2.648   4.877 -0.0347 -0.3862  0.4700
   15MOL   C19913387   2.094   2.797   4.887 -0.0967  0.9279 -0.4019
   15MOL   C20013388   1.967   2.824   4.971  0.6458  0.1988  0.1623
   15MOL   O20113389   1.986   2.759   5.097  0.2329 -0.3187  0.1920
   15MOL   C20213390   1.899   2.689   5.157  0.3479 -0.2715  0.0347
   15MOL   O20313391   1.787   2.656   5.118 -0.1318 -0.0017 -0.4698
   15MOL   C20413392   1.935   2.652   5.299  0.9661  0.2988  0.9140
   15MOL   C20513393   1.838   2.596   5.384 -0.1575  0.4028  0.1377
   15MOL   C20613394   1.869   2.565   5.518 -0.2206 -0.2325  0.5275
   15MOL   C20713395   2.003   2.593   5.563  0.4686 -0.0667 -0.1718
   15MOL   C20813396   2.033   2.564   5.706 -0.8797 -0.2804  0.8195
   15MOL   O20913397   1.952   2.501   5.777 -0.6265 -0.0908  0.3509
   15MOL   O21013398   2.158   2.605   5.752 -0.2732  0.2670 -0.3618
   15MOL   C21113399   2.099   2.646   5.482 -0.1681  0.5111 -0.5132
   15MOL   C21213400   2.066   2.677   5.352 -0.3731  0.0461  0.4782
   15MOL   H21313401   3.051   2.444   4.942 -1.8263  2.5206  0.0411
   15MOL   H21413402   2.926   2.307   4.953  0.8267 -1.1491 -0.2592
   15MOL   H21513403   2.907   2.590   5.076  3.6371 -1.9566 -0.4383
   15MOL   H21613404   2.800   2.449   5.109 -0.3039 -0.1266 -0.0538
   15MOL   H21713405   2.801   2.623   4.872  0.0185  0.7988  2.4110
   15MOL   H21813406   2.747   2.454   4.843  0.1659  0.9801 -0.4761
   15MOL   H21913407   2.614   2.657   5.029  0.4105  0.2014  0.2670
   15MOL   H22013408   2.596   2.477   5.048 -0.9245 -0.3729 -0.9878
   15MOL   H22113409   2.544   2.649   4.803 -0.7318  0.9831  0.4642
   15MOL   H22213410   2.509   2.483   4.815  0.1131  0.6714 -1.4666
   15MOL   H22313411   2.345   2.524   4.998  0.2212  1.9296  1.7948
   15MOL   H22413412   2.378   2.698   4.985  0.6623  0.6356 -1.0756
   15MOL   H22513413   2.291   2.702   4.746  1.6289 -1.7042 -1.6250
   15MOL   H22613414   2.276   2.534   4.762  1.0496  0.0058  0.3702
   15MOL   H22713415   2.051   2.593   4.825  1.3755 -2.5084  0.5080
   15MOL   H22813416   2.123   2.604   4.976  0.5295  1.8797  1.5557
   15MOL   H22913417   2.092   2.827   4.783  0.9479  0.2997 -0.6128
   15MOL   H23013418   2.172   2.845   4.947 -1.3785 -0.6896  2.6986
   15MOL   H23113419   1.880   2.795   4.912  0.8977 -0.2485  0.0059
   15MOL   H23213420   1.945   2.929   4.991  1.1093  0.4740 -0.7213
   15MOL   H23313421   1.738   2.577   5.349 -0.5612  2.1392  0.2825
   15MOL   H23413422   1.796   2.531   5.590 -0.0592  0.4967  1.0372
   15MOL   H23513423   2.195   2.669   5.528 -0.8132 -0.0757  1.1646
   15MOL   H23613424   2.147   2.713   5.290  0.7207  1.8276  2.8462
   15MOL   O23713425   2.191   2.571   5.895  0.1939 -0.1934  0.1982
   15MOL   C23813426   2.239   2.437   5.901  0.3785  0.4724 -0.0007
   15MOL   C23913427   2.218   2.386   6.043  0.5007  0.2205 -0.0064
   15MOL   C24013428   2.320   2.283   6.103 -0.9574 -0.3159  0.3385
   15MOL   C24113429   2.304   2.251   6.249 -0.4053 -0.1612  0.2863
   15MOL   C24213430   2.409   2.160   6.323  0.5648 -0.3792  0.5675
   15MOL   C24313431   2.361   2.102   6.457  0.8452 -0.9303  0.0703
   15MOL   C24413432   2.469   2.026   6.535 -0.0202 -0.5437 -0.2149
   15MOL   C24513433   2.424   1.999   6.681 -0.3839 -0.7195 -0.1386
   15MOL   C24613434   2.276   1.952   6.699 -0.0328  0.3242 -0.3848
   15MOL   C24713435   2.257   1.924   6.846  0.8703 -0.0544  0.2620
   15MOL   O24813436   2.275   2.040   6.917  0.0628  0.6412  0.1134
   15MOL   C24913437   2.330   2.026   7.032 -0.2211 -0.7823 -0.4659
   15MOL   O25013438   2.361   1.921   7.091 -0.0846 -0.2734  0.0214
   15MOL   C25113439   2.349   2.159   7.098  0.2419  0.2435  0.1420
   15MOL   C25213440   2.295   2.276   7.038  0.3709 -0.4416  0.5774
   15MOL   C25313441   2.304   2.395   7.111 -0.5415 -0.4863 -0.4392
   15MOL   C25413442   2.364   2.400   7.242  0.4415 -0.2670  0.1089
   15MOL   C25513443   2.368   2.532   7.309  0.2820 -0.1756 -0.7275
   15MOL   O25613444   2.443   2.540   7.414  1.3317 -0.0698 -0.2450
   15MOL   O25713445   2.297   2.639   7.263  0.2756  0.0750  0.1822
   15MOL   C25813446   2.421   2.285   7.293  0.2338 -0.6404 -0.1173
   15MOL   C25913447   2.408   2.162   7.230  0.3187  0.1467  0.2010
   15MOL   H26013448   2.190   2.365   5.836 -0.3335  0.4155  0.5931
   15MOL   H26113449   2.346   2.439   5.880  0.5467  1.9439  0.8829
   15MOL   H26213450   2.118   2.343   6.047 -0.1413  1.3875 -2.6962
   15MOL   H26313451   2.208   2.470   6.112 -2.7988  1.5554 -2.0183
   15MOL   H26413452   2.293   2.188   6.058 -0.7644 -0.1780 -0.0690
   15MOL   H26513453   2.420   2.318   6.080 -0.9717 -0.4373  0.0861
   15MOL   H26613454   2.202   2.217   6.264  0.0369 -2.0717 -0.8290
   15MOL   H26713455   2.302   2.342   6.309  0.9895 -0.3388  0.6253
   15MOL   H26813456   2.437   2.074   6.262  1.0960 -0.3768  0.8086
   15MOL   H26913457   2.490   2.232   6.334 -0.8924  1.5402 -0.7672
   15MOL   H27013458   2.328   2.198   6.497 -0.6253 -1.8834  1.2437
   15MOL   H27113459   2.272   2.039   6.444 -0.4891  0.7195  0.9745
   15MOL   H27213460   2.479   1.931   6.482  1.4025 -0.6120  0.1679
   15MOL   H27313461   2.561   2.084   6.533 -0.4480  0.1659 -3.9022
   15MOL   H27413462   2.497   1.925   6.715  0.3423 -0.0367 -0.1818
   15MOL   H27513463   2.445   2.088   6.740 -1.0300 -0.2450 -0.6131
   15MOL   H27613464   2.253   1.861   6.642 -0.6847  1.8634 -2.6418
   15MOL   H27713465   2.214   2.033   6.660  1.7146  1.7443 -0.2261
   15MOL   H27813466   2.327   1.845   6.874  1.5004  0.7943  1.1104
   15MOL   H27913467   2.165   1.871   6.870  2.0278 -1.3041  2.0451
   15MOL   H28013468   2.240   2.276   6.945  0.8200  0.9519  0.2984
   15MOL   H28113469   2.269   2.487   7.066 -2.2092 -0.9047 -0.0244
   15MOL   H28213470   2.470   2.290   7.390  1.1978  1.6216 -0.6814
   15MOL   H28313471   2.437   2.066   7.271  0.4915 -0.8143 -2.1263
   15MOL   O28413472   2.330   2.769   7.334  0.2372 -0.0524 -0.3989
   15MOL   C28513473   2.229   2.793   7.436  0.3840  0.3480  0.1847
   15MOL   C28613474   2.262   2.908   7.531  0.0441 -0.3493  0.5933
   15MOL   C28713475   2.144   2.936   7.627 -0.0728  0.3751 -0.0926
   15MOL   C28813476   2.156   2.846   7.751 -0.6051  0.3215 -0.2748
   15MOL   C28913477   2.043   2.860   7.851  0.2611 -0.1211 -0.7539
   15MOL   C29013478   2.039   2.752   7.963 -0.3047  0.1945  1.0026
   15MOL   C29113479   1.947   2.638   7.934 -0.5768  0.0835  0.1772
   15MOL   C29213480   1.891   2.559   0.082 -0.2095 -0.1879  0.1329
   15MOL   C29313481   1.843   2.421   0.038 -0.0516 -0.9459  0.4447
   15MOL   C29413482   1.709   2.414   7.946 -0.0740  0.4843 -1.1261
   15MOL   O29513483   1.735   2.445   7.812 -0.1604  0.1172 -0.1111
   15MOL   C29613484   1.648   2.462   7.710 -0.1828  0.6886  0.2846
   15MOL   O29713485   1.523   2.448   7.723 -0.8985 -0.0696  0.1011
   15MOL   C29813486   1.709   2.493   7.581 -0.0901 -0.1750  0.2948
   15MOL   C29913487   1.630   2.497   7.460 -0.6386  0.5685 -0.0216
   15MOL   C30013488   1.694   2.529   7.336  0.7468  0.6387 -0.5797
   15MOL   C30113489   1.834   2.568   7.332  0.4071 -0.1156  0.2402
   15MOL   C30213490   1.905   2.589   7.203  0.0239  0.1037  0.1919
   15MOL   O30313491   2.027   2.569   7.191 -0.6522  0.4922 -0.0748
   15MOL   O30413492   1.822   2.609   7.103  0.3021  0.3033  0.3299
   15MOL   C30513493   1.904   2.573   7.455 -0.4115 -0.3235 -0.0716
   15MOL   C30613494   1.841   2.542   7.574  0.4792 -0.4043 -0.3308
   15MOL   H30713495   2.132   2.812   7.391 -0.8798 -2.0061  1.7786
   15MOL   H30813496   2.214   2.701   7.492  0.4930 -1.1697 -2.2330
   15MOL   H30913497   2.281   2.997   7.472  0.2060  0.3496  1.6879
   15MOL   H31013498   2.355   2.885   7.584  1.1557 -0.2799 -1.3100
   15MOL   H31113499   2.144   3.040   7.661 -2.6883  1.0453 -1.9857
   15MOL   H31213500   2.053   2.915   7.572 -1.2884  2.2240  1.1536
   15MOL   H31313501   2.246   2.884   7.800  0.7422 -1.8156 -0.9987
   15MOL   H31413502   2.172   2.742   7.722  2.8112  0.4628  0.8909
   15MOL   H31513503   2.051   2.957   7.900 -0.7408 -0.7561  0.6999
   15MOL   H31613504   1.946   2.865   7.803  1.1897  2.9696 -2.4014
   15MOL   H31713505   2.138   2.715   0.010  0.6622  1.6727 -0.5831
   15MOL   H31813506   2.019   2.810   0.075 -0.0614  1.4728  0.2487
   15MOL   H31913507   1.853   2.670   7.889 -0.1379  2.6002  1.0005
   15MOL   H32013508   1.987   2.562   7.866 -1.6802 -2.0961  1.9130
   15MOL   H32113509   1.972   2.538   0.152 -0.6151 -0.6850  0.4552
   15MOL   H32213510   1.822   2.627   0.132  1.0954  0.6877  0.7928
   15MOL   H32313511   1.829   2.355   0.124  2.9300 -1.8324  0.3040
   15MOL   H32413512   1.928   2.376   7.965 -2.0776 -0.0694 -3.9580
   15MOL   H32513513   1.641   2.484   0.015 -0.7285 -0.2719 -0.9329
   15MOL   H32613514   1.668   2.313   7.957  1.6172 -0.0167  0.8317
   15MOL   H32713515   1.526   2.468   7.464 -0.0372 -1.5347  1.4636
   15MOL   H32813516   1.634   2.525   7.246 -1.2640 -1.2560  0.8085
   15MOL   H32913517   2.011   2.588   7.449 -0.1880 -1.0024  1.8983
   15MOL   H33013518   1.904   2.540   7.662  2.7627 -1.4796 -1.9362
   15MOL   O33113519   1.891   2.636   6.973  0.2598  0.0285  0.2627
   15MOL   C33213520   1.900   2.521   6.900  0.5125  0.3591  0.2958
   15MOL   C33313521   1.758   2.464   6.880  0.9573  0.5622  0.0292
   15MOL   C33413522   1.680   2.552   6.783 -0.1944  0.4555 -0.2269
   15MOL   C33513523   1.537   2.518   6.741 -0.9078  0.0645 -0.2235
   15MOL   C33613524   1.480   2.635   6.673 -0.3735 -0.3449  0.5887
   15MOL   C33713525   1.328   2.625   6.647 -0.3079  0.1209 -0.2724
   15MOL   C33813526   1.275   2.746   6.577  0.1624 -0.3268  0.3125
   15MOL   C33913527   1.122   2.745   6.584 -1.0921  0.4240  0.2305
   15MOL   C34013528   1.078   2.875   6.517  0.0640  0.8782 -0.1382
   15MOL   C34113529   0.921   2.879   6.514 -0.3376 -0.3005  0.5786
   15MOL   O34213530   0.882   3.004   6.466  0.0688  0.2780 -0.2797
   15MOL   C34313531   0.847   3.018   6.342  0.2081  0.0246  0.0880
   15MOL   O34413532   0.849   2.934   6.252  0.0598 -0.1124 -0.0084
   15MOL   C34513533   0.778   3.151   6.320  0.9115 -0.2307  0.1755
   15MOL   C34613534   0.729   3.190   6.195  0.7004 -0.3596  0.0668
   15MOL   C34713535   0.669   3.314   6.171 -0.7045  0.0127 -0.2210
   15MOL   C34813536   0.655   3.410   6.276 -1.0369  0.6029  0.4261
   15MOL   C34913537   0.593   3.541   6.261  0.3814 -0.0018  0.3506
   15MOL   O35013538   0.554   3.607   6.359 -0.2665 -0.0176 -0.3462
   15MOL   O35113539   0.572   3.583   6.134  0.4546  0.7527  0.3194
   15MOL   C35213540   0.703   3.374   6.410  0.6888  0.3533  0.2385
   15MOL   C35313541   0.758   3.245   6.425 -0.2990  0.4053 -0.4178
   15MOL   H35413542   1.946   2.547   6.805  2.9143  0.4206  1.4406
   15MOL   H35513543   1.959   2.457   6.966  2.5487 -0.3245 -2.1200
   15MOL   H35613544   1.711   2.445   6.977  4.2565  1.4550  1.8961
   15MOL   H35713545   1.754   2.363   6.839 -2.2293  0.1612  1.2013
   15MOL   H35813546   1.683   2.649   6.833  1.0553 -0.2617  1.1387
   15MOL   H35913547   1.732   2.554   6.687  0.7260  1.4873  0.2865
   15MOL   H36013548   1.485   2.493   6.834  0.1854 -2.3884 -0.2321
   15MOL   H36113549   1.563   2.431   6.680  1.7678 -1.5590  3.0513
   15MOL   H36213550   1.488   2.729   6.727  0.2798  0.4794 -0.9285
   15MOL   H36313551   1.532   2.653   6.579 -1.0174  1.6747  0.6014
   15MOL   H36413552   1.289   2.536   6.598 -2.1191  0.1390  1.0863
   15MOL   H36513553   1.280   2.628   6.745  0.3779  2.2846  0.0190
   15MOL   H36613554   1.316   2.833   6.629 -2.2346  0.7884  0.3962
   15MOL   H36713555   1.297   2.751   6.471  2.6423  2.1547  0.8773
   15MOL   H36813556   1.068   2.659   6.543  0.0047  0.5465 -1.5195
   15MOL   H36913557   1.091   2.744   6.689 -0.3938  2.0859  0.4702
   15MOL   H37013558   1.124   2.883   6.419 -1.9490  1.7594 -1.0518
   15MOL   H37113559   1.110   2.961   6.576  0.7339  0.7750 -0.3514
   15MOL   H37213560   0.879   2.884   6.614 -1.0359 -1.2751  0.3375
   15MOL   H37313561   0.879   2.789   6.469  0.5381 -0.8910  0.9283
   15MOL   H37413562   0.734   3.122   6.111  1.1056  0.3341 -0.4834
   15MOL   H37513563   0.621   3.339   6.077  0.9269  1.1023 -0.7713
   15MOL   H37613564   0.690   3.436   6.498  1.4066  1.1657 -0.2181
   15MOL   H37713565   0.807   3.223   6.519 -0.8632 -1.1535 -0.4776
   15MOL   O37813566   0.507   3.718   6.120  0.1942 -0.4130  0.0645
   15MOL   C37913567   0.569   3.785   6.015 -0.7203  0.5789 -0.5743
   15MOL   C38013568   0.471   3.898   5.977  0.1873 -0.0028  0.4579
   15MOL   C38113569   0.502   3.966   5.850 -0.2541  0.0767 -0.2175
   15MOL   C38213570   0.441   4.101   5.850 -0.5747 -0.4955  0.0772
   15MOL   C38313571   0.464   4.189   5.725  0.3049  0.1068 -0.5375
   15MOL   C38413572   0.606   4.225   5.701  0.0505 -0.7986 -0.5059
   15MOL   C38513573   0.618   4.340   5.593 -0.5904 -0.0779  0.4179
   15MOL   C38613574   0.765   4.360   5.550 -0.6835 -0.0809 -0.2261
   15MOL   C38713575   0.758   4.447   5.421  0.3613  0.7010  0.0401
   15MOL   C38813576   0.892   4.483   5.363  0.5255  0.3184  0.0779
   15MOL   O38913577   0.865   4.571   5.259  0.5851  0.8876 -0.6718
   15MOL   C39013578   0.964   4.624   5.187 -0.6220 -0.2975 -0.2415
   15MOL   O39113579   1.081   4.606   5.218 -0.5687  0.1069  0.2094
   15MOL   C39213580   0.901   4.703   5.076  0.7599 -0.2181  0.5646
   15MOL   C39313581   0.976   4.753   4.972 -0.6788  0.3458  0.2455
   15MOL   C39413582   0.919   4.824   4.865  0.2206 -0.4612  0.1731
   15MOL   C39513583   0.779   4.859   4.867 -0.0400 -0.2234  0.2955
   15MOL   C39613584   0.720   4.954   4.771  0.1705  0.7220  0.9257
   15MOL   O39713585   0.796   5.020   4.705  0.5506 -0.5545 -0.2098
   15MOL   O39813586   0.593   4.982   4.774 -0.2290 -0.4979  0.4100
   15MOL   C39913587   0.706   4.819   4.976  0.0462 -0.1268 -0.3033
   15MOL   C40013588   0.762   4.737   5.077  0.2039  0.8061  0.7213
   15MOL   H40113589   0.666   3.814   6.053 -0.8904  1.5523 -0.8882
   15MOL   H40213590   0.593   3.719   5.932  0.3849 -1.5199  1.3417
   15MOL   H40313591   0.470   3.956   6.069  0.7640  0.2471  0.3124
   15MOL   H40413592   0.374   3.851   5.961  0.7966 -1.0499 -0.1771
   15MOL   H40513593   0.611   3.974   5.850 -0.2759  0.4152  0.3469
   15MOL   H40613594   0.482   3.907   5.760 -1.0405  1.1979 -0.7935
   15MOL   H40713595   0.481   4.157   5.934  0.2023 -1.6561  0.4815
   15MOL   H40813596   0.333   4.091   5.856 -0.6522  0.3784  0.2398
   15MOL   H40913597   0.409   4.150   5.639 -1.0117 -1.3024  0.9082
   15MOL   H41013598   0.417   4.284   5.752 -0.7573 -0.4880 -0.2294
   15MOL   H41113599   0.660   4.262   5.789  0.0602 -5.0363  1.3974
   15MOL   H41213600   0.663   4.142   5.661 -0.9618 -1.2769 -0.9746
   15MOL   H41313601   0.551   4.310   5.513 -2.0843  1.0271  1.2305
   15MOL   H41413602   0.578   4.434   5.632 -0.2555  0.3845 -0.3285
   15MOL   H41513603   0.817   4.415   5.629  0.7611 -1.0252 -0.4925
   15MOL   H41613604   0.819   4.269   5.521 -1.1395 -0.7815  1.1001
   15MOL   H41713605   0.696   4.530   5.455 -1.2046 -1.0069  1.4630
   15MOL   H41813606   0.706   4.391   5.343 -0.6671 -0.8283  1.7870
   15MOL   H41913607   0.939   4.389   5.335  0.6195  0.7445 -1.2166
   15MOL   H42013608   0.948   4.533   5.443  1.6822 -0.0716 -0.4839
   15MOL   H42113609   1.081   4.728   4.978 -0.6094  0.5315 -0.2342
   15MOL   H42213610   0.984   4.865   4.790  2.2989  0.2598  2.3359
   15MOL   H42313611   0.601   4.845   4.984  0.0331 -0.2835  0.0908
   15MOL   H42413612   0.702   4.699   5.159 -0.1479  1.4738  0.7706
   15MOL   O42513613   0.541   5.092   4.685  0.2906  0.6209 -0.4093
   15MOL   C42613614   0.496   5.197   4.765 -0.3516 -0.0809 -0.3118
   15MOL   C42713615   0.356   5.169   4.824  0.1865  0.4540  0.0930
   15MOL   C42813616   0.361   5.103   4.960  0.9761  0.5231 -0.3425
   15MOL   C42913617   0.215   5.075   5.012  0.5111 -0.3028 -0.5943
   15MOL   C43013618   0.195   5.020   5.159  0.1314  0.4071  0.4501
   15MOL   C43113619   0.246   4.881   5.193  0.8685  0.0301  0.1997
   15MOL   C43213620   0.211   4.857   5.342  0.2003  0.6307  0.1008
   15MOL   C43313621   0.279   4.725   5.381  0.0637  0.3689 -0.3279
   15MOL   C43413622   0.259   4.709   5.533  0.4920 -0.1561 -0.4347
   15MOL   C43513623   0.335   4.588   5.593  0.5442  0.1344  0.2031
   15MOL   O43613624   0.311   4.584   5.736 -0.2259  0.5375 -0.4778
   15MOL   C43713625   0.203   4.509   5.789 -0.5060 -0.1499 -0.2896
   15MOL   O43813626   0.106   4.469   5.721  0.2124 -0.5860  0.3075
   15MOL   C43913627   0.205   4.489   5.938  0.3725  0.2818 -0.4296
   15MOL   C44013628   0.331   4.499   6.004  0.2002  0.2281  0.7702
   15MOL   C44113629   0.332   4.489   6.143 -0.1124  0.3123 -0.3157
   15MOL   C44213630   0.214   4.480   6.220  0.1349 -0.5034 -0.3415
   15MOL   C44313631   0.225   4.489   6.369 -0.4599  0.3159  0.1888
   15MOL   O44413632   0.324   4.475   6.436  0.2333 -0.4471  0.1083
   15MOL   O44513633   0.107   4.527   6.431  0.2231 -0.3629  0.2537
   15MOL   C44613634   0.088   4.469   6.154  0.3469  0.4578  0.4314
   15MOL   C44713635   0.090   4.465   6.017 -0.2230  0.1916 -0.3554
   15MOL   H44813636   0.571   5.210   4.843 -1.5574  2.2192  0.5120
   15MOL   H44913637   0.496   5.291   4.709  0.2410  0.4403  0.5417
   15MOL   H45013638   0.305   5.107   4.750 -0.4421  1.1549 -0.0612
   15MOL   H45113639   0.307   5.267   4.825  0.3182  0.5180  1.6183
   15MOL   H45213640   0.423   5.014   4.963  0.4468  0.0774 -2.2141
   15MOL   H45313641   0.413   5.170   5.028  0.3953  1.6629 -1.0045
   15MOL   H45413642   0.169   5.002   4.946 -1.9454  1.4862 -0.9450
   15MOL   H45513643   0.153   5.165   5.004 -0.6468 -1.1144 -0.8713
   15MOL   H45613644   0.232   5.099   5.224  0.7460 -1.1215  1.9872
   15MOL   H45713645   0.087   5.019   5.171 -0.1146 -0.4102 -1.6915
   15MOL   H45813646   0.208   4.808   5.121 -0.2374 -0.7078  1.5098
   15MOL   H45913647   0.355   4.882   5.183  0.7392 -0.7607 -1.6318
   15MOL   H46013648   0.257   4.934   5.405  0.2923  0.1140  0.6667
   15MOL   H46113649   0.107   4.852   5.372  0.3309 -0.3736  0.4041
   15MOL   H46213650   0.233   4.650   5.317 -0.8521  1.9397 -1.5451
   15MOL   H46313651   0.386   4.726   5.359  0.2698 -0.3166  0.6011
   15MOL   H46413652   0.154   4.690   5.557  1.3218 -0.2707  3.3681
   15MOL   H46513653   0.287   4.799   5.587  1.8342  1.0784 -3.0877
   15MOL   H46613654   0.442   4.602   5.574  0.3649  0.4354 -0.5910
   15MOL   H46713655   0.306   4.495   5.544  1.1818  0.0854 -0.0863
   15MOL   H46813656   0.422   4.497   5.946 -0.5861 -1.0725 -0.4597
   15MOL   H46913657   0.428   4.496   6.193  0.5344 -3.1371 -0.9326
   15MOL   H47013658   7.976   4.444   6.209  0.1580 -0.4704 -0.2769
   15MOL   H47113659   0.001   4.454   5.957 -1.5949  2.6159  1.1753
   15MOL   O47213660   0.106   4.521   6.586 -0.0854 -0.4816  0.0779
   15MOL   C47313661   0.068   4.396   6.635 -0.2475  0.3045  0.3995
   15MOL   C47413662   7.975   4.410   6.775  0.0213 -0.2802 -0.5102
   15MOL   C47513663   7.928   4.271   6.826 -0.0199  0.2106  0.0120
   15MOL   C47613664   7.860   4.270   6.965  0.2637 -0.1341 -0.2033
   15MOL   C47713665   7.708   4.297   6.968  0.4836  0.1397  0.6831
   15MOL   C47813666   7.651   4.264   7.107  0.1493  0.5576 -0.7461
   15MOL   C47913667   7.501   4.283   7.111  1.0672  0.1237 -0.1786
   15MOL   C48013668   7.431   4.265   7.251 -0.0111  0.0676 -0.1517
   15MOL   C48113669   7.286   4.312   7.254 -0.9169  0.3800  0.1203
   15MOL   C48213670   7.212   4.295   7.378 -0.1232 -0.1778  0.1203
   15MOL   O48313671   7.232   4.400   7.474  0.1866 -0.0969 -0.2129
   15MOL   C48413672   7.155   4.507   7.478  0.4744  0.1866  1.0291
   15MOL   O48513673   7.061   4.523   7.397  0.2733  0.2154 -0.3220
   15MOL   C48613674   7.186   4.603   7.583  0.2094 -0.5265  0.2261
   15MOL   C48713675   7.091   4.701   7.615  0.4725 -0.2164  0.6198
   15MOL   C48813676   7.104   4.789   7.728  0.0922  0.2657  0.4637
   15MOL   C48913677   7.226   4.793   7.794 -0.1942 -0.7010 -0.2243
   15MOL   C49013678   7.249   4.887   7.913  0.4380  0.1936  0.0993
   15MOL   O49113679   7.360   4.927   7.957  0.0972  0.3386 -0.0756
   15MOL   O49213680   7.127   4.915   7.972 -0.3697 -0.1400 -0.4449
   15MOL   C49313681   7.327   4.701   7.754  0.1709  0.0642  0.2740
   15MOL   C49413682   7.306   4.606   7.653 -0.9123 -1.1518 -0.0766
   15MOL   H49513683   0.007   4.356   6.554  0.4931  0.8041 -0.4124
   15MOL   H49613684   0.151   4.331   6.662  1.9308  0.9959 -4.1516
   15MOL   H49713685   7.885   4.473   6.774 -2.0281 -3.0978 -2.8469
   15MOL   H49813686   0.054   4.458   6.854  1.6207 -0.8909 -1.2796
   15MOL   H49913687   7.858   4.234   6.750  0.2568  0.9959 -0.6409
   15MOL   H50013688   0.038   4.207   6.817  0.3269  0.7210 -0.2766
   15MOL   H50113689   7.919   4.345   7.018  0.9078 -2.2185  2.0835
   15MOL   H50213690   7.875   4.173   7.012 -0.9749  0.3465  1.2283
   15MOL   H50313691   7.684   4.402   6.947 -0.8899 -0.4023 -0.5429
   15MOL   H50413692   7.654   4.226   6.905 -0.8622 -1.0333  3.1039
   15MOL   H50513693   7.673   4.157   7.103 -0.5736  0.3800 -0.0502
   15MOL   H50613694   7.714   4.305   7.187  0.4278 -0.0653 -0.6464
   15MOL   H50713695   7.469   4.377   7.067  2.2628  1.3710  1.5241
   15MOL   H50813696   7.459   4.212   7.040  0.9079 -2.0580  2.0191
   15MOL   H50913697   7.430   4.161   7.281 -0.4092 -0.0550 -0.5873
   15MOL   H51013698   7.485   4.314   7.332 -0.0581 -2.1174  1.2352
   15MOL   H51113699   7.230   4.249   7.186  0.2315  1.4075 -1.8265
   15MOL   H51213700   7.281   4.415   7.217 -1.2327  0.2580 -0.1735
   15MOL   H51313701   7.241   4.203   7.429 -0.3889  0.2067  0.9862
   15MOL   H51413702   7.106   4.291   7.354 -0.2382 -1.4724  0.8127
   15MOL   H51513703   6.995   4.697   7.566  0.6970 -0.2144  0.1749
   15MOL   H51613704   7.023   4.855   7.759 -0.8649 -0.1633 -1.0956
   15MOL   H51713705   7.425   4.705   7.801  0.2733 -2.5979  0.3519
   15MOL   H51813706   7.378   4.530   7.629  0.6319 -0.3242  1.7685
   15MOL   O51913707   7.134   4.982   0.129  0.0929 -0.7107  0.1195
   15MOL   C52013708   7.093   4.892   0.228  0.8563  0.3771  0.3567
   15MOL   C52113709   6.961   4.840   0.186 -0.8177  0.2154 -0.3923
   15MOL   C52213710   6.871   4.807   0.301  0.7701 -0.5856 -0.4016
   15MOL   C52313711   6.740   4.745   0.251 -0.1093 -0.3655  0.2895
   15MOL   C52413712   6.658   4.668   0.349 -0.0823  0.1078 -0.6963
   15MOL   C52513713   6.523   4.627   0.295  0.2577  0.2688  0.7513
   15MOL   C52613714   6.426   4.549   0.384  0.6297  0.0028 -0.3425
   15MOL   C52713715   6.285   4.531   0.332  0.0445  0.1966  0.2120
   15MOL   C52813716   6.194   4.451   0.425 -0.2794  0.4468 -0.5523
   15MOL   C52913717   6.212   4.292   0.413  0.3513 -0.2613 -0.1293
   15MOL   O53013718   6.119   4.222   0.499 -0.2834 -0.2299  0.6028
   15MOL   C53113719   6.149   4.188   0.629  0.1529 -0.1016  0.2434
   15MOL   O53213720   6.259   4.207   0.674 -0.8157 -0.6012  0.3313
   15MOL   C53313721   6.029   4.145   0.712  0.8926  0.5261 -0.0833
   15MOL   C53413722   5.894   4.147   0.664 -0.4549 -0.0685 -0.0628
   15MOL   C53513723   5.786   4.112   0.749 -0.4115 -0.5299 -0.4138
   15MOL   C53613724   5.809   4.065   0.878 -0.9481 -0.0974 -0.0149
   15MOL   C53713725   5.697   4.025   0.961  0.0982 -0.1068  0.1236
   15MOL   O53813726   5.576   4.040   0.931  0.1769 -0.0205  0.3353
   15MOL   O53913727   5.743   3.968   1.071 -0.1431 -0.6004  0.2383
   15MOL   C54013728   5.948   4.063   0.924  0.7425 -0.0962  0.6808
   15MOL   C54113729   6.053   4.109   0.844  0.3911  0.0006  0.2688
   15MOL   H54213730   7.165   4.813   0.252  0.9822  0.7152  1.1158
   15MOL   H54313731   7.082   4.950   0.319  1.4062  2.5330 -0.9306
   15MOL   H54413732   6.980   4.749   0.129 -0.4013 -0.5647  0.9563
   15MOL   H54513733   6.914   4.916   0.125  0.9612  1.4913 -0.1964
   15MOL   H54613734   6.921   4.729   0.359  0.1727 -0.0325  0.8690
   15MOL   H54713735   6.857   4.897   0.360  0.7710  0.8862 -2.5977
   15MOL   H54813736   6.766   4.683   0.165  0.7346 -1.0103  1.0009
   15MOL   H54913737   6.685   4.830   0.211 -0.7411 -0.1663  1.5437
   15MOL   H55013738   6.708   4.580   0.390  1.3580  2.0826  1.9279
   15MOL   H55113739   6.640   4.719   0.444  1.0730 -2.2284  0.8400
   15MOL   H55213740   6.466   4.715   0.264 -1.2744 -0.7198  0.7692
   15MOL   H55313741   6.539   4.581   0.197  0.1045  1.1617  0.2998
   15MOL   H55413742   6.470   4.457   0.423 -0.6651  0.4703  2.3319
   15MOL   H55513743   6.417   4.606   0.477  2.1307  1.7691 -1.2333
   15MOL   H55613744   6.225   4.622   0.332 -0.7897 -0.3060  2.9589
   15MOL   H55713745   6.277   4.476   0.238  2.8320  0.8729 -0.4540
   15MOL   H55813746   6.088   4.466   0.403 -0.2636 -0.3551 -1.2188
   15MOL   H55913747   6.215   4.471   0.530  0.0367  0.7066 -0.6654
   15MOL   H56013748   6.315   4.263   0.437 -0.5012 -1.4057  2.3150
   15MOL   H56113749   6.186   4.270   0.310 -0.5874 -0.9134  0.2373
   15MOL   H56213750   5.879   4.186   0.564 -0.5531 -1.1603 -0.4822
   15MOL   H56313751   5.686   4.125   0.710  0.3690  2.5581 -1.5477
   15MOL   H56413752   5.959   4.034   1.028 -0.6674 -2.9660  0.0979
   15MOL   H56513753   6.154   4.106   0.882  1.0601  2.1232 -1.2053
   15MOL   O56613754   5.648   3.967   1.186 -0.3664  0.0067  0.3613
   15MOL   C56713755   5.599   3.837   1.208  0.0062  0.0788  0.6692
   15MOL   C56813756   5.515   3.839   1.335 -0.6091  0.1395 -0.3721
   15MOL   C56913757   5.597   3.856   1.465 -0.9397 -0.8595 -0.0652
   15MOL   C57013758   5.513   3.853   1.592  0.4271  0.6568  0.6332
   15MOL   C57113759   5.584   3.794   1.716 -0.1826  0.2273  0.2465
   15MOL   C57213760   5.710   3.869   1.765 -0.2194  0.0518 -0.9618
   15MOL   C57313761   5.777   3.802   1.890  0.7189 -0.0040  0.5119
   15MOL   C57413762   5.892   3.886   1.942  0.3112 -0.3237 -0.7778
   15MOL   C57513763   5.864   3.984   2.055 -0.5279 -0.1772  0.3603
   15MOL   C57613764   5.988   4.062   2.103  0.0942 -0.4454  0.2354
   15MOL   O57713765   6.057   3.969   2.177  0.2076  0.0047  0.4131
   15MOL   C57813766   6.190   3.986   2.203  0.0174  0.2242 -0.4064
   15MOL   O57913767   6.257   4.083   2.167  0.0199 -0.5099  0.7176
   15MOL   C58013768   6.239   3.873   2.279  0.0311  0.1425 -0.4161
   15MOL   C58113769   6.379   3.868   2.316  0.1611 -0.1167  0.7903
   15MOL   C58213770   6.427   3.761   2.387 -0.2522 -0.0174  0.2199
   15MOL   C58313771   6.342   3.657   2.431 -0.0846  0.0409 -0.0322
   15MOL   C58413772   6.398   3.547   2.516 -0.2762 -0.2968  0.5982
   15MOL   O58513773   6.506   3.561   2.576 -0.1978  0.3304 -0.3234
   15MOL   O58613774   6.322   3.441   2.528 -0.6466 -0.3413 -0.2565
   15MOL   C58713775   6.207   3.665   2.394 -0.0736  0.2716  0.5878
   15MOL   C58813776   6.150   3.769   2.317 -0.5469  0.2874  0.2712
   15MOL   H58913777   5.536   3.813   1.122  1.9088  0.0788 -0.7524
   15MOL   H59013778   5.681   3.766   1.217  0.2757  0.2418 -0.4100
   15MOL   H59113779   5.467   3.741   1.331 -0.3265 -0.0454  0.5589
   15MOL   H59213780   5.434   3.910   1.329  0.0378  0.8292 -1.0224
   15MOL   H59313781   5.670   3.775   1.472  0.1203  0.0979  0.1402
   15MOL   H59413782   5.653   3.949   1.456 -0.9591 -0.7355  1.0872
   15MOL   H59513783   5.417   3.808   1.568  0.3463  1.1057  0.1039
   15MOL   H59613784   5.498   3.960   1.606 -1.4007  0.4625  0.2260
   15MOL   H59713785   5.508   3.779   1.792 -1.2111  1.0141 -0.6089
   15MOL   H59813786   5.604   3.693   1.681 -2.6137 -0.4354  0.7068
   15MOL   H59913787   5.788   3.866   1.689  1.7034 -1.7523  0.9750
   15MOL   H60013788   5.698   3.974   1.794  2.0192  0.0969 -0.0505
   15MOL   H60113789   5.701   3.795   1.967  1.3434 -0.3854  1.1001
   15MOL   H60213790   5.802   3.696   1.881 -2.7954 -0.6721 -2.5372
   15MOL   H60313791   5.971   3.818   1.978  1.7891  0.8897 -1.6679
   15MOL   H60413792   5.931   3.943   1.858 -0.9261 -1.5320 -2.1924
   15MOL   H60513793   5.815   3.930   2.136 -1.6862  3.3996  2.1528
   15MOL   H60613794   5.795   4.058   2.014  0.8811  0.4807 -0.8793
   15MOL   H60713795   5.964   4.143   2.173  1.2012  2.0479 -2.1625
   15MOL   H60813796   6.044   4.096   2.016 -1.8352 -0.7582 -1.1512
   15MOL   H60913797   6.452   3.941   2.284  0.2978 -0.6364 -0.1079
   15MOL   H61013798   6.530   3.743   2.413 -1.1296 -2.7931  1.9984
   15MOL   H61113799   6.151   3.582   2.434  1.9349 -0.4057  2.0960
   15MOL   H61213800   6.045   3.754   2.292 -1.0267 -1.4425  3.1004
   15MOL   O61313801   6.395   3.318   2.585 -0.0161 -0.3006  0.7911
   15MOL   C61413802   6.377   3.316   2.727  0.2632  0.3398  0.2230
   15MOL   C61513803   6.233   3.275   2.760 -0.0179 -0.6300  0.1608
   15MOL   C61613804   6.198   3.260   2.906 -0.1489  0.0551 -0.6504
   15MOL   C61713805   6.050   3.254   2.933 -0.2247 -0.3058 -0.3489
   15MOL   C61813806   6.015   3.230   3.079  0.0701  0.1797  0.0070
   15MOL   C61913807   6.024   3.083   3.109  0.2840 -0.4716  0.2657
   15MOL   C62013808   6.007   3.056   3.262 -0.2805 -0.6703 -0.1458
   15MOL   C62113809   6.076   2.920   3.287  0.8170 -0.4233  0.1994
   15MOL   C62213810   6.049   2.861   3.423 -0.4067  0.3946 -0.0898
   15MOL   C62313811   6.079   2.956   3.540 -0.2812 -0.0275 -0.2451
   15MOL   O62413812   5.991   3.064   3.571  0.0783 -0.3859 -0.3225
   15MOL   C62513813   5.883   3.029   3.633 -0.7058 -0.0376 -0.1738
   15MOL   O62613814   5.858   2.914   3.667 -0.2957  0.7944 -0.1564
   15MOL   C62713815   5.788   3.144   3.647 -0.0348  0.2120 -0.1681
   15MOL   C62813816   5.793   3.246   3.552 -0.5513  0.2329  0.5436
   15MOL   C62913817   5.693   3.343   3.555  0.7310 -0.0204  0.7041
   15MOL   C63013818   5.585   3.329   3.644  0.2728 -0.6312  0.2284
   15MOL   C63113819   5.476   3.431   3.622 -0.2864 -0.2175  0.4208
   15MOL   O63213820   5.475   3.508   3.527 -0.6439  0.1362 -0.8447
   15MOL   O63313821   5.376   3.421   3.705  0.3840 -0.6305  0.2061
   15MOL   C63413822   5.581   3.225   3.736  0.3060 -0.4381  0.0320
   15MOL   C63513823   5.682   3.137   3.743  0.2144 -0.6329  0.4918
   15MOL   H63613824   6.450   3.244   2.765  1.3081  0.6250 -1.1974
   15MOL   H63713825   6.393   3.418   2.763 -1.2936  0.2589  1.1797
   15MOL   H63813826   6.213   3.182   2.706 -0.7475 -0.6979  0.5416
   15MOL   H63913827   6.162   3.345   2.715  2.5414  1.2793 -0.9970
   15MOL   H64013828   6.265   3.183   2.944  0.9946  0.6993 -1.3045
   15MOL   H64113829   6.223   3.350   2.963  0.9818  0.1990 -1.3552
   15MOL   H64213830   6.015   3.166   2.878  2.1532 -2.2699  1.1547
   15MOL   H64313831   5.997   3.339   2.891  2.1573  2.6365  2.3917
   15MOL   H64413832   6.066   3.286   3.157  0.2557  0.1202 -0.0727
   15MOL   H64513833   5.915   3.268   3.103  0.8073  2.1207  0.0859
   15MOL   H64613834   5.946   3.037   3.048  0.6543 -0.4277 -0.2425
   15MOL   H64713835   6.121   3.048   3.074 -0.1264 -0.2708 -1.1035
   15MOL   H64813836   6.034   3.142   3.323  0.1294 -0.9031  0.0090
   15MOL   H64913837   5.903   3.042   3.289 -0.6798  1.5530 -0.5058
   15MOL   H65013838   6.034   2.841   3.225 -2.0418  1.8556 -0.8429
   15MOL   H65113839   6.185   2.923   3.278  0.7241 -1.7289 -1.7177
   15MOL   H65213840   6.130   2.789   3.433 -1.5666 -1.0953 -1.3545
   15MOL   H65313841   5.946   2.828   3.436 -1.0755  2.5193  0.2312
   15MOL   H65413842   6.171   3.007   3.511 -1.0301  0.5043 -1.7852
   15MOL   H65513843   6.110   2.898   3.627 -1.4323 -0.7158 -0.2898
   15MOL   H65613844   5.873   3.247   3.480  1.1149  1.2956  2.3457
   15MOL   H65713845   5.701   3.413   3.473  0.6277  0.7047  1.3071
   15MOL   H65813846   5.496   3.212   3.802  0.5666 -0.5120  0.3568
   15MOL   H65913847   5.672   3.049   3.804 -1.4591 -0.6038  0.2692
   15MOL   O66013848   5.249   3.500   3.661 -0.0152 -0.8782  0.0610
   15MOL   C66113849   5.151   3.419   3.617 -0.4058  0.4983 -0.5153
   15MOL   C66213850   5.053   3.508   3.535  0.2379  0.2639 -0.7535
   15MOL   C66313851   5.112   3.588   3.412 -0.2004 -0.0180  0.3966
   15MOL   C66413852   5.016   3.691   3.343  0.1238  0.5550  0.0853
   15MOL   C66513853   4.892   3.632   3.266 -0.3685  0.0769 -0.8302
   15MOL   C66613854   4.818   3.739   3.178  0.2661  0.0465 -0.8471
   15MOL   C66713855   4.718   3.669   3.092  0.3552 -0.1013  1.0710
   15MOL   C66813856   4.637   3.772   3.007 -0.3896  0.1147 -0.1354
   15MOL   C66913857   4.528   3.692   2.928  0.1269 -0.8775  0.3710
   15MOL   C67013858   4.470   3.777   2.811 -0.2220 -0.6327 -0.3540
   15MOL   O67113859   4.416   3.903   2.869  0.3598 -0.9563 -0.9156
   15MOL   C67213860   4.479   4.019   2.837 -0.1532 -0.0759  0.1758
   15MOL   O67313861   4.583   4.021   2.776 -0.3324  0.7052  0.2346
   15MOL   C67413862   4.420   4.147   2.891 -0.6806 -0.0902  0.5355
   15MOL   C67513863   4.321   4.144   2.991 -0.0707  1.0302  0.1174
   15MOL   C67613864   4.281   4.265   3.066 -0.2266 -0.2475 -0.2338
   15MOL   C67713865   4.332   4.390   3.023  0.6185  0.2875  0.5703
   15MOL   C67813866   4.286   4.518   3.086 -0.2856  0.0095 -0.5123
   15MOL   O67913867   4.221   4.517   3.188 -0.4887  0.8393 -0.5056
   15MOL   O68013868   4.339   4.627   3.030 -0.3046 -0.5568  0.1915
   15MOL   C68113869   4.428   4.386   2.914 -0.1801  0.9474 -0.6648
   15MOL   C68213870   4.476   4.266   2.853 -0.7230  0.1647 -0.5594
   15MOL   H68313871   5.183   3.336   3.555 -2.3022 -0.6227 -0.0459
   15MOL   H68413872   5.100   3.379   3.704 -0.2075 -0.5367 -0.8764
   15MOL   H68513873   4.997   3.566   3.609 -1.2245 -1.7048 -0.2482
   15MOL   H68613874   4.978   3.439   3.495 -0.5822  0.4723  0.3932
   15MOL   H68713875   5.212   3.630   3.422 -0.4524  0.5492  0.5634
   15MOL   H68813876   5.137   3.510   3.341  1.2369  1.4441 -0.7382
   15MOL   H68913877   5.078   3.753   3.278 -1.3715  2.0528  0.0705
   15MOL   H69013878   4.967   3.760   3.411 -3.2550 -2.0485  0.3841
   15MOL   H69113879   4.923   3.546   3.207 -0.1613 -0.3038 -0.1683
   15MOL   H69213880   4.816   3.589   3.332 -1.4122  2.6261 -0.3027
   15MOL   H69313881   4.777   3.804   3.255  2.3210  0.6714 -0.2314
   15MOL   H69413882   4.896   3.798   3.130  0.4251  2.3914  2.1349
   15MOL   H69513883   4.777   3.602   3.029  1.1446  1.8491 -0.2812
   15MOL   H69613884   4.649   3.602   3.144  0.1158  0.8079  1.9356
   15MOL   H69713885   4.592   3.851   3.067 -2.3239 -3.1625  2.9297
   15MOL   H69813886   4.713   3.816   2.943 -0.1268  0.9881  0.7619
   15MOL   H69913887   4.455   3.654   2.999 -0.7379 -1.1828 -0.6653
   15MOL   H70013888   4.587   3.609   2.887 -1.0905 -0.6826 -1.8503
   15MOL   H70113889   4.380   3.734   2.768  0.3748 -0.3056 -1.9745
   15MOL   H70213890   4.545   3.786   2.733  1.6578 -0.2265  1.4331
   15MOL   H70313891   4.283   4.051   3.029 -0.6179  0.9113 -0.7157
   15MOL   H70413892   4.216   4.268   3.153  0.2063  3.6782  0.0693
   15MOL   H70513893   4.478   4.473   2.873  2.1950 -0.4462 -0.7916
   15MOL   H70613894   4.561   4.258   2.787 -0.3602 -1.1345  0.0432
   15MOL   O70713895   4.264   4.757   3.054 -0.6045 -0.1191 -0.2146
   15MOL   C70813896   4.338   4.844   3.137  0.0860  0.6639  0.1167
   15MOL   C70913897   4.246   4.958   3.174 -0.0037  0.4990 -0.1920
   15MOL   C71013898   4.133   4.910   3.264 -0.2079 -0.2392  0.9328
   15MOL   C71113899   4.171   4.868   3.401  0.3413 -0.1439 -0.2784
   15MOL   C71213900   4.053   4.858   3.504  0.0447  0.4437  0.0115
   15MOL   C71313901   4.102   4.798   3.633  0.0290  0.1792 -0.1623
   15MOL   C71413902   4.028   4.826   3.761  0.1936 -0.3986 -0.4793
   15MOL   C71513903   4.109   4.813   3.886 -0.3567 -0.1913 -0.8004
   15MOL   C71613904   4.029   4.763   4.012 -0.2353 -0.0343  0.2230
   15MOL   C71713905   4.108   4.764   4.147 -0.1392 -0.0164  0.1375
   15MOL   O71813906   4.065   4.670   4.244  0.1145  0.2935  0.2203
   15MOL   C71913907   3.958   4.686   4.321  0.6035  0.4116  0.4819
   15MOL   O72013908   3.880   4.782   4.305 -0.3191  0.2764 -0.2177
   15MOL   C72113909   3.949   4.573   4.420  0.3240 -0.4206  0.3821
   15MOL   C72213910   3.860   4.576   4.524  0.8930  0.3039 -0.5267
   15MOL   C72313911   3.837   4.461   4.604 -0.0367  0.2395 -0.5223
   15MOL   C72413912   3.913   4.348   4.585 -0.1865 -0.2120 -0.2474
   15MOL   C72513913   3.888   4.229   4.681 -0.2439  0.0194  0.2463
   15MOL   O72613914   3.784   4.227   4.746  0.3260 -0.2108 -0.2240
   15MOL   O72713915   3.974   4.132   4.681 -0.0192  0.0381  0.5007
   15MOL   C72813916   4.010   4.352   4.480 -0.2327 -0.0224  0.7013
   15MOL   C72913917   4.029   4.463   4.395 -0.4531 -0.9320 -0.5627
   15MOL   H73013918   4.369   4.790   3.227 -0.3283 -0.2665 -0.3051
   15MOL   H73113919   4.428   4.880   3.088  1.1368 -2.7758 -0.5795
   15MOL   H73213920   4.200   5.015   3.093  2.0281  3.4147  0.6072
   15MOL   H73313921   4.302   5.033   3.230 -1.4998  1.2070  0.3863
   15MOL   H73413922   4.048   4.979   3.263 -0.8853 -1.0795 -0.3428
   15MOL   H73513923   4.083   4.819   3.231 -0.5088  0.3917 -0.4017
   15MOL   H73613924   4.256   4.919   3.447  0.3556 -1.3048  1.0193
   15MOL   H73713925   4.208   4.766   3.389 -2.6975 -1.0312 -2.6644
   15MOL   H73813926   4.025   4.957   3.539  2.2357  1.3906 -0.7882
   15MOL   H73913927   3.969   4.807   3.458  1.1084 -0.0304 -1.4669
   15MOL   H74013928   4.094   4.691   3.618 -0.9746 -0.0634  1.8836
   15MOL   H74113929   4.204   4.832   3.650  0.5672 -1.0032 -0.9636
   15MOL   H74213930   3.998   4.930   3.764  0.7712 -0.2357 -0.2609
   15MOL   H74313931   3.939   4.763   3.762 -0.4605  0.5315  0.4340
   15MOL   H74413932   4.185   4.741   3.855 -0.8317 -0.6435 -0.9140
   15MOL   H74513933   4.163   4.905   3.907 -0.1349 -0.5609  0.2544
   15MOL   H74613934   4.001   4.657   4.011  3.3706 -1.1018  0.8187
   15MOL   H74713935   3.933   4.812   4.023 -1.3976 -2.3133  0.5760
   15MOL   H74813936   4.083   4.862   4.186  1.1038  0.0059  0.9030
   15MOL   H74913937   4.216   4.765   4.133  0.0329  1.0715  1.5140
   15MOL   H75013938   3.804   4.667   4.539  0.8808  0.3393 -0.7866
   15MOL   H75113939   3.773   4.467   4.691  0.2193 -1.7501 -0.1733
   15MOL   H75213940   4.066   4.261   4.463  0.3839  0.4932 -0.0924
   15MOL   H75313941   4.101   4.445   4.316 -0.8189  0.7792 -1.3063
   15MOL   O75413942   3.956   4.048   4.802  0.3379 -0.0873 -0.2439
   15MOL   C75513943   4.082   4.042   4.864  0.0761  0.1677  0.2522
   15MOL   C75613944   4.077   3.983   5.012  0.3053  0.1814  0.0017
   15MOL   C75713945   4.018   4.076   5.114  0.1160  0.0903 -0.0243
   15MOL   C75813946   4.003   4.012   5.256  0.8848  0.2219  0.0586
   15MOL   C75913947   3.906   3.896   5.257  0.2942 -0.3267 -0.0521
   15MOL   C76013948   3.892   3.836   5.393 -0.2008 -0.4113 -0.0143
   15MOL   C76113949   3.787   3.727   5.397 -0.1128  0.1011  0.1527
   15MOL   C76213950   3.815   3.624   5.506  0.1092 -0.2651 -0.0641
   15MOL   C76313951   3.690   3.545   5.539 -0.1027 -0.3512  0.2972
   15MOL   C76413952   3.709   3.438   5.644  0.2291 -0.1281  0.3614
   15MOL   O76513953   3.719   3.504   5.764  0.4289  0.2152 -0.5344
   15MOL   C76613954   3.719   3.430   5.874  0.0998 -0.4561 -0.6053
   15MOL   O76713955   3.715   3.309   5.877  0.5252  0.1157 -0.2182
   15MOL   C76813956   3.731   3.506   6.010 -0.7057 -0.1046 -0.1160
   15MOL   C76913957   3.712   3.643   6.008 -0.4435  0.4138 -0.2996
   15MOL   C77013958   3.694   3.713   6.126 -0.5124  0.1895 -0.0020
   15MOL   C77113959   3.715   3.657   6.253 -0.2037  0.2565 -0.0638
   15MOL   C77213960   3.696   3.732   6.376  0.5011  0.2474  0.2663
   15MOL   O77313961   3.636   3.845   6.383 -0.3654 -0.1979  0.3791
   15MOL   O77413962   3.733   3.667   6.485 -0.1010  0.2863  0.7801
   15MOL   C77513963   3.739   3.518   6.260 -0.3708 -0.1061 -0.0899
   15MOL   C77613964   3.745   3.446   6.138  0.4278 -0.3940  0.3391
   15MOL   H77713965   4.141   3.969   4.808 -0.2613  0.1161 -0.0336
   15MOL   H77813966   4.128   4.140   4.862  1.0632 -0.3061 -0.5405
   15MOL   H77913967   4.182   3.958   5.026  0.5229  2.3810  2.7073
   15MOL   H78013968   4.018   3.891   5.012 -1.8283  1.5019 -0.0295
   15MOL   H78113969   4.089   4.158   5.124  0.7535 -0.3945 -0.5753
   15MOL   H78213970   3.915   4.098   5.084 -0.1392 -0.2714  0.5700
   15MOL   H78313971   3.962   4.091   5.320  0.2292  0.8345 -1.0998
   15MOL   H78413972   4.097   3.987   5.304  0.0742 -0.6309  1.2602
   15MOL   H78513973   3.809   3.926   5.218 -1.2221 -0.4418  3.4062
   15MOL   H78613974   3.927   3.812   5.191 -0.1049  0.7888 -1.6175
   15MOL   H78713975   3.987   3.789   5.415  1.0130  2.4380  0.9626
   15MOL   H78813976   3.881   3.913   5.469 -2.7211 -1.2322  0.5273
   15MOL   H78913977   3.691   3.776   5.414 -1.0472 -0.6236 -2.8090
   15MOL   H79013978   3.775   3.671   5.304 -2.9920 -0.8094  1.0272
   15MOL   H79113979   3.900   3.568   5.468 -0.3494 -2.2959  1.7644
   15MOL   H79213980   3.850   3.666   5.601  0.9241 -1.1201  0.0246
   15MOL   H79313981   3.652   3.505   5.446 -0.4393  0.9198 -0.1252
   15MOL   H79413982   3.609   3.615   5.558  1.9647  1.6231  2.1299
   15MOL   H79513983   3.801   3.385   5.621  2.1305  2.9948  0.5063
   15MOL   H79613984   3.628   3.366   5.633  0.1010  0.3005 -1.9734
   15MOL   H79713985   3.699   3.694   5.914 -0.8844  0.2313 -0.3365
   15MOL   H79813986   3.682   3.818   6.104 -1.6963 -0.0676 -0.6381
   15MOL   H79913987   3.761   3.466   6.352 -0.2068  0.8980  0.4461
   15MOL   H80013988   3.764   3.341   6.154 -0.9562 -0.9590 -1.5907
   15MOL   O80113989   3.713   3.733   6.616  0.3345  0.7391  0.3586
   15MOL   C80213990   3.591   3.684   6.675  0.3911  0.5296 -0.5330
   15MOL   C80313991   3.596   3.533   6.685 -0.1363 -0.1905 -0.3703
   15MOL   C80413992   3.708   3.499   6.786 -0.1185  0.2404  0.3586
   15MOL   C80513993   3.696   3.353   6.846  0.0373  0.2192 -0.5082
   15MOL   C80613994   3.734   3.238   6.758 -0.2306  0.1994 -0.2155
   15MOL   C80713995   3.714   3.099   6.822  0.0998  0.7120  0.0759
   15MOL   C80813996   3.767   2.983   6.729 -0.5071 -0.9436  0.5477
   15MOL   C80913997   3.733   2.849   6.787  0.1724 -0.6541  0.1272
   15MOL   C81013998   3.576   2.821   6.794  0.0551  1.6634 -0.7759
   15MOL   C81113999   3.545   2.672   6.818  0.6181  0.2973 -0.3354
   15MOL   O81214000   3.610   2.594   6.716 -0.2701 -0.3241  0.0636
   15MOL   C81314001   3.661   2.473   6.747  0.6000  0.3298 -0.3583
   15MOL   O81414002   3.683   2.441   6.863  0.0355 -0.0525 -0.1621
   15MOL   C81514003   3.675   2.389   6.634 -0.2845 -0.2538 -0.5512
   15MOL   C81614004   3.692   2.433   6.501 -0.4637 -0.5273 -0.5175
   15MOL   C81714005   3.692   2.343   6.394  0.3046 -0.3415 -0.3171
   15MOL   C81814006   3.688   2.205   6.413  0.5507  0.1443 -0.3293
   15MOL   C81914007   3.675   2.120   6.288  0.2009 -0.2983  0.6716
   15MOL   O82014008   3.681   2.174   6.172  0.7961 -0.2910 -0.8022
   15MOL   O82114009   3.677   1.986   6.309  0.4112  0.0292 -0.1929
   15MOL   C82214010   3.692   2.161   6.546  0.0920 -0.2836  0.5427
   15MOL   C82314011   3.678   2.247   6.657  0.4842  0.2144  0.0591
   15MOL   H82414012   3.579   3.732   6.773  0.5763 -2.2654  0.8916
   15MOL   H82514013   3.501   3.715   6.621  1.5879  0.7139 -2.4601
   15MOL   H82614014   3.621   3.494   6.587 -2.4384  0.5909 -1.2855
   15MOL   H82714015   3.496   3.495   6.708  0.5488 -1.3039  0.8267
   15MOL   H82814016   3.808   3.504   6.745 -0.0693  1.3893  0.5937
   15MOL   H82914017   3.728   3.570   6.866 -3.3757  0.5596  0.9830
   15MOL   H83014018   3.592   3.355   6.878  0.5113 -0.0097  1.0689
   15MOL   H83114019   3.745   3.359   6.943  1.2220 -1.8956 -0.9618
   15MOL   H83214020   3.688   3.249   6.660 -0.7565  2.2261  0.2387
   15MOL   H83314021   3.839   3.261   6.740  0.4494 -1.6282  1.2169
   15MOL   H83414022   3.769   3.091   6.916  0.1037 -1.4446 -0.0871
   15MOL   H83514023   3.607   3.088   6.838  0.4540 -1.0882  1.3673
   15MOL   H83614024   3.718   2.994   6.632 -2.4078  0.4869  1.6281
   15MOL   H83714025   3.874   3.004   6.726 -0.5160 -0.5595  2.2482
   15MOL   H83814026   3.776   2.779   6.716 -1.2488 -0.5099 -0.8984
   15MOL   H83914027   3.781   2.828   6.883 -0.8382  1.1767  1.0801
   15MOL   H84014028   3.538   2.862   6.700 -3.5955  0.0255 -0.1034
   15MOL   H84114029   3.526   2.878   6.872 -1.7638 -2.3504  1.0984
   15MOL   H84214030   3.442   2.641   6.804  0.1906  0.9193  1.3090
   15MOL   H84314031   3.573   2.650   6.922 -2.8990 -1.6102  0.2693
   15MOL   H84414032   3.697   2.537   6.474  0.9524 -0.8967 -1.7762
   15MOL   H84514033   3.684   2.386   6.295  0.3423  1.8404  0.5903
   15MOL   H84614034   3.680   2.056   6.565 -0.8035 -0.7934 -2.6218
   15MOL   H84714035   3.683   2.203   6.756  0.2566  3.2209  1.4609
   15MOL   O84814036   3.666   1.911   6.183  0.1701 -0.0863  0.1925
   15MOL   C84914037   3.790   1.863   6.137  0.0879  0.6589 -0.3504
   15MOL   C85014038   3.794   1.773   6.014  0.1742 -0.2166  0.3914
   15MOL   C85114039   3.749   1.633   6.046 -0.3278  0.6770 -0.6254
   15MOL   C85214040   3.790   1.521   5.946  0.3578 -0.7688 -0.4338
   15MOL   C85314041   3.731   1.385   5.988  0.2127 -0.3426 -0.4137
   15MOL   C85414042   3.765   1.266   5.898  0.2135  0.5708  0.2770
   15MOL   C85514043   3.689   1.139   5.945 -0.3502 -0.7217  0.2484
   15MOL   C85614044   3.729   1.015   5.865 -0.5964 -0.2954 -0.4140
   15MOL   C85714045   3.653   1.013   5.736 -0.4002  0.7862 -0.3921
   15MOL   C85814046   3.703   0.892   5.649 -0.3833 -0.5684  0.1784
   15MOL   O85914047   3.807   0.941   5.564  0.1121 -0.2500  0.4570
   15MOL   C86014048   3.790   0.934   5.432 -0.0036  0.1493 -0.4928
   15MOL   O86114049   3.685   0.907   5.382 -0.3383 -0.6200 -0.1476
   15MOL   C86214050   3.912   0.962   5.349 -0.9990 -0.1951  0.1357
   15MOL   C86314051   4.016   1.034   5.411 -0.9482 -0.2690 -0.5811
   15MOL   C86414052   4.137   1.055   5.348  0.0177 -0.0960 -0.3237
   15MOL   C86514053   4.166   0.996   5.222 -0.3856 -0.0584  0.0573
   15MOL   C86614054   4.309   0.994   5.168  0.3868 -0.4656 -0.4374
   15MOL   O86714055   4.412   1.032   5.221  0.1516 -0.0371 -0.0649
   15MOL   O86814056   4.309   0.947   5.045 -0.2688 -0.3008  0.1392
   15MOL   C86914057   4.064   0.923   5.154  0.7245  0.1554 -0.4314
   15MOL   C87014058   3.937   0.912   5.219 -0.2560 -0.6162 -0.8537
   15MOL   H87114059   3.856   1.943   6.104 -0.5031  0.7808 -1.2541
   15MOL   H87214060   3.847   1.814   6.216  0.2322  3.4186  1.3220
   15MOL   H87314061   3.896   1.766   5.976 -0.6896  1.2735 -2.3704
   15MOL   H87414062   3.743   1.824   5.932  0.8245 -1.6099 -0.9073
   15MOL   H87514063   3.795   1.594   6.137 -0.6674  0.3239 -0.6050
   15MOL   H87614064   3.642   1.633   6.068 -0.1364 -1.1608  0.4194
   15MOL   H87714065   3.898   1.511   5.941  0.4522 -1.3924  2.2311
   15MOL   H87814066   3.759   1.540   5.843 -0.6748 -0.5868 -0.1005
   15MOL   H87914067   3.743   1.366   6.095  0.7225 -1.6732 -0.6962
   15MOL   H88014068   3.624   1.405   5.992  0.6139  1.9032 -0.2409
   15MOL   H88114069   3.739   1.286   5.794 -1.2806 -0.0312  0.5130
   15MOL   H88214070   3.870   1.236   5.904 -0.4726 -1.6835  2.1959
   15MOL   H88314071   3.696   1.117   6.052 -0.6921  0.9474  0.6182
   15MOL   H88414072   3.581   1.142   5.938 -0.3694 -2.2935 -0.2472
   15MOL   H88514073   3.836   1.014   5.844 -0.2468 -1.2810  1.2829
   15MOL   H88614074   3.709   0.928   5.927 -0.1004 -0.5114 -0.5584
   15MOL   H88714075   3.643   1.103   5.676 -2.1374  0.5434 -0.5055
   15MOL   H88814076   3.550   0.998   5.770 -0.6800 -0.2028 -1.6247
   15MOL   H88914077   3.626   0.845   5.587  0.6850 -0.5511 -1.1728
   15MOL   H89014078   3.756   0.809   5.697  1.3731 -1.0893 -2.5599
   15MOL   H89114079   3.996   1.075   5.509 -0.6834 -0.2303 -0.5445
   15MOL   H89214080   4.212   1.117   5.394 -0.2681 -0.4045  0.5578
   15MOL   H89314081   4.096   0.870   5.065  0.9390 -3.2652  1.5835
   15MOL   H89414082   3.855   0.864   5.167  0.5115 -1.5256 -1.2395
   15MOL   O89514083   4.443   0.935   4.974 -0.2035  0.5276 -0.3036
   15MOL   C89614084   4.461   0.800   4.941  0.4821  0.4426 -0.0331
   15MOL   C89714085   4.481   0.710   5.063  0.2563  0.4718  0.3031
   15MOL   C89814086   4.494   0.561   5.012  0.6104 -0.3409  0.2476
   15MOL   C89914087   4.544   0.468   5.124 -0.0919  0.5634  0.3785
   15MOL   C90014088   4.601   0.335   5.080  0.5394 -0.0615  0.1920
   15MOL   C90114089   4.485   0.253   5.025 -0.1618 -0.0658 -0.6196
   15MOL   C90214090   4.522   0.105   5.000  0.1679  0.3685 -0.3520
   15MOL   C90314091   4.404   0.038   4.931 -0.3164  0.9163 -0.0238
   15MOL   C90414092   4.433   7.874   4.885 -0.4382  0.6605  0.2628
   15MOL   C90514093   4.320   7.817   4.800  0.7213  0.3959  0.9872
   15MOL   O90614094   4.338   7.680   4.775  0.1618  0.1269  0.4079
   15MOL   C90714095   4.237   7.595   4.795 -0.7221 -0.3755 -0.1547
   15MOL   O90814096   4.126   7.627   4.840  0.1977 -0.2851 -0.2650
   15MOL   C90914097   4.270   7.459   4.745  0.3461  0.0798  0.3166
   15MOL   C91014098   4.374   7.430   4.656  0.1803 -0.3926  0.0570
   15MOL   C91114099   4.404   7.298   4.623  0.5254  0.2139 -0.2835
   15MOL   C91214100   4.326   7.193   4.674  0.4204 -0.7664  0.5329
   15MOL   C91314101   4.354   7.052   4.628 -0.2848  0.9948 -0.4162
   15MOL   O91414102   4.443   7.023   4.548 -0.1047 -0.5941 -0.2873
   15MOL   O91514103   4.278   6.959   4.682  0.4375  0.3239  0.0020
   15MOL   C91614104   4.221   7.219   4.761 -0.4957  0.0712 -0.0129
   15MOL   C91714105   4.184   7.358   4.786 -0.1195 -0.0106 -0.0575
   15MOL   H91814106   4.372   0.774   4.884  0.6625 -0.4952  0.1142
   15MOL   H91914107   4.541   0.788   4.867 -0.1297  0.7185 -0.7498
   15MOL   H92014108   4.391   0.712   5.125 -0.7992 -0.0233 -1.1974
   15MOL   H92114109   4.577   0.736   5.107  1.3937  1.2086 -2.5160
   15MOL   H92214110   4.410   0.515   4.960  0.3450  0.7867 -0.3255
   15MOL   H92314111   4.573   0.554   4.937  1.3100  0.4274  0.8978
   15MOL   H92414112   4.465   0.458   5.199  0.1374 -1.1303  0.4189
   15MOL   H92514113   4.626   0.522   5.170  0.6693 -1.0881  0.9731
   15MOL   H92614114   4.680   0.345   5.005  0.3928 -1.0730 -0.0966
   15MOL   H92714115   4.646   0.291   5.169  0.8297  1.4643  0.8150
   15MOL   H92814116   4.399   0.261   5.091 -0.1127 -1.6005 -0.3566
   15MOL   H92914117   4.460   0.300   4.930  2.2463  0.1119 -1.2060
   15MOL   H93014118   4.618   0.101   4.948  0.9368  0.0853  1.0676
   15MOL   H93114119   4.549   0.052   5.091  0.2456  1.6315  0.3819
   15MOL   H93214120   4.311   0.032   4.987 -0.7401  0.7093 -0.7404
   15MOL   H93314121   4.377   0.089   4.838 -0.4799 -0.1661 -0.5746
   15MOL   H93414122   4.449   7.815   4.975 -0.8687  0.0111 -0.0843
   15MOL   H93514123   4.523   7.875   4.824 -2.0768  0.2919 -2.2398
   15MOL   H93614124   4.328   7.872   4.705  2.2189 -0.0500  0.8566
   15MOL   H93714125   4.223   7.835   4.846  0.7744  2.3262  0.4299
   15MOL   H93814126   4.434   7.513   4.620 -1.1283  0.8062  0.5924
   15MOL   H93914127   4.489   7.281   4.559 -0.8623  2.5202 -2.7768
   15MOL   H94014128   4.159   7.141   4.802  1.3849 -0.9391  1.0083
   15MOL   H94114129   4.092   7.385   4.835 -0.5450  0.7487 -1.2699
   15MOL   H94214130   4.320   6.877   4.657 -1.0116 -0.3691 -0.2260
   16MOL     O114131   7.321   5.701   0.421 -0.5378 -0.1698 -0.4000
   16MOL     C214132   7.192   5.729   0.464  0.6442 -0.0088  0.6010
   16MOL     C314133   7.152   5.699   0.611  0.2291  0.3156  0.0991
   16MOL     C414134   7.197   5.805   0.712 -0.1022 -0.7078  0.5026
   16MOL     C514135   7.160   5.768   0.861  0.0001  0.5162 -0.0020
   16MOL     C614136   7.018   5.817   0.894  0.5285  0.2433  0.3219
   16MOL     C714137   6.991   5.857   1.038 -0.3304 -0.2989 -0.0303
   16MOL     C814138   6.844   5.871   1.062  0.3316  0.2260  0.6123
   16MOL     C914139   6.801   5.861   1.210 -0.1915  0.3242 -0.1432
   16MOL    C1014140   6.653   5.871   1.236 -0.2145  0.1217 -0.2200
   16MOL    C1114141   6.623   5.845   1.385 -0.2074  0.4840 -0.5760
   16MOL    O1214142   6.482   5.859   1.405 -0.2348 -0.7956  0.6121
   16MOL    C1314143   6.410   5.751   1.450 -0.8808  0.0059  0.5563
   16MOL    O1414144   6.456   5.642   1.487 -0.6805 -0.5324  0.5195
   16MOL    C1514145   6.271   5.785   1.468 -0.6816  0.3474  1.1275
   16MOL    C1614146   6.183   5.698   1.535 -0.2764 -0.0316 -0.2603
   16MOL    C1714147   6.047   5.729   1.540  0.7326  0.0350  0.2044
   16MOL    C1814148   5.992   5.844   1.475 -0.5109 -0.2420 -0.0798
   16MOL    C1914149   5.852   5.886   1.475  0.4493 -0.0380 -0.5225
   16MOL    O2014150   5.763   5.832   1.537  0.0069 -0.0180  0.0790
   16MOL    O2114151   5.829   5.984   1.387  0.3365  0.3477  0.3408
   16MOL    C2214152   6.085   5.927   1.409 -0.6726  0.7541  0.1483
   16MOL    C2314153   6.223   5.901   1.404  0.2039  0.5714  0.0233
   16MOL    H2414154   7.174   5.834   0.438  0.1041 -0.1853  0.2580
   16MOL    H2514155   7.126   5.670   0.401 -1.2121  1.2484  1.3384
   16MOL    H2614156   7.175   5.600   0.649 -3.2957  0.0841  1.8101
   16MOL    H2714157   7.046   5.674   0.607  0.8562 -2.7196  1.3646
   16MOL    H2814158   7.304   5.824   0.707  0.0789 -1.8929 -0.3874
   16MOL    H2914159   7.161   5.906   0.690 -1.9705 -1.7403 -1.3000
   16MOL    H3014160   7.231   5.815   0.930  1.3961  0.6335 -1.4937
   16MOL    H3114161   7.164   5.662   0.884  0.2700  0.2330 -1.3183
   16MOL    H3214162   6.993   5.905   0.834 -0.0645  0.1951  0.4926
   16MOL    H3314163   6.951   5.745   0.846  0.8184  0.5867 -0.6115
   16MOL    H3414164   7.022   5.773   1.101 -0.6792 -0.6448 -0.3184
   16MOL    H3514165   7.036   5.945   1.083 -2.2866 -0.1339  1.6988
   16MOL    H3614166   6.799   5.957   1.012  0.1589 -0.0833  0.2290
   16MOL    H3714167   6.796   5.789   1.008 -0.2948  1.4382 -0.7335
   16MOL    H3814168   6.847   5.771   1.251 -0.3900 -0.7881 -2.2793
   16MOL    H3914169   6.844   5.942   1.269 -0.0876  1.1081 -1.2675
   16MOL    H4014170   6.587   5.807   1.177  0.0713 -0.0380 -0.3696
   16MOL    H4114171   6.628   5.973   1.207 -1.0302  0.5732  1.9612
   16MOL    H4214172   6.679   5.915   1.446  0.4047 -0.6460  0.1767
   16MOL    H4314173   6.658   5.750   1.426 -0.9428  0.3277 -0.2886
   16MOL    H4414174   6.215   5.609   1.588  0.9547  0.4679 -0.1459
   16MOL    H4514175   5.975   5.668   1.591  1.0810  0.8929  1.7413
   16MOL    H4614176   6.056   6.013   1.351  0.6613  1.1246  0.0019
   16MOL    H4714177   6.293   5.969   1.359  0.8739 -0.2373 -0.1740
   16MOL    H4814178   7.323   5.607   0.429  3.2611  0.0148  2.3084
   16MOL    O4914179   5.677   6.017   1.372  0.2639  0.2263 -0.5079
   16MOL    C5014180   5.624   5.954   1.253  0.0111  0.1957 -0.1210
   16MOL    C5114181   5.488   6.021   1.238 -0.5856  0.0878 -0.6694
   16MOL    C5214182   5.405   5.976   1.119  0.1520  0.5499 -0.1877
   16MOL    C5314183   5.269   6.042   1.112  0.9830  0.6249 -0.4497
   16MOL    C5414184   5.266   6.182   1.052 -0.7557 -0.4598 -1.1739
   16MOL    C5514185   5.275   6.196   0.894  0.2129 -0.8771  0.0404
   16MOL    C5614186   5.272   6.340   0.834  0.3733 -0.4027 -0.0221
   16MOL    C5714187   5.296   6.344   0.685 -0.3828  0.2672  0.3946
   16MOL    C5814188   5.163   6.309   0.604 -0.0732  0.3301  0.2949
   16MOL    C5914189   5.052   6.411   0.629 -0.0623  0.5670 -0.0508
   16MOL    O6014190   5.057   6.496   0.519 -0.0280 -0.0815  0.0138
   16MOL    C6114191   4.963   6.586   0.507 -0.4708 -0.5965 -0.3159
   16MOL    O6214192   4.868   6.600   0.584  0.0562 -0.2114  0.2052
   16MOL    C6314193   4.987   6.664   0.380 -0.6367 -0.0449 -0.2195
   16MOL    C6414194   5.107   6.643   0.309  0.2688  0.6729  0.3918
   16MOL    C6514195   5.115   6.709   0.183 -0.1964  1.0253 -0.1226
   16MOL    C6614196   5.015   6.786   0.126 -0.0042 -0.4848  0.6483
   16MOL    C6714197   5.028   6.860   7.972  0.2724 -0.7682  0.3313
   16MOL    O6814198   4.935   6.921   7.915 -0.1089 -0.5446  0.8427
   16MOL    O6914199   5.159   6.856   7.930  0.5404 -0.8826  0.3834
   16MOL    C7014200   4.899   6.810   0.198 -0.5560 -0.1384  0.3299
   16MOL    C7114201   4.888   6.752   0.331  0.0316 -0.0531 -0.6084
   16MOL    H7214202   5.699   5.972   1.177 -0.6212 -1.4211 -1.1702
   16MOL    H7314203   5.624   5.846   1.267  0.7942  0.0995 -0.8175
   16MOL    H7414204   5.498   6.130   1.234 -0.2722  0.0323 -1.5951
   16MOL    H7514205   5.435   5.996   1.330  0.1917  0.2911 -0.1624
   16MOL    H7614206   5.452   6.004   1.025  1.5565 -0.8221  0.0804
   16MOL    H7714207   5.401   5.867   1.127 -0.0982  0.6362  1.0033
   16MOL    H7814208   5.222   6.048   1.210  0.3153 -1.1730 -0.6499
   16MOL    H7914209   5.208   5.978   1.049  2.0458  0.5812 -1.4631
   16MOL    H8014210   5.167   6.221   1.076 -0.6351 -1.0843  0.3757
   16MOL    H8114211   5.339   6.249   1.097 -1.7111 -1.6122  2.2319
   16MOL    H8214212   5.372   6.161   0.857  0.3370  1.0719 -1.5552
   16MOL    H8314213   5.203   6.124   0.856 -0.8916  0.2466 -0.0346
   16MOL    H8414214   5.178   6.389   0.861 -1.5700 -3.6667 -0.6475
   16MOL    H8514215   5.360   6.388   0.876 -0.4665  0.9028  0.2830
   16MOL    H8614216   5.340   6.440   0.659  0.1953 -0.3067 -0.8061
   16MOL    H8714217   5.359   6.258   0.663  1.6233  1.5606  0.9699
   16MOL    H8814218   5.136   6.206   0.630  2.9672 -0.9987 -1.5660
   16MOL    H8914219   5.190   6.304   0.499 -0.6291  1.2790  0.0990
   16MOL    H9014220   5.053   6.466   0.723  0.4516  4.1001 -2.0047
   16MOL    H9114221   4.955   6.363   0.624  0.2985 -0.0544 -1.1678
   16MOL    H9214222   5.184   6.578   0.348 -0.0810  0.4406  0.6967
   16MOL    H9314223   5.204   6.689   0.124 -0.9056 -1.3722 -0.4409
   16MOL    H9414224   4.812   6.864   0.166 -2.2448 -3.3671 -0.7423
   16MOL    H9514225   4.796   6.766   0.384  0.8718  0.6957  0.6737
   16MOL    O9614226   5.170   6.939   7.798  0.4087 -0.6608  0.0688
   16MOL    C9714227   5.132   6.853   7.690 -0.1784  0.3861  0.2569
   16MOL    C9814228   5.256   6.787   7.630  0.5183 -0.2398  0.6715
   16MOL    C9914229   5.234   6.718   7.492 -0.1267 -0.1405 -0.0820
   16MOL   C10014230   5.329   6.596   7.476  0.6484 -0.4361  0.0052
   16MOL   C10114231   5.303   6.522   7.345  0.0279 -0.2510 -0.1557
   16MOL   C10214232   5.389   6.393   7.347  0.1399  0.1438  0.1559
   16MOL   C10314233   5.383   6.314   7.221  0.9839  0.2974 -0.2647
   16MOL   C10414234   5.240   6.249   7.204  0.0983 -0.5244  0.5316
   16MOL   C10514235   5.243   6.154   7.085 -0.2243 -0.0347  0.2276
   16MOL   C10614236   5.117   6.065   7.067 -0.4963  0.1685 -0.5965
   16MOL   O10714237   5.141   5.979   6.950  0.2316 -0.2502  0.3944
   16MOL   C10814238   5.049   5.876   6.931 -0.1063  0.7021 -0.7223
   16MOL   O10914239   4.977   5.838   7.021 -0.0079 -0.6199 -0.0763
   16MOL   C11014240   5.067   5.810   6.801 -0.6518 -0.7785 -0.3970
   16MOL   C11114241   5.146   5.875   6.702 -0.0389 -0.2006 -0.0944
   16MOL   C11214242   5.156   5.814   6.572 -0.2354 -0.2384  0.9810
   16MOL   C11314243   5.105   5.684   6.546 -0.1969 -0.7495 -0.0211
   16MOL   C11414244   5.136   5.619   6.413 -0.2445 -0.6426  0.1784
   16MOL   O11514245   5.233   5.645   6.343 -0.5814 -0.3317 -0.2890
   16MOL   O11614246   5.045   5.525   6.363 -0.1674 -0.1493  0.1163
   16MOL   C11714247   5.023   5.625   6.647 -0.0274  0.5305  0.5587
   16MOL   C11814248   5.005   5.687   6.768  0.4715 -0.9967 -0.4532
   16MOL   H11914249   5.046   6.790   7.712 -0.2067 -0.5779 -2.4627
   16MOL   H12014250   5.084   6.927   7.626 -0.1579  1.8555  1.9111
   16MOL   H12114251   5.304   6.729   7.708 -1.0977 -4.1523 -1.1322
   16MOL   H12214252   5.323   6.871   7.609  0.9999 -1.3792 -2.6274
   16MOL   H12314253   5.133   6.677   7.489 -0.4640  0.5658  1.3716
   16MOL   H12414254   5.239   6.787   7.408 -0.4992 -1.4809 -1.2310
   16MOL   H12514255   5.306   6.532   7.561 -1.0802 -1.1724 -0.9923
   16MOL   H12614256   5.433   6.630   7.474  1.1150 -1.8873 -0.3374
   16MOL   H12714257   5.199   6.490   7.343 -0.4530  1.2591  0.2575
   16MOL   H12814258   5.320   6.587   7.259 -0.7504 -0.5524 -0.5378
   16MOL   H12914259   5.496   6.413   7.358  0.3936 -0.6855 -0.7257
   16MOL   H13014260   5.376   6.325   7.431 -0.6856  0.6232  0.4192
   16MOL   H13114261   5.413   6.375   7.136 -0.0698 -0.0549 -0.8951
   16MOL   H13214262   5.450   6.228   7.229 -0.9956 -1.1862  0.7084
   16MOL   H13314263   5.200   6.201   7.294  1.6779 -1.4720  0.7555
   16MOL   H13414264   5.167   6.326   7.180  0.8273  0.1617  0.5048
   16MOL   H13514265   5.332   6.092   7.085 -2.0880 -2.7954  1.9435
   16MOL   H13614266   5.249   6.215   6.995  1.2386 -2.4526 -1.3698
   16MOL   H13714267   5.027   6.124   7.051 -2.4612 -2.3739  0.6539
   16MOL   H13814268   5.103   6.008   7.159  0.1763 -1.1268 -1.2819
   16MOL   H13914269   5.200   5.966   6.721  1.3450 -0.9669 -0.2739
   16MOL   H14014270   5.206   5.866   6.492  0.2360 -1.5764  0.3925
   16MOL   H14114271   4.993   5.522   6.636  2.4606  0.1327 -3.9973
   16MOL   H14214272   4.946   5.635   6.843  0.1955  1.3199  1.0235
   16MOL   O14314273   5.076   5.485   6.221 -0.4913  0.3361  0.1213
   16MOL   C14414274   4.993   5.566   6.135  0.2938 -0.5441 -0.0802
   16MOL   C14514275   5.023   5.543   5.991  0.0392  0.0376 -1.0647
   16MOL   C14614276   4.964   5.412   5.941  0.1727  0.1377 -0.5663
   16MOL   C14714277   4.984   5.382   5.791 -0.6025  0.5379  0.1882
   16MOL   C14814278   4.899   5.270   5.742  0.6156 -0.6670 -0.2002
   16MOL   C14914279   4.906   5.263   5.590  0.3291 -0.0850 -0.0838
   16MOL   C15014280   4.810   5.151   5.545  0.4487  0.2929 -0.0258
   16MOL   C15114281   4.789   5.156   5.395 -0.1118 -0.5318 -0.0796
   16MOL   C15214282   4.685   5.267   5.352 -0.0847 -0.1358  0.2034
   16MOL   C15314283   4.653   5.255   5.203  0.0782  0.2331  0.0171
   16MOL   O15414284   4.564   5.363   5.164  0.4999 -0.1980 -0.2669
   16MOL   C15514285   4.526   5.377   5.036  0.0838 -0.5408  0.4951
   16MOL   O15614286   4.560   5.300   4.945 -0.1661 -0.7241  0.0487
   16MOL   C15714287   4.427   5.489   5.019 -0.4729  0.7897 -0.3564
   16MOL   C15814288   4.430   5.576   4.907  0.0504 -0.1310 -0.4594
   16MOL   C15914289   4.347   5.682   4.901 -0.1063 -0.3303  0.3449
   16MOL   C16014290   4.245   5.702   5.004  0.4839  0.3199 -0.2573
   16MOL   C16114291   4.152   5.819   4.999 -0.1330  0.5104 -0.3598
   16MOL   O16214292   4.157   5.908   4.912 -0.7350 -0.6530 -0.3134
   16MOL   O16314293   4.083   5.829   5.119  0.2039  0.9685 -0.2449
   16MOL   C16414294   4.226   5.602   5.097 -0.2352 -0.1210  0.2624
   16MOL   C16514295   4.324   5.504   5.117  0.5302  0.9386 -0.1934
   16MOL   H16614296   4.888   5.544   6.158 -0.0098  0.5131 -0.4138
   16MOL   H16714297   5.001   5.670   6.166 -1.2636 -0.9622  1.8527
   16MOL   H16814298   5.131   5.537   5.982 -0.0110 -1.7666 -0.6872
   16MOL   H16914299   4.988   5.628   5.932  2.6244  0.9115 -1.3908
   16MOL   H17014300   5.002   5.327   5.998 -1.2754  0.5719  1.0899
   16MOL   H17114301   4.857   5.417   5.961  0.7678 -0.3185  3.0494
   16MOL   H17214302   5.086   5.356   5.763 -1.5255 -3.1458  0.0227
   16MOL   H17314303   4.966   5.475   5.737  0.6960 -0.3312 -1.7951
   16MOL   H17414304   4.925   5.184   5.804  1.7508  0.3915  0.8068
   16MOL   H17514305   4.794   5.285   5.764  0.2540 -1.1653 -1.5115
   16MOL   H17614306   4.887   5.365   5.558 -2.5744 -0.1459  1.2190
   16MOL   H17714307   5.006   5.234   5.557  0.1206 -2.4802  1.2227
   16MOL   H17814308   4.849   5.051   5.563  0.2114  0.1259 -0.4627
   16MOL   H17914309   4.714   5.144   5.596  0.5906 -1.4675  0.0070
   16MOL   H18014310   4.887   5.171   5.351 -0.1062  1.6240  0.6029
   16MOL   H18114311   4.749   5.059   5.364  1.0819 -0.6797 -1.1922
   16MOL   H18214312   4.728   5.364   5.378  0.3864 -1.1500  3.4831
   16MOL   H18314313   4.591   5.266   5.407  0.4058 -1.0178  1.0374
   16MOL   H18414314   4.602   5.159   5.189  1.0841 -0.1547 -1.1091
   16MOL   H18514315   4.739   5.251   5.136  0.0965 -0.8288  0.0983
   16MOL   H18614316   4.497   5.571   4.823 -1.3417  0.2767 -1.6236
   16MOL   H18714317   4.348   5.752   4.820  1.2887 -2.1112 -1.2194
   16MOL   H18814318   4.151   5.602   5.176 -0.9509  1.0760 -0.4053
   16MOL   H18914319   4.309   5.431   5.195 -0.8461 -0.5910 -1.8395
   16MOL   O19014320   3.963   5.923   5.114  0.6414  0.0815  0.2919
   16MOL   C19114321   3.987   6.044   5.179 -0.0315  0.3471  0.1064
   16MOL   C19214322   3.863   6.130   5.181 -0.4615 -0.1891 -0.0800
   16MOL   C19314323   3.894   6.264   5.247 -0.1295  0.3934  0.9377
   16MOL   C19414324   3.804   6.379   5.203  0.6625 -0.1148  0.2924
   16MOL   C19514325   3.836   6.520   5.266  0.3696  0.2297 -0.4791
   16MOL   C19614326   3.973   6.581   5.238  0.4486 -0.0685  0.6384
   16MOL   C19714327   3.996   6.596   5.089  0.4896 -0.5046 -0.0652
   16MOL   C19814328   4.131   6.660   5.063  0.1183 -0.0049 -0.0400
   16MOL   C19914329   4.156   6.806   5.097 -0.0582  0.1611  0.2197
   16MOL   C20014330   4.299   6.867   5.054  0.4059  0.0388 -0.3399
   16MOL   O20114331   4.404   6.778   5.085 -0.5090  0.0316  0.7054
   16MOL   C20214332   4.473   6.793   5.198  0.1335 -0.5774 -0.6486
   16MOL   O20314333   4.456   6.888   5.275 -0.2755 -0.4728 -0.6081
   16MOL   C20414334   4.565   6.690   5.229  0.1245  0.4894  0.6200
   16MOL   C20514335   4.610   6.670   5.361 -0.5042  0.4487  0.1368
   16MOL   C20614336   4.720   6.587   5.392 -0.0698  1.2563 -0.3074
   16MOL   C20714337   4.776   6.511   5.291 -0.0749  0.5150  0.9666
   16MOL   C20814338   4.884   6.411   5.312 -0.3263 -0.1557  0.4112
   16MOL   O20914339   4.945   6.362   5.216 -0.0886 -0.0753  0.0598
   16MOL   O21014340   4.903   6.396   5.442  0.0549  0.2457  0.4879
   16MOL   C21114341   4.727   6.528   5.157 -0.2137  0.2104 -0.0681
   16MOL   C21214342   4.624   6.611   5.127 -1.1682 -0.4347  0.3126
   16MOL   H21314343   3.999   6.029   5.286 -2.0721 -0.4658  0.2435
   16MOL   H21414344   4.078   6.097   5.152  0.4470 -1.4641 -1.9550
   16MOL   H21514345   3.774   6.086   5.227 -1.2685 -0.0873 -1.4999
   16MOL   H21614346   3.838   6.149   5.077  0.8059 -0.2712 -0.4036
   16MOL   H21714347   3.882   6.247   5.354  0.8191 -1.8385  0.7107
   16MOL   H21814348   4.001   6.282   5.241 -0.3548  2.1206  1.8583
   16MOL   H21914349   3.702   6.346   5.222 -0.4127  1.2668 -2.7417
   16MOL   H22014350   3.820   6.392   5.096  1.0464  0.7898  0.4510
   16MOL   H22114351   3.754   6.588   5.244 -0.1876  0.5386  2.3206
   16MOL   H22214352   3.832   6.510   5.375 -2.0857 -0.9717 -0.6364
   16MOL   H22314353   3.967   6.677   5.289 -0.2404  0.7520 -0.9779
   16MOL   H22414354   4.044   6.519   5.292  1.9530 -0.3464 -1.6172
   16MOL   H22514355   3.998   6.498   5.042  2.0099 -1.3370  1.6559
   16MOL   H22614356   3.918   6.653   5.038 -0.4822 -0.1175  1.8058
   16MOL   H22714357   4.206   6.609   5.124 -0.8106 -0.2003  0.9411
   16MOL   H22814358   4.149   6.652   4.955  0.9877 -1.9810  0.2226
   16MOL   H22914359   4.155   6.825   5.204 -0.1100 -0.6798  0.3754
   16MOL   H23014360   4.086   6.868   5.041 -0.5552 -1.0171 -0.5057
   16MOL   H23114361   4.308   6.969   5.094 -0.3097 -0.2189  0.4899
   16MOL   H23214362   4.295   6.881   4.946  0.4980  1.3911 -0.1876
   16MOL   H23314363   4.568   6.732   5.439  2.3205  3.7787 -0.8568
   16MOL   H23414364   4.755   6.591   5.494 -0.5802  0.6431 -0.1046
   16MOL   H23514365   4.773   6.469   5.078  0.4982 -1.2461  1.4101
   16MOL   H23614366   4.595   6.622   5.024 -1.1994 -0.2719  0.3382
   16MOL   O23714367   5.018   6.306   5.475  0.2854 -0.2337 -0.2909
   16MOL   C23814368   5.066   6.352   5.602  0.3425  0.1526  0.1973
   16MOL   C23914369   5.168   6.259   5.661  0.2616  0.1273 -0.0659
   16MOL   C24014370   5.315   6.279   5.616  0.9494 -0.4403  0.3402
   16MOL   C24114371   5.415   6.183   5.683 -0.7647  0.9467  0.1526
   16MOL   C24214372   5.558   6.202   5.631 -0.2274 -0.3169 -0.5695
   16MOL   C24314373   5.674   6.134   5.722  0.2249  0.0937 -0.2297
   16MOL   C24414374   5.665   5.986   5.741 -0.4593  0.3955 -0.2407
   16MOL   C24514375   5.796   5.924   5.796 -0.0888  0.4710  0.9364
   16MOL   C24614376   5.775   5.805   5.886  0.2531  0.8395 -0.1759
   16MOL   C24714377   5.715   5.679   5.819  0.3633 -0.5300 -0.2023
   16MOL   O24814378   5.575   5.697   5.788  0.4385  0.6811  0.1439
   16MOL   C24914379   5.523   5.625   5.685 -0.0984  0.2036  0.0766
   16MOL   O25014380   5.592   5.550   5.615 -0.2769  0.2014  0.4298
   16MOL   C25114381   5.382   5.644   5.662 -0.0827  0.3189  0.6762
   16MOL   C25214382   5.317   5.576   5.559 -0.6472 -0.1991 -0.0572
   16MOL   C25314383   5.182   5.601   5.532 -0.0481  0.4692  0.4299
   16MOL   C25414384   5.111   5.699   5.603  0.4479 -0.0365 -0.2126
   16MOL   C25514385   4.969   5.720   5.567  0.9108 -0.1453 -0.1394
   16MOL   O25614386   4.920   5.664   5.470  0.1662  0.3357  0.5009
   16MOL   O25714387   4.906   5.816   5.634  0.4688  0.0914  0.2401
   16MOL   C25814388   5.178   5.766   5.706  0.3142 -0.3864  0.0836
   16MOL   C25914389   5.312   5.742   5.731 -0.0705 -0.4834  1.0570
   16MOL   H26014390   5.108   6.452   5.604 -1.1102  0.7784  0.1842
   16MOL   H26114391   4.971   6.354   5.655  1.2753 -0.9810  1.9755
   16MOL   H26214392   5.141   6.157   5.634  1.2204 -0.2698  0.4429
   16MOL   H26314393   5.148   6.267   5.768  2.8200 -0.6850  0.5018
   16MOL   H26414394   5.315   6.260   5.509  0.0563  0.9096  0.0791
   16MOL   H26514395   5.349   6.383   5.622  0.1861 -0.1730  0.1436
   16MOL   H26614396   5.376   6.083   5.670 -1.3568  1.2394 -0.3240
   16MOL   H26714397   5.428   6.201   5.790  0.5169  1.7970 -0.1273
   16MOL   H26814398   5.571   6.148   5.537 -2.3753 -0.3190 -0.8717
   16MOL   H26914399   5.570   6.307   5.607 -2.7073  0.6610  2.3000
   16MOL   H27014400   5.770   6.156   5.676  0.4644 -3.0044 -1.3108
   16MOL   H27114401   5.681   6.182   5.820  0.6848 -1.3862  0.4751
   16MOL   H27214402   5.585   5.960   5.810 -0.9011 -1.0471 -1.2745
   16MOL   H27314403   5.652   5.950   5.639  2.3372  0.0023 -0.5125
   16MOL   H27414404   5.855   5.892   5.710 -3.9646 -2.9756 -0.5598
   16MOL   H27514405   5.859   6.002   5.840  0.5028  0.2751  0.4466
   16MOL   H27614406   5.721   5.836   5.976  0.8158 -0.6223  0.6846
   16MOL   H27714407   5.872   5.778   5.928  0.9192  2.1519 -0.8469
   16MOL   H27814408   5.724   5.592   5.885 -0.2771 -2.6072 -2.7947
   16MOL   H27914409   5.775   5.661   5.731  1.2216 -1.2732  0.5228
   16MOL   H28014410   5.368   5.498   5.503  0.3707  1.7557 -1.9318
   16MOL   H28114411   5.142   5.544   5.449  0.8782  1.6804 -0.8656
   16MOL   H28214412   5.135   5.850   5.759  3.6186  0.7609  1.0809
   16MOL   H28314413   5.350   5.802   5.812 -0.0565  0.7773  0.1268
   16MOL   O28414414   4.758   5.837   5.603  0.0290  0.9020  0.4992
   16MOL   C28514415   4.753   5.961   5.526 -0.3264 -0.4705 -0.4676
   16MOL   C28614416   4.819   6.078   5.595 -0.1099  0.1982 -0.0644
   16MOL   C28714417   4.754   6.122   5.732  0.1694  0.1866 -0.9873
   16MOL   C28814418   4.808   6.043   5.859  1.0716  0.1198  0.2144
   16MOL   C28914419   4.954   6.086   5.893 -0.5323  0.3389  0.1374
   16MOL   C29014420   5.022   6.006   6.007  0.1540  0.4740  0.4667
   16MOL   C29114421   5.172   6.033   6.009  0.0247  0.1034  0.2303
   16MOL   C29214422   5.241   5.979   6.136  0.2782 -0.3448  0.0513
   16MOL   C29314423   5.392   5.994   6.121  0.1679  0.1141  0.5314
   16MOL   C29414424   5.466   5.964   6.252 -0.0387 -0.0875 -0.2755
   16MOL   O29514425   5.606   5.985   6.217 -0.0763  0.7412  0.8055
   16MOL   C29614426   5.696   5.952   6.314 -0.3789  0.2019  1.4191
   16MOL   O29714427   5.658   5.893   6.412  0.4251  0.1410 -0.5045
   16MOL   C29814428   5.838   5.984   6.283  0.2691 -0.0941  0.1585
   16MOL   C29914429   5.939   5.964   6.380  0.0253 -0.8160  0.0411
   16MOL   C30014430   6.069   6.004   6.352  0.5620 -0.5572 -0.1590
   16MOL   C30114431   6.102   6.073   6.234 -0.0412  0.3451 -0.1995
   16MOL   C30214432   6.242   6.118   6.206 -0.3608  0.0844 -0.6396
   16MOL   O30314433   6.326   6.130   6.291 -0.6299 -0.1209 -0.0755
   16MOL   O30414434   6.257   6.140   6.077 -0.0156 -0.0356  0.5299
   16MOL   C30514435   6.001   6.088   6.139  0.3574  1.0776  0.3404
   16MOL   C30614436   5.872   6.037   6.159 -0.3169  0.9592 -0.1202
   16MOL   H30714437   4.800   5.942   5.430 -0.6094  0.2529 -0.7556
   16MOL   H30814438   4.646   5.969   5.508 -0.2941 -0.1313 -0.5095
   16MOL   H30914439   4.804   6.154   5.519  1.5413 -0.8648 -1.5070
   16MOL   H31014440   4.928   6.076   5.608 -0.3056  0.5051  1.7743
   16MOL   H31114441   4.769   6.230   5.741  1.4716 -0.1541  1.4794
   16MOL   H31214442   4.646   6.110   5.729  0.1569 -0.1712  0.6719
   16MOL   H31314443   4.801   5.935   5.844  0.0653  0.5993 -3.1600
   16MOL   H31414444   4.738   6.075   5.937  0.8196 -0.5796  0.2796
   16MOL   H31514445   5.015   6.061   5.806 -2.4637 -0.3629 -1.0594
   16MOL   H31614446   4.965   6.194   5.901  1.8019  0.0629  1.1792
   16MOL   H31714447   4.979   6.030   6.104 -3.0763 -1.3590 -0.4099
   16MOL   H31814448   5.012   5.901   5.979  0.3701  1.0598 -1.9660
   16MOL   H31914449   5.210   5.981   5.921 -0.4980  0.2878 -0.1058
   16MOL   H32014450   5.197   6.138   5.994 -2.8238  0.5120 -2.0017
   16MOL   H32114451   5.201   6.038   6.219 -0.6669 -0.8385 -0.0480
   16MOL   H32214452   5.220   5.876   6.164  0.5866 -0.0640  1.3661
   16MOL   H32314453   5.407   6.100   6.101 -0.4097 -0.1023 -1.0506
   16MOL   H32414454   5.428   5.933   6.039  1.6754  2.3542 -0.5251
   16MOL   H32514455   5.446   5.859   6.272 -2.0278  0.4004  0.4614
   16MOL   H32614456   5.437   6.010   6.346  2.3189  0.8445  0.0269
   16MOL   H32714457   5.919   5.917   6.476  1.0236 -0.6707  0.3210
   16MOL   H32814458   6.151   5.986   6.420 -0.5478 -4.1782  0.3648
   16MOL   H32914459   6.020   6.137   6.044 -2.0553 -0.7138 -1.1148
   16MOL   H33014460   5.793   6.036   6.085 -2.3575 -0.3603  2.0016
   16MOL   O33114461   6.370   6.229   6.040  0.2596  0.3816 -0.1563
   16MOL   C33214462   6.324   6.348   5.980  0.0975  0.2179 -0.6829
   16MOL   C33314463   6.433   6.452   5.978 -0.2501  1.2740  0.4186
   16MOL   C33414464   6.451   6.516   6.117 -0.2080 -0.4097  0.4028
   16MOL   C33514465   6.545   6.638   6.131 -0.0768 -0.2533  1.1530
   16MOL   C33614466   6.553   6.701   6.267  0.1664 -0.2591 -1.0623
   16MOL   C33714467   6.430   6.783   6.297 -0.2263  0.3650  0.3656
   16MOL   C33814468   6.437   6.868   6.426  0.1242 -0.1579 -0.3991
   16MOL   C33914469   6.331   6.984   6.435  0.0934 -0.2437  0.5455
   16MOL   C34014470   6.190   6.929   6.457  0.1419 -0.1016  0.9399
   16MOL   C34114471   6.078   7.031   6.463  0.2004  0.3799 -0.5200
   16MOL   O34214472   6.095   7.118   6.562 -0.0217 -0.1021  0.0806
   16MOL   C34314473   6.035   7.232   6.571  0.1547 -0.0629 -0.5614
   16MOL   O34414474   5.963   7.283   6.486  0.3935 -0.1151 -0.5653
   16MOL   C34514475   6.054   7.297   6.703 -0.6365 -0.1246 -0.3138
   16MOL   C34614476   6.009   7.429   6.723 -0.4500 -0.5619 -0.4388
   16MOL   C34714477   6.030   7.496   6.844 -0.4796  0.2697 -1.6563
   16MOL   C34814478   6.081   7.421   6.953 -0.7242 -0.1030 -0.3754
   16MOL   C34914479   6.095   7.489   7.089 -0.3100  0.8360 -1.0866
   16MOL   O35014480   6.059   7.602   7.109 -0.0192 -0.2198 -0.0078
   16MOL   O35114481   6.157   7.409   7.180  0.3865 -0.9278  0.1775
   16MOL   C35214482   6.122   7.292   6.936 -0.3433  0.6345 -0.0426
   16MOL   C35314483   6.110   7.233   6.807 -0.2129 -0.4913 -0.0035
   16MOL   H35414484   6.280   6.315   5.886 -1.4581 -0.3387  0.2122
   16MOL   H35514485   6.232   6.385   6.026 -1.4956  0.6944 -4.0790
   16MOL   H35614486   6.416   6.526   5.900 -1.1364  0.3667 -0.2647
   16MOL   H35714487   6.523   6.402   5.941  0.4504  2.0691  1.0292
   16MOL   H35814488   6.350   6.553   6.134 -0.4489 -0.5658 -0.6332
   16MOL   H35914489   6.463   6.438   6.192  0.4586 -1.5259 -0.8255
   16MOL   H36014490   6.520   6.712   6.055 -0.9854 -1.2877  0.4371
   16MOL   H36114491   6.642   6.605   6.094 -0.4662  0.8239 -0.9383
   16MOL   H36214492   6.578   6.632   6.348  0.1372 -1.1804 -1.8369
   16MOL   H36314493   6.638   6.769   6.277  0.1334 -0.2149 -1.0888
   16MOL   H36414494   6.414   6.851   6.214 -0.6693  0.4375  0.5122
   16MOL   H36514495   6.347   6.713   6.304  0.4241 -0.3727  0.8198
   16MOL   H36614496   6.446   6.810   6.518  1.7036  2.6141  1.2706
   16MOL   H36714497   6.534   6.918   6.425 -0.2977  0.6616 -0.2174
   16MOL   H36814498   6.341   7.052   6.520 -3.2840  0.5733  0.3468
   16MOL   H36914499   6.337   7.054   6.352 -1.8535  0.0650  0.6311
   16MOL   H37014500   6.190   6.874   6.551  2.3121 -0.0254  1.0211
   16MOL   H37114501   6.174   6.847   6.387 -0.8190 -0.7498  1.9077
   16MOL   H37214502   5.974   6.999   6.478  0.0658  1.2985  0.5523
   16MOL   H37314503   6.089   7.092   6.374  2.7875  0.0451 -0.4450
   16MOL   H37414504   5.957   7.481   6.645 -0.6133 -1.6937 -1.0993
   16MOL   H37514505   6.005   7.597   6.870 -0.2035  0.1324 -0.8372
   16MOL   H37614506   6.164   7.242   7.022  0.8076  1.0506 -0.3608
   16MOL   H37714507   6.129   7.126   6.803 -1.7740 -0.7531 -0.4837
   16MOL   O37814508   6.186   7.478   7.310  0.2823 -0.2126 -0.3476
   16MOL   C37914509   6.080   7.448   7.402 -0.2831  0.3437 -0.3705
   16MOL   C38014510   6.136   7.429   7.550  0.2197  0.2732 -0.0151
   16MOL   C38114511   6.207   7.286   7.549  0.2304  0.1514 -0.4238
   16MOL   C38214512   6.284   7.244   7.673 -0.1269  0.5964  0.6977
   16MOL   C38314513   6.200   7.232   7.801 -0.0836 -0.2443  0.3582
   16MOL   C38414514   6.272   7.158   7.914 -0.1093  0.6262  0.3469
   16MOL   C38514515   6.201   7.163   0.072  0.3034  0.3256  0.5009
   16MOL   C38614516   6.164   7.306   0.113 -0.1140  0.2086  0.4694
   16MOL   C38714517   6.143   7.303   0.266 -0.1085 -0.6137 -0.1953
   16MOL   C38814518   6.104   7.436   0.323  0.6283 -0.7023 -0.7974
   16MOL   O38914519   5.981   7.487   0.272  0.5067  0.1412  0.0774
   16MOL   C39014520   5.944   7.611   0.309  0.1538 -0.0495  0.1978
   16MOL   O39114521   5.992   7.669   0.409 -0.2244  0.5262  0.7110
   16MOL   C39214522   5.835   7.678   0.229  0.6120 -0.2498  0.2946
   16MOL   C39314523   5.786   7.805   0.265 -0.2358 -0.5467 -0.0759
   16MOL   C39414524   5.685   7.872   0.184 -0.1530  0.1433 -0.5261
   16MOL   C39514525   5.637   7.801   0.070 -0.6796 -0.2185  0.1331
   16MOL   C39614526   5.556   7.872   7.950  0.3787  0.6758  0.1260
   16MOL   O39714527   5.534   0.013   7.967 -0.7296  0.3009  0.5714
   16MOL   O39814528   5.516   7.800   7.845 -0.0878 -0.0673  0.1832
   16MOL   C39914529   5.667   7.667   0.051  0.0153 -0.2344  0.4662
   16MOL   C40014530   5.772   7.611   0.127  0.3794  0.0073  0.3120
   16MOL   H40114531   6.007   7.527   7.387 -0.2672  0.3315 -0.5056
   16MOL   H40214532   6.029   7.359   7.365 -0.4372  0.4388 -0.3903
   16MOL   H40314533   6.051   7.419   7.618 -0.1648 -2.8520 -0.8733
   16MOL   H40414534   6.205   7.506   7.584 -1.4482  1.0984  1.5978
   16MOL   H40514535   6.138   7.206   7.523 -1.0118  0.8680  0.5888
   16MOL   H40614536   6.291   7.292   7.480  0.1293  1.8439 -0.4324
   16MOL   H40714537   6.363   7.318   7.686  0.7288  0.0102 -1.0485
   16MOL   H40814538   6.334   7.152   7.642 -1.5153  0.2318 -0.5213
   16MOL   H40914539   6.179   7.335   7.828  1.0680 -0.4360  2.0173
   16MOL   H41014540   6.106   7.179   7.786  0.5512 -0.7847 -2.0341
   16MOL   H41114541   6.272   7.055   7.879 -0.4083  0.3131  1.2535
   16MOL   H41214542   6.376   7.189   7.912  0.0066  0.2363  0.2835
   16MOL   H41314543   6.121   7.090   0.065 -0.7473  1.3738  1.3982
   16MOL   H41414544   6.270   7.126   0.148 -0.9157 -2.2039  0.4428
   16MOL   H41514545   6.241   7.378   0.086 -0.3567  0.5030  0.5630
   16MOL   H41614546   6.073   7.337   0.062  0.4162 -1.5756 -1.6481
   16MOL   H41714547   6.237   7.271   0.311 -0.0517 -1.2148 -0.7346
   16MOL   H41814548   6.078   7.219   0.291 -1.9318  0.2827 -1.7743
   16MOL   H41914549   6.177   7.516   0.316  1.0181 -0.8353  1.3912
   16MOL   H42014550   6.075   7.432   0.428  1.5581 -0.8451 -0.5435
   16MOL   H42114551   5.831   7.862   0.345  1.7163 -1.8749 -0.2023
   16MOL   H42214552   5.670   7.977   0.203 -0.7664 -0.0199 -0.1225
   16MOL   H42314553   5.639   7.619   7.937  2.4425 -2.2197  0.7050
   16MOL   H42414554   5.793   7.508   0.104 -1.9502  0.0287 -2.1929
   16MOL   O42514555   5.443   7.882   7.757  0.0341 -0.1848  0.1205
   16MOL   C42614556   5.319   7.821   7.733  0.4965 -0.4809 -0.7662
   16MOL   C42714557   5.326   7.711   7.625 -0.0316 -0.4963  0.8279
   16MOL   C42814558   5.196   7.631   7.619  0.0084  0.2603 -0.3829
   16MOL   C42914559   5.195   7.510   7.523  0.4031  0.3653 -0.4635
   16MOL   C43014560   5.058   7.426   7.522 -0.2690  0.5202  0.4271
   16MOL   C43114561   4.993   7.382   7.647 -0.1284 -0.1341  0.6000
   16MOL   C43214562   5.077   7.287   7.736  0.3056 -0.5120 -1.3614
   16MOL   C43314563   4.992   7.259   7.858  0.1595  0.0840  0.4494
   16MOL   C43414564   5.065   7.208   0.009 -0.1372 -0.7360  0.3128
   16MOL   C43514565   4.963   7.170   0.120  0.4114 -0.2100  0.3164
   16MOL   O43614566   4.912   7.283   0.173  0.3508  0.5911 -0.4726
   16MOL   C43714567   4.824   7.276   0.270 -0.1884 -0.1991  0.7676
   16MOL   O43814568   4.798   7.172   0.334 -0.1769 -0.0279  0.1383
   16MOL   C43914569   4.791   7.416   0.324 -0.4447  0.4658 -0.0794
   16MOL   C44014570   4.708   7.422   0.440  0.1840 -0.8243  0.3395
   16MOL   C44114571   4.672   7.545   0.495  0.5140  0.1153 -0.2162
   16MOL   C44214572   4.732   7.664   0.455  0.3504 -0.3605  0.1522
   16MOL   C44314573   4.716   7.800   0.522 -0.2853 -0.1565 -0.1848
   16MOL   O44414574   4.777   7.902   0.500  0.4125 -1.0289  0.2298
   16MOL   O44514575   4.613   7.801   0.611 -0.3398 -0.1907 -0.7277
   16MOL   C44614576   4.805   7.659   0.335 -0.7600 -0.3980  0.1506
   16MOL   C44714577   4.833   7.537   0.264  0.1663 -0.6566 -0.3106
   16MOL   H44814578   5.289   7.773   7.826  0.1612 -1.4633 -1.3673
   16MOL   H44914579   5.249   7.897   7.699  2.4049  2.9015  2.5370
   16MOL   H45014580   5.405   7.642   7.654  1.3788  1.2683  1.2512
   16MOL   H45114581   5.359   7.758   7.532  2.2769 -1.7174  0.9968
   16MOL   H45214582   5.186   7.595   7.721  1.9561 -1.6339 -0.8127
   16MOL   H45314583   5.116   7.701   7.594 -0.2087  0.6699  1.4185
   16MOL   H45414584   5.272   7.438   7.552 -0.9092  0.0514  2.3836
   16MOL   H45514585   5.225   7.545   7.424  1.7153  0.7498  0.0642
   16MOL   H45614586   4.992   7.491   7.465 -0.2318 -0.0129 -0.2315
   16MOL   H45714587   5.069   7.338   7.458 -1.5632 -1.1044  2.3843
   16MOL   H45814588   4.972   7.473   7.703  1.2674  0.3291  0.3905
   16MOL   H45914589   4.896   7.339   7.620 -0.7665 -0.1209  2.7601
   16MOL   H46014590   5.101   7.201   7.673  3.0787  0.4327 -1.6312
   16MOL   H46114591   5.166   7.341   7.766 -1.6865  1.1150  1.8593
   16MOL   H46214592   4.942   7.352   7.884  3.2201  1.3178  2.2068
   16MOL   H46314593   4.898   7.212   7.831 -0.8810  2.0099  0.6621
   16MOL   H46414594   5.132   7.285   0.047 -2.8846  3.1720 -2.2819
   16MOL   H46514595   5.131   7.125   7.960 -0.6137 -0.9135 -0.3274
   16MOL   H46614596   5.019   7.121   0.200  1.5781 -1.7550 -1.4090
   16MOL   H46714597   4.890   7.101   0.078  0.9449 -1.5334  1.5133
   16MOL   H46814598   4.680   7.329   0.488 -0.3178 -1.0478 -0.3797
   16MOL   H46914599   4.605   7.539   0.580  0.0552 -2.7375 -0.7269
   16MOL   H47014600   4.863   7.745   0.303 -2.4341  0.8469  0.3950
   16MOL   H47114601   4.903   7.534   0.182  0.2982 -0.3857 -0.2099
   16MOL   O47214602   4.568   7.941   0.657  0.4816  0.5774 -0.7595
   16MOL   C47314603   4.459   7.975   0.570 -0.2851  0.6798 -0.0360
   16MOL   C47414604   4.335   7.886   0.574  0.3925  0.6742  0.6705
   16MOL   C47514605   4.273   7.890   0.712 -0.0155 -0.2698  0.2277
   16MOL   C47614606   4.146   7.801   0.743 -0.6270  0.3759 -0.0821
   16MOL   C47714607   4.091   7.828   0.881 -0.5202  0.2510 -0.1290
   16MOL   C47814608   3.981   7.737   0.926 -0.1422 -0.5808  0.4716
   16MOL   C47914609   3.962   7.751   1.073  0.0291  0.2907  0.6453
   16MOL   C48014610   3.872   7.642   1.143  0.5910  0.1916 -0.3983
   16MOL   C48114611   3.888   7.650   1.295 -0.7801  0.2277 -0.4591
   16MOL   C48214612   3.998   7.556   1.351 -1.0438  0.6282 -0.4381
   16MOL   O48314613   3.954   7.424   1.348 -0.6121 -0.4915 -0.0489
   16MOL   C48414614   4.039   7.329   1.355  0.1604 -0.0361  0.6223
   16MOL   O48514615   4.162   7.342   1.375 -0.8353  0.8455 -0.1663
   16MOL   C48614616   3.978   7.199   1.313  0.0058 -0.4903 -0.1473
   16MOL   C48714617   3.850   7.197   1.250  0.2865 -0.1530 -0.3821
   16MOL   C48814618   3.796   7.068   1.227  0.5069  0.3656  0.2519
   16MOL   C48914619   3.867   6.951   1.259 -0.2529 -0.3319  1.1303
   16MOL   C49014620   3.800   6.823   1.217 -0.2244  1.1277 -0.0955
   16MOL   O49114621   3.860   6.723   1.181 -0.2234  0.6232  0.1445
   16MOL   O49214622   3.666   6.827   1.229 -0.1506 -0.2382 -0.0326
   16MOL   C49314623   3.995   6.951   1.311 -0.1203 -0.0620  1.0111
   16MOL   C49414624   4.043   7.079   1.346  0.4165  0.0436  0.8117
   16MOL   H49514625   4.433   0.098   0.600 -2.1177 -0.6018  2.8619
   16MOL   H49614626   4.501   0.008   0.470 -1.2338 -0.5491 -0.5903
   16MOL   H49714627   4.361   7.783   0.549 -1.4369  0.0733  1.1321
   16MOL   H49814628   4.261   7.922   0.503 -0.2035 -0.9253  0.4492
   16MOL   H49914629   4.347   7.872   0.789 -0.5338 -1.7513  0.3941
   16MOL   H50014630   4.242   0.016   0.718 -1.6085 -0.8079  1.9458
   16MOL   H50114631   4.173   7.696   0.746 -1.4958  0.1545  0.0830
   16MOL   H50214632   4.065   7.813   0.671 -0.4559  3.1143  0.1057
   16MOL   H50314633   4.177   7.834   0.949  1.2686 -2.2180 -2.0920
   16MOL   H50414634   4.055   7.931   0.876  1.7977  1.2588  2.0033
   16MOL   H50514635   3.892   7.759   0.868 -0.2241 -0.1417  0.7571
   16MOL   H50614636   4.018   7.635   0.917  1.0621  0.1002 -3.1182
   16MOL   H50714637   4.058   7.742   1.124  0.5516  1.1348 -0.1768
   16MOL   H50814638   3.937   7.853   1.103 -1.5972  0.2321 -0.4526
   16MOL   H50914639   3.768   7.655   1.116  0.4832 -1.5092 -0.8560
   16MOL   H51014640   3.895   7.541   1.108 -0.2157 -0.1452  0.0445
   16MOL   H51114641   3.787   7.624   1.327 -1.7037  0.6727 -2.9218
   16MOL   H51214642   3.903   7.754   1.325  0.1596 -0.2399  0.7113
   16MOL   H51314643   4.016   7.579   1.456 -1.1951 -2.2640  0.2565
   16MOL   H51414644   4.089   7.563   1.293 -0.0976 -0.3860  0.9031
   16MOL   H51514645   3.803   7.291   1.226  1.7416  0.2945 -1.5367
   16MOL   H51614646   3.694   7.051   1.195  0.9449 -1.0865 -0.4078
   16MOL   H51714647   4.035   6.854   1.334 -1.6750 -0.9976 -0.1678
   16MOL   H51814648   4.142   7.088   1.389  1.1646  3.0156 -1.3742
   16MOL   O51914649   3.602   6.690   1.258  0.6261  0.0740  0.4584
   16MOL   C52014650   3.567   6.692   1.394 -0.1781  0.5608 -0.2063
   16MOL   C52114651   3.540   6.550   1.440 -1.1122 -0.2976  0.4752
   16MOL   C52214652   3.665   6.459   1.450 -0.4475 -0.3085  0.5731
   16MOL   C52314653   3.691   6.378   1.320  0.0635 -0.3219 -1.0612
   16MOL   C52414654   3.809   6.284   1.310 -0.3001  0.7858 -0.0445
   16MOL   C52514655   3.942   6.353   1.295 -0.2589  0.2388 -1.0504
   16MOL   C52614656   4.051   6.247   1.282  0.0616 -0.5880 -0.2059
   16MOL   C52714657   4.193   6.292   1.286  0.2559  0.0899 -1.0180
   16MOL   C52814658   4.281   6.171   1.262 -0.4690  0.7304  0.6146
   16MOL   C52914659   4.424   6.199   1.281 -0.2689 -0.1771 -0.0787
   16MOL   O53014660   4.493   6.079   1.255 -0.0753 -0.2092  0.1072
   16MOL   C53114661   4.634   6.075   1.272 -0.4987 -0.2786 -0.2057
   16MOL   O53214662   4.701   6.175   1.306 -0.5917 -0.5599 -0.2726
   16MOL   C53314663   4.692   5.947   1.222 -0.2584 -0.1075  0.1735
   16MOL   C53414664   4.836   5.935   1.191 -0.1267  0.0858  0.5993
   16MOL   C53514665   4.894   5.808   1.161  0.4068 -0.5628  0.2006
   16MOL   C53614666   4.812   5.688   1.163 -0.8770  0.0098 -0.4086
   16MOL   C53714667   4.870   5.561   1.133  0.0242  0.1419  0.6463
   16MOL   O53814668   4.983   5.544   1.084  0.1640  0.3067 -0.6529
   16MOL   O53914669   4.780   5.469   1.154  0.3489 -0.1483  0.2849
   16MOL   C54014670   4.678   5.711   1.180  0.0984  0.5008  0.7195
   16MOL   C54114671   4.611   5.837   1.201 -0.1394  0.6679  0.6305
   16MOL   H54214672   3.652   6.725   1.454 -0.1980 -0.5096  0.4329
   16MOL   H54314673   3.476   6.750   1.414 -0.7857 -0.2116 -0.6764
   16MOL   H54414674   3.466   6.512   1.370  0.4674  0.8372 -1.8819
   16MOL   H54514675   3.506   6.553   1.543 -1.0471 -0.1647  0.4932
   16MOL   H54614676   3.753   6.514   1.482 -0.4305 -0.5867  1.0011
   16MOL   H54714677   3.661   6.377   1.521 -3.2135 -4.0038 -3.5287
   16MOL   H54814678   3.694   6.450   1.238 -2.4251  2.4725  1.1793
   16MOL   H54914679   3.605   6.316   1.294 -2.8945  2.9715  0.4559
   16MOL   H55014680   3.804   6.226   1.402 -1.7402 -0.7166 -1.0430
   16MOL   H55114681   3.807   6.215   1.225 -1.2907  0.8522 -0.0874
   16MOL   H55214682   3.937   6.415   1.206 -0.9888 -0.3728 -1.4353
   16MOL   H55314683   3.959   6.414   1.384  1.5435 -0.8525 -0.6106
   16MOL   H55414684   4.037   6.173   1.361 -0.3638 -1.3980 -1.0328
   16MOL   H55514685   4.030   6.194   1.189 -3.8197  1.4731 -0.6126
   16MOL   H55614686   4.206   6.369   1.210  0.5379  2.7410  1.6120
   16MOL   H55714687   4.213   6.344   1.379 -0.4846 -0.5579 -0.4949
   16MOL   H55814688   4.286   6.142   1.157  0.2505  3.4998 -0.1536
   16MOL   H55914689   4.248   6.084   1.317 -3.4416  0.9396 -0.7381
   16MOL   H56014690   4.436   6.234   1.384 -1.1170  2.4835 -0.8426
   16MOL   H56114691   4.450   6.279   1.212  3.9924  0.6699  2.3087
   16MOL   H56214692   4.909   6.012   1.211  2.7538 -2.5478  0.4536
   16MOL   H56314693   5.001   5.799   1.150  0.5047  1.1386 -0.2966
   16MOL   H56414694   4.606   5.631   1.174  0.5846  0.1380 -0.2830
   16MOL   H56514695   4.504   5.833   1.213 -0.0398 -2.4150  0.9820
   16MOL   O56614696   4.832   5.334   1.121 -0.5384  0.0237 -0.3587
   16MOL   C56714697   4.750   5.287   1.012 -0.8149 -0.1893 -0.3097
   16MOL   C56814698   4.779   5.146   0.981 -0.1986  0.3480  0.0526
   16MOL   C56914699   4.701   5.087   0.860  0.4548 -0.5094 -0.7713
   16MOL   C57014700   4.752   4.947   0.837 -0.0887  0.6962 -0.9215
   16MOL   C57114701   4.696   4.880   0.715 -0.4042 -0.0093  0.4566
   16MOL   C57214702   4.780   4.758   0.668 -0.0111 -0.0498 -0.3711
   16MOL   C57314703   4.724   4.680   0.546  0.1758  0.4790  0.2655
   16MOL   C57414704   4.826   4.613   0.454  0.0936  0.1180 -0.5796
   16MOL   C57514705   4.776   4.523   0.354 -0.2754  0.0748  0.2536
   16MOL   C57614706   4.890   4.429   0.302 -0.2695  0.7444  0.1961
   16MOL   O57714707   4.852   4.315   0.225  0.0530 -0.1199  0.3411
   16MOL   C57814708   4.926   4.280   0.111  0.1259 -0.1584 -0.2521
   16MOL   O57914709   5.018   4.347   0.064  0.1815  0.1902  0.0026
   16MOL   C58014710   4.868   4.149   0.046 -0.9975  0.0500  0.6652
   16MOL   C58114711   4.919   4.103   7.899 -0.3517  0.8814  0.3796
   16MOL   C58214712   4.861   3.988   7.836 -0.5387  0.2360  0.0956
   16MOL   C58314713   4.755   3.922   7.903 -0.6049  0.0701  0.5384
   16MOL   C58414714   4.693   3.801   7.838 -0.3078  0.7069  0.1016
   16MOL   O58514715   4.703   3.775   7.718 -0.5115 -0.7942  0.1622
   16MOL   O58614716   4.630   3.721   7.924  0.1589 -0.6855  0.0472
   16MOL   C58714717   4.707   3.967   0.052 -0.4923 -0.6821 -0.0011
   16MOL   C58814718   4.765   4.078   0.111  0.0099  0.0728 -0.2733
   16MOL   H58914719   4.647   5.310   1.041 -0.3586 -0.0226  1.2488
   16MOL   H59014720   4.784   5.346   0.927 -2.3881  0.7651 -0.3087
   16MOL   H59114721   4.752   5.098   1.075 -0.1182 -0.3776 -0.2870
   16MOL   H59214722   4.884   5.146   0.949 -1.0304  2.6500 -2.9179
   16MOL   H59314723   4.596   5.080   0.889  0.6717  1.2513  0.5136
   16MOL   H59414724   4.714   5.149   0.771 -3.5689  1.6277  0.0345
   16MOL   H59514725   4.742   4.885   0.927  1.2311  0.1959 -1.1086
   16MOL   H59614726   4.859   4.952   0.818  0.0814 -0.6364 -0.3739
   16MOL   H59714727   4.602   4.839   0.751 -1.7268  0.1586 -2.6558
   16MOL   H59814728   4.666   4.949   0.636 -3.1706 -2.1239 -0.4029
   16MOL   H59914729   4.881   4.791   0.646 -0.3179  0.1697 -1.5049
   16MOL   H60014730   4.800   4.688   0.749  0.3726 -0.2262 -0.6147
   16MOL   H60114731   4.646   4.612   0.580 -1.5549  2.1467 -0.2888
   16MOL   H60214732   4.667   4.751   0.486  1.3644  0.1672 -1.2791
   16MOL   H60314733   4.903   4.683   0.421  0.2291 -0.2818 -1.1089
   16MOL   H60414734   4.892   4.556   0.520 -0.3601  0.9360  0.5913
   16MOL   H60514735   4.748   4.586   0.269 -0.5086  0.7914  0.8579
   16MOL   H60614736   4.688   4.476   0.399  0.6543 -2.4027 -0.4345
   16MOL   H60714737   4.936   4.385   0.390  2.6104  1.2469 -0.9807
   16MOL   H60814738   4.961   4.495   0.252  0.9939 -0.9654 -0.3095
   16MOL   H60914739   5.005   4.154   7.859 -1.1365  0.6000 -1.6854
   16MOL   H61014740   4.901   3.953   7.742 -2.9194 -3.6899  0.4268
   16MOL   H61114741   4.619   3.924   0.099 -0.9733 -0.3154 -0.5524
   16MOL   H61214742   4.724   4.114   0.204  1.7616  0.5873  0.3157
   16MOL   O61314743   4.588   3.589   7.867  0.0652 -0.2441  0.4521
   16MOL   C61414744   4.448   3.592   7.820  0.2646 -0.2659  0.4295
   16MOL   C61514745   4.408   3.447   7.780 -0.5206 -0.1125  0.4218
   16MOL   C61614746   4.256   3.415   7.787 -0.5783  0.5011  0.0721
   16MOL   C61714747   4.230   3.267   7.783 -0.2823 -0.1120 -0.7807
   16MOL   C61814748   4.081   3.226   7.783 -0.5527 -0.2422 -0.2580
   16MOL   C61914749   3.992   3.283   7.895 -0.0483  0.2780 -0.0470
   16MOL   C62014750   3.846   3.229   7.899  0.4058 -0.0500 -0.0434
   16MOL   C62114751   3.770   3.258   7.769 -0.5188  0.0500  0.0994
   16MOL   C62214752   3.623   3.203   7.772 -0.1148 -0.1272 -0.0369
   16MOL   C62314753   3.569   3.219   7.629 -0.4789 -0.5915  0.2868
   16MOL   O62414754   3.442   3.158   7.621  0.0584  0.1146  0.6357
   16MOL   C62514755   3.379   3.155   7.510  0.0273  0.1425 -0.5758
   16MOL   O62614756   3.411   3.217   7.409 -0.4050  0.5663 -0.6587
   16MOL   C62714757   3.271   3.055   7.519 -0.6431 -0.5291 -0.1602
   16MOL   C62814758   3.240   2.986   7.636  0.1174 -0.1799  1.1363
   16MOL   C62914759   3.140   2.883   7.630 -0.5883 -0.4065 -0.3746
   16MOL   C63014760   3.066   2.850   7.519 -0.8615 -0.0910 -0.6548
   16MOL   C63114761   2.956   2.744   7.533 -0.7199  0.3366  0.2096
   16MOL   O63214762   2.935   2.678   7.630 -0.3228  0.5273 -0.2976
   16MOL   O63314763   2.884   2.732   7.428  0.1834  0.0503  0.0152
   16MOL   C63414764   3.100   2.928   7.404  0.4973  0.1487  0.2875
   16MOL   C63514765   3.200   3.024   7.397  0.0832 -0.2488  0.4755
   16MOL   H63614766   4.386   3.633   7.900  0.0552  0.0531  0.1087
   16MOL   H63714767   4.432   3.658   7.734 -0.8899 -0.9198  0.1318
   16MOL   H63814768   4.455   3.383   7.856  0.4492 -0.6611 -0.6222
   16MOL   H63914769   4.455   3.427   7.683 -1.9563 -1.8661  0.0567
   16MOL   H64014770   4.215   3.443   7.884 -1.7992 -0.0805 -0.2535
   16MOL   H64114771   4.195   3.470   7.715 -2.5171 -1.3348  0.2509
   16MOL   H64214772   4.283   3.214   7.862 -1.4736 -1.6675 -1.0038
   16MOL   H64314773   4.264   3.225   7.688 -1.4592  1.2456 -1.8173
   16MOL   H64414774   4.037   3.255   7.687  1.0679  1.4198 -0.5323
   16MOL   H64514775   4.083   3.118   7.773  1.1503 -0.0769 -2.0466
   16MOL   H64614776   4.029   3.255   0.016 -0.0544  0.6999  0.0739
   16MOL   H64714777   3.987   3.391   7.888  1.4574  0.2428 -1.9394
   16MOL   H64814778   3.852   3.121   7.909 -2.5293 -0.0749  1.9600
   16MOL   H64914779   3.806   3.268   0.015  2.9076 -0.2627  1.1733
   16MOL   H65014780   3.772   3.360   7.729 -0.3499 -1.4389 -4.0178
   16MOL   H65114781   3.824   3.207   7.689  0.6889  0.6238  0.5406
   16MOL   H65214782   3.565   3.262   7.843  0.5923  0.3738  0.1313
   16MOL   H65314783   3.615   3.100   7.807 -0.4687 -0.0341  0.1516
   16MOL   H65414784   3.637   3.174   7.557 -0.8279 -0.4249 -0.1497
   16MOL   H65514785   3.556   3.326   7.613 -1.2185 -0.5662  0.9925
   16MOL   H65614786   3.286   3.012   7.730 -0.5370 -0.6786  1.5997
   16MOL   H65714787   3.125   2.818   7.714 -0.3968 -0.8360 -0.6727
   16MOL   H65814788   3.050   2.889   7.316  0.2455  1.3023 -0.0795
   16MOL   H65914789   3.216   3.090   7.312 -0.6624 -0.9462 -0.2092
   16MOL   O66014790   2.794   2.609   7.427 -0.0960  0.4300 -0.1582
   16MOL   C66114791   2.870   2.511   7.354 -0.1989 -0.3220 -0.6757
   16MOL   C66214792   2.794   2.383   7.367  0.2176  0.5345  0.0176
   16MOL   C66314793   2.847   2.268   7.279 -0.5177  0.3763  0.5991
   16MOL   C66414794   2.774   2.134   7.312 -0.1955 -0.2882  0.0810
   16MOL   C66514795   2.789   2.023   7.208 -0.1317 -0.5090  0.4918
   16MOL   C66614796   2.764   1.879   7.264 -0.6821 -0.6052 -0.3216
   16MOL   C66714797   2.779   1.771   7.157  0.0726 -0.2015 -0.0599
   16MOL   C66814798   2.927   1.756   7.098  0.5272 -0.1546 -0.5880
   16MOL   C66914799   2.934   1.647   6.982 -0.3956 -0.2100 -0.7055
   16MOL   C67014800   3.082   1.613   6.949 -0.5555  0.2237  0.4952
   16MOL   O67114801   3.078   1.500   6.861 -0.2532 -0.0152  0.0151
   16MOL   C67214802   3.192   1.450   6.824  0.2836  0.4388  0.1332
   16MOL   O67314803   3.297   1.497   6.855  0.6718  0.4632  0.0894
   16MOL   C67414804   3.181   1.325   6.734  0.0769 -0.1522 -0.0220
   16MOL   C67514805   3.064   1.247   6.718  0.0709 -0.0221 -0.1769
   16MOL   C67614806   3.058   1.129   6.639 -0.1776 -0.2174  1.1572
   16MOL   C67714807   3.169   1.076   6.576 -0.0997  0.2494  0.5922
   16MOL   C67814808   3.177   0.951   6.495 -0.9358  0.8404  0.4872
   16MOL   O67914809   3.280   0.903   6.439  0.0583  0.3216 -0.3075
   16MOL   O68014810   3.050   0.897   6.460  0.1324 -0.4144 -0.0294
   16MOL   C68114811   3.292   1.151   6.596  0.1380 -0.2746  0.0127
   16MOL   C68214812   3.299   1.273   6.666 -0.0066  0.1203 -0.6182
   16MOL   H68314813   2.867   2.543   7.250 -0.0678 -0.8953 -0.8567
   16MOL   H68414814   2.976   2.501   7.378  0.5815  2.1613 -2.8761
   16MOL   H68514815   2.693   2.407   7.334 -0.9785  1.7144  4.2373
   16MOL   H68614816   2.770   2.342   7.465  0.1525  1.5282  0.4177
   16MOL   H68714817   2.846   2.292   7.173 -0.1141  2.1962  0.9813
   16MOL   H68814818   2.952   2.241   7.293 -0.8809 -0.5756  1.5332
   16MOL   H68914819   2.667   2.148   7.326 -0.0438  0.6477  0.3355
   16MOL   H69014820   2.814   2.096   7.406  1.0028 -0.8635 -0.6457
   16MOL   H69114821   2.722   2.048   7.126 -0.1400  1.0613  0.9606
   16MOL   H69214822   2.890   2.036   7.167 -0.9584 -3.2706 -2.6121
   16MOL   H69314823   2.835   1.868   7.346 -1.4522 -2.4209  0.1254
   16MOL   H69414824   2.663   1.869   7.304 -0.7800  0.6280 -0.2640
   16MOL   H69514825   2.748   1.676   7.201  0.6056 -0.0411  0.6567
   16MOL   H69614826   2.699   1.798   7.087  0.8922 -1.6136 -1.5581
   16MOL   H69714827   2.952   1.853   7.055 -1.8088 -0.5348 -2.9677
   16MOL   H69814828   3.003   1.721   7.168 -0.9426 -0.5178  0.8573
   16MOL   H69914829   2.893   1.680   6.886  1.1283  2.8544 -0.3739
   16MOL   H70014830   2.880   1.562   7.022 -0.9799 -0.1135 -1.2943
   16MOL   H70114831   3.114   1.571   7.045 -2.6031  1.1448  1.6036
   16MOL   H70214832   3.130   1.701   6.908 -0.8828  0.0967 -0.1601
   16MOL   H70314833   2.973   1.265   6.773 -0.2686 -1.1914 -0.3435
   16MOL   H70414834   2.967   1.072   6.651 -1.0451  1.4217  2.5888
   16MOL   H70514835   3.385   1.116   6.552  0.3290 -0.7977  0.8137
   16MOL   H70614836   3.397   1.319   6.674 -0.2150  0.1958  2.2788
   16MOL   O70714837   3.048   0.798   6.348 -0.3629 -0.0117  0.0417
   16MOL   C70814838   2.998   0.865   6.234 -0.5676  0.6675 -0.3246
   16MOL   C70914839   3.109   0.931   6.151  0.5821 -0.0350  0.2762
   16MOL   C71014840   3.200   0.840   6.068 -0.5167  0.0114  0.4140
   16MOL   C71114841   3.280   0.923   5.969 -0.3363  0.2506  0.2637
   16MOL   C71214842   3.205   0.933   5.827  0.6433  0.1777  0.5755
   16MOL   C71314843   3.297   0.959   5.705 -0.6137  0.2119 -0.3621
   16MOL   C71414844   3.209   0.991   5.577 -0.2129  0.3811 -0.2430
   16MOL   C71514845   3.289   0.974   5.447 -0.1971  0.2846 -0.3283
   16MOL   C71614846   3.404   1.070   5.413 -0.1933 -0.1543 -0.1122
   16MOL   C71714847   3.409   1.083   5.262 -0.0234  0.4173 -0.0165
   16MOL   O71814848   3.525   1.158   5.222  0.7234 -0.0014 -0.3527
   16MOL   C71914849   3.523   1.257   5.129 -0.6773  0.2756 -0.9862
   16MOL   O72014850   3.421   1.305   5.088 -0.7481  0.3608 -0.3192
   16MOL   C72114851   3.662   1.290   5.088 -0.9173  0.5281 -0.9496
   16MOL   C72214852   3.774   1.212   5.126 -0.1091  0.2816 -0.3131
   16MOL   C72314853   3.908   1.255   5.102 -0.1899 -0.3822 -0.2532
   16MOL   C72414854   3.929   1.376   5.030 -0.3726 -0.6354  0.0606
   16MOL   C72514855   4.067   1.427   5.015  0.3933 -0.5815 -0.1016
   16MOL   O72614856   4.104   1.506   4.932  0.1478 -0.5939 -0.2765
   16MOL   O72714857   4.159   1.353   5.095  0.1479 -0.2925  0.0490
   16MOL   C72814858   3.822   1.453   4.979 -0.6497  0.4791 -0.8351
   16MOL   C72914859   3.690   1.408   5.019 -0.1892  0.3397  0.1847
   16MOL   H73014860   2.927   0.810   6.172 -1.0678  2.0232 -0.9801
   16MOL   H73114861   2.934   0.951   6.254 -1.6916  0.0244 -1.0647
   16MOL   H73214862   3.175   0.991   6.214  1.8157 -1.0233 -0.0553
   16MOL   H73314863   3.057   0.998   6.083 -0.6715  1.3323  2.5248
   16MOL   H73414864   3.270   0.791   6.136  0.4408 -0.7894 -1.1207
   16MOL   H73514865   3.154   0.754   6.019  1.6412  0.9284 -3.3942
   16MOL   H73614866   3.372   0.870   5.945 -0.2916  0.0526  0.8658
   16MOL   H73714867   3.335   1.010   6.004  0.7586  0.6888 -2.4695
   16MOL   H73814868   3.146   0.842   5.818  2.5318 -1.1408  1.2411
   16MOL   H73914869   3.122   1.003   5.828  0.2751 -0.0844 -3.5065
   16MOL   H74014870   3.363   1.045   5.708  0.4347 -0.6270  0.6723
   16MOL   H74114871   3.362   0.874   5.689  0.6045  0.6308  2.2252
   16MOL   H74214872   3.128   0.917   5.569 -0.3726  0.3294  1.6317
   16MOL   H74314873   3.161   1.089   5.579 -0.8698  0.0477  0.9502
   16MOL   H74414874   3.334   0.875   5.448 -0.3836  0.1691 -2.0420
   16MOL   H74514875   3.236   0.962   5.352 -0.2996 -0.8730 -0.1397
   16MOL   H74614876   3.503   1.046   5.450 -0.0482 -0.1411 -0.4945
   16MOL   H74714877   3.376   1.166   5.457  0.4521 -0.0016 -0.0360
   16MOL   H74814878   3.318   1.128   5.223 -0.4119 -0.4290 -0.0974
   16MOL   H74914879   3.416   0.979   5.230 -1.8545  0.6350 -1.2020
   16MOL   H75014880   3.755   1.121   5.182 -1.4022 -0.2325 -1.5786
   16MOL   H75114881   3.996   1.205   5.139  0.1572  1.3039  1.3156
   16MOL   H75214882   3.823   1.554   4.940  1.1555  1.8532  2.5952
   16MOL   H75314883   3.607   1.467   4.984  0.9272  1.8324 -0.0133
   16MOL   O75414884   4.309   1.361   5.053  0.1548  0.1110 -0.2123
   16MOL   C75514885   4.379   1.439   5.143 -0.1319  0.5499  0.2577
   16MOL   C75614886   4.436   1.350   5.258 -0.0602 -0.3566 -0.0092
   16MOL   C75714887   4.541   1.418   5.344  0.6885 -1.0173 -0.5162
   16MOL   C75814888   4.621   1.321   5.436  1.4321  0.0371  0.1279
   16MOL   C75914889   4.753   1.285   5.368  0.1884 -0.1994  0.2018
   16MOL   C76014890   4.852   1.214   5.475 -0.1135 -0.3622  0.5270
   16MOL   C76114891   4.976   1.174   5.401  0.3378  0.4817 -0.1833
   16MOL   C76214892   5.064   1.107   5.513 -0.6345 -0.6361 -0.0025
   16MOL   C76314893   5.182   1.021   5.467 -0.1990 -0.0998 -0.4506
   16MOL   C76414894   5.258   0.958   5.589 -0.1364  0.4670 -0.6661
   16MOL   O76514895   5.342   1.041   5.660 -0.1236 -0.0960 -0.6133
   16MOL   C76614896   5.294   1.116   5.769  0.2370  0.3641  0.4903
   16MOL   O76714897   5.181   1.112   5.809  0.3154 -0.5639  0.5970
   16MOL   C76814898   5.399   1.213   5.826 -0.4679 -0.1932 -0.5352
   16MOL   C76914899   5.529   1.211   5.773 -0.5520 -0.6297  0.8103
   16MOL   C77014900   5.619   1.313   5.807  0.3115  0.0072 -0.0347
   16MOL   C77114901   5.585   1.418   5.900  0.4579  0.2810 -0.7024
   16MOL   C77214902   5.670   1.532   5.929 -0.3596  0.5853  0.4091
   16MOL   O77314903   5.642   1.619   6.011 -0.5471 -0.4114 -0.3135
   16MOL   O77414904   5.779   1.538   5.849  0.9862  0.2716 -0.4869
   16MOL   C77514905   5.454   1.408   5.960 -1.0709 -0.5982 -0.5461
   16MOL   C77614906   5.357   1.313   5.917  0.0180  0.1531  0.5780
   16MOL   H77714907   4.461   1.471   5.080  0.0519  1.9722  1.2101
   16MOL   H77814908   4.327   1.527   5.181 -2.8079 -1.4758  1.5342
   16MOL   H77914909   4.475   1.259   5.211 -0.4977  0.2897 -1.6489
   16MOL   H78014910   4.355   1.311   5.320 -0.3073  1.6028  0.9180
   16MOL   H78114911   4.614   1.479   5.290  2.1975 -1.0121  1.4987
   16MOL   H78214912   4.494   1.498   5.400  1.1267 -0.8273 -0.4218
   16MOL   H78314913   4.561   1.236   5.466  0.7375  0.9410  1.3531
   16MOL   H78414914   4.647   1.364   5.532  2.5233 -0.4913  0.0777
   16MOL   H78514915   4.743   1.215   5.286 -0.8019  1.8871 -1.5011
   16MOL   H78614916   4.795   1.376   5.326 -0.9250 -0.2705 -1.0747
   16MOL   H78714917   4.881   1.273   5.561 -1.7334  2.0331 -0.5183
   16MOL   H78814918   4.803   1.134   5.529  0.7723 -1.5588 -0.4068
   16MOL   H78914919   4.969   1.108   5.315  3.2209 -1.1571  0.7675
   16MOL   H79014920   5.026   1.264   5.367  2.3670 -0.5807 -0.1055
   16MOL   H79114921   5.100   1.191   5.573 -1.3945 -0.3164  0.0065
   16MOL   H79214922   5.015   1.045   5.589 -3.6314  2.1821  0.4667
   16MOL   H79314923   5.240   1.079   5.397 -1.3228  1.8389  0.1903
   16MOL   H79414924   5.134   0.951   5.399  1.1626 -1.3939 -0.1112
   16MOL   H79514925   5.319   0.874   5.556 -0.1904  0.5824 -1.0606
   16MOL   H79614926   5.183   0.906   5.650  0.6939  0.0233 -0.0186
   16MOL   H79714927   5.557   1.132   5.706  0.8149  2.4680 -2.4270
   16MOL   H79814928   5.721   1.304   5.771  0.3737  0.8235 -0.0769
   16MOL   H79914929   5.421   1.481   6.032 -0.6194  0.6546 -1.6037
   16MOL   H80014930   5.259   1.312   5.960 -1.5676 -1.3227 -2.8648
   16MOL   O80114931   5.860   1.667   5.866 -0.3039  0.2517 -0.4175
   16MOL   C80214932   5.843   1.743   5.747  0.2697 -0.0786  0.5398
   16MOL   C80314933   5.962   1.845   5.723  0.3874 -0.1980  0.0068
   16MOL   C80414934   5.957   1.926   5.592  0.1300 -0.3089  0.4443
   16MOL   C80514935   6.088   1.997   5.558 -0.1489 -0.6450 -0.9646
   16MOL   C80614936   6.059   2.091   5.443  0.1971 -0.1355 -0.0794
   16MOL   C80714937   6.038   2.243   5.490 -0.0251 -0.3882 -0.1946
   16MOL   C80814938   6.028   2.315   5.358 -0.7307 -0.3788 -0.1888
   16MOL   C80914939   5.978   2.464   5.384 -0.3011  0.3477 -0.6626
   16MOL   C81014940   5.982   2.546   5.252 -0.7917  0.2419  0.3030
   16MOL   C81114941   5.900   2.680   5.257  0.7665 -0.0553 -0.2489
   16MOL   O81214942   5.929   2.770   5.366  0.4237  0.3031  0.9274
   16MOL   C81314943   5.865   2.762   5.478  0.0491  0.5380 -0.4335
   16MOL   O81414944   5.782   2.672   5.505  0.1050  0.0687  0.8170
   16MOL   C81514945   5.924   2.840   5.584 -0.7065  0.0379  0.0419
   16MOL   C81614946   5.875   2.824   5.714  0.1966 -0.4360 -0.3808
   16MOL   C81714947   5.931   2.905   5.812  0.5634  1.1196  0.6211
   16MOL   C81814948   6.039   2.994   5.787  0.4867  0.2132  0.2995
   16MOL   C81914949   6.096   3.068   5.897 -0.0938 -0.1138 -0.2513
   16MOL   O82014950   6.045   3.073   6.007 -0.3378 -0.1665 -0.3458
   16MOL   O82114951   6.216   3.114   5.864 -0.0777 -0.2056  0.2283
   16MOL   C82214952   6.102   2.990   5.661 -0.3824 -0.4042  0.6011
   16MOL   C82314953   6.043   2.916   5.556 -0.8179  1.1528 -0.3016
   16MOL   H82414954   5.829   1.672   5.666 -0.0826 -2.1434  2.3359
   16MOL   H82514955   5.750   1.800   5.757 -0.3369 -0.5579 -2.0743
   16MOL   H82614956   6.047   1.778   5.716 -0.6045 -1.3885 -1.0421
   16MOL   H82714957   5.977   1.908   5.810 -2.3616  1.1136 -0.3875
   16MOL   H82814958   5.928   1.868   5.504 -0.4175 -0.6581  0.8467
   16MOL   H82914959   5.872   1.994   5.598 -0.8469 -1.3114 -1.4073
   16MOL   H83014960   6.157   1.919   5.526  1.4228  0.1165  0.5177
   16MOL   H83114961   6.141   2.055   5.633  0.9342 -0.9939 -1.4423
   16MOL   H83214962   6.140   2.098   5.369 -0.8324 -2.2267 -1.4557
   16MOL   H83314963   5.982   2.051   5.378  0.0055  0.1317 -0.0197
   16MOL   H83414964   5.955   2.258   5.560  0.9658  2.3610  0.4364
   16MOL   H83514965   6.125   2.283   5.541  0.2905  0.4446 -1.3646
   16MOL   H83614966   6.131   2.323   5.321 -0.8592 -0.8676 -0.6589
   16MOL   H83714967   5.954   2.276   5.288 -0.6199  1.1175 -1.1642
   16MOL   H83814968   5.876   2.463   5.421  0.2840 -0.3627  1.0063
   16MOL   H83914969   6.052   2.501   5.455 -0.3056 -0.0286 -0.4583
   16MOL   H84014970   5.950   2.476   5.175  3.7006 -1.0611 -0.5349
   16MOL   H84114971   6.084   2.569   5.223 -0.6719  0.1681  0.6569
   16MOL   H84214972   5.794   2.663   5.242  0.4583 -0.7536  2.6282
   16MOL   H84314973   5.917   2.740   5.167  0.7621 -0.9067 -0.8303
   16MOL   H84414974   5.786   2.765   5.731  0.5913 -0.9179  0.0278
   16MOL   H84514975   5.892   2.909   5.913  0.2706  0.9703  0.5137
   16MOL   H84614976   6.189   3.049   5.634 -1.6985  0.5148 -1.7453
   16MOL   H84714977   6.088   2.920   5.457 -0.1738  1.8198  0.0104
   16MOL   O84814978   6.298   3.164   5.982 -0.4198 -0.2679 -0.3339
   16MOL   C84914979   6.313   3.301   5.967 -0.3434 -0.6119 -0.2427
   16MOL   C85014980   6.375   3.354   6.094 -0.3522  0.4818  0.2876
   16MOL   C85114981   6.381   3.504   6.089 -0.5568 -0.0580 -0.5756
   16MOL   C85214982   6.466   3.570   6.201 -0.4229  0.4106 -0.0589
   16MOL   C85314983   6.498   3.718   6.175  0.6707 -0.3265 -0.3247
   16MOL   C85414984   6.539   3.784   6.301 -0.1637  0.3190 -0.2861
   16MOL   C85514985   6.588   3.929   6.269  0.3403  0.3764  0.1788
   16MOL   C85614986   6.636   3.999   6.390  0.6870 -0.7646  0.0954
   16MOL   C85714987   6.520   4.032   6.481 -0.4291 -0.3725  0.4866
   16MOL   C85814988   6.547   4.143   6.582 -0.2381 -0.0945 -0.6861
   16MOL   O85914989   6.542   4.265   6.512 -0.4411  0.9624  0.3578
   16MOL   C86014990   6.568   4.376   6.580  0.3433 -0.4601 -0.3104
   16MOL   O86114991   6.593   4.371   6.704  0.4789 -0.5332  0.1380
   16MOL   C86214992   6.537   4.498   6.503 -0.3261  0.2798  0.1463
   16MOL   C86314993   6.471   4.483   6.376 -0.0959 -0.2599  1.4541
   16MOL   C86414994   6.450   4.598   6.293 -0.6055 -0.1520 -0.0513
   16MOL   C86514995   6.493   4.726   6.330 -0.3303 -0.0816 -0.3221
   16MOL   C86614996   6.469   4.850   6.257 -0.6197  0.1679  0.5137
   16MOL   O86714997   6.480   4.960   6.298  0.0903  0.5786 -0.2434
   16MOL   O86814998   6.450   4.826   6.122  0.2806  0.2331  0.2873
   16MOL   C86914999   6.553   4.737   6.461  0.7797 -0.0025  1.1555
   16MOL   C87015000   6.577   4.627   6.542  0.1103  0.1797 -0.1978
   16MOL   H87115001   6.386   3.301   5.886 -0.1552 -3.6035 -0.1331
   16MOL   H87215002   6.222   3.355   5.940 -0.6069 -0.8538  0.1570
   16MOL   H87315003   6.475   3.317   6.117  0.1799  1.4839 -0.3735
   16MOL   H87415004   6.322   3.318   6.182 -0.7251  0.6931  0.1521
   16MOL   H87515005   6.428   3.521   5.992 -0.2137  2.3466 -0.0034
   16MOL   H87615006   6.291   3.562   6.071 -0.5870 -0.0018 -0.2327
   16MOL   H87715007   6.538   3.499   6.244 -0.4763  0.7099  0.5218
   16MOL   H87815008   6.394   3.573   6.282 -1.2260 -1.4231 -0.6654
   16MOL   H87915009   6.580   3.718   6.103 -1.7109 -1.0280 -3.1022
   16MOL   H88015010   6.414   3.775   6.136 -1.1137 -1.9034  1.0617
   16MOL   H88115011   6.461   3.782   6.378 -0.3902 -2.1426 -0.5254
   16MOL   H88215012   6.619   3.728   6.351 -0.0448  0.2842 -0.5171
   16MOL   H88315013   6.669   3.925   6.195  1.5054  0.8883  1.4015
   16MOL   H88415014   6.499   3.970   6.222 -0.2987 -2.8032 -1.5191
   16MOL   H88515015   6.710   3.932   6.435  0.6709 -0.4010  0.6665
   16MOL   H88615016   6.673   4.094   6.350 -0.0977 -0.0433  1.0748
   16MOL   H88715017   6.491   3.946   6.542 -4.3995 -0.0949 -0.8652
   16MOL   H88815018   6.434   4.060   6.421 -0.2227  0.6432  0.6512
   16MOL   H88915019   6.643   4.122   6.627 -0.2140 -0.7398 -1.0388
   16MOL   H89015020   6.477   4.133   6.665 -2.1567 -1.0151 -2.3635
   16MOL   H89115021   6.441   4.387   6.336 -1.1100  0.7468 -0.2267
   16MOL   H89215022   6.388   4.578   6.207 -0.5268  0.8165 -0.3390
   16MOL   H89315023   6.576   4.836   6.498  0.1101 -0.4192  2.7121
   16MOL   H89415024   6.616   4.650   6.640  0.8733 -0.3532 -0.3747
   16MOL   O89515025   6.459   4.958   6.045 -0.0424 -0.0954 -0.2173
   16MOL   C89615026   6.583   4.964   5.986  0.9110 -0.4715 -0.1195
   16MOL   C89715027   6.595   4.866   5.869 -0.2132  0.0682  0.2016
   16MOL   C89815028   6.534   4.926   5.736 -0.3523  0.2897  0.0385
   16MOL   C89915029   6.535   4.839   5.611 -0.0831 -0.0415  0.0071
   16MOL   C90015030   6.667   4.781   5.568 -0.6717  0.2747 -0.5774
   16MOL   C90115031   6.763   4.879   5.499 -0.3856 -1.0899 -0.5018
   16MOL   C90215032   6.908   4.829   5.476 -0.8319 -0.3599 -0.0942
   16MOL   C90315033   6.923   4.722   5.367  0.1501 -0.8671 -0.2425
   16MOL   C90415034   6.911   4.776   5.222  0.1242 -0.2698  0.1932
   16MOL   C90515035   6.877   4.654   5.124 -0.1593 -0.1342 -0.3705
   16MOL   O90615036   6.966   4.547   5.144 -0.4135  0.0872 -0.4795
   16MOL   C90715037   6.958   4.441   5.057  0.1013 -0.1165 -0.1543
   16MOL   O90815038   6.866   4.430   4.977  0.2733  0.4472 -0.1830
   16MOL   C90915039   7.074   4.351   5.082  0.0643 -0.0732  0.2797
   16MOL   C91015040   7.154   4.349   5.201  0.0169 -0.2073  0.2811
   16MOL   C91115041   7.261   4.263   5.225  0.0432 -0.8019  0.6062
   16MOL   C91215042   7.301   4.170   5.129 -0.2291  0.2547 -0.2466
   16MOL   C91315043   7.424   4.088   5.145 -0.3756 -0.0739 -0.8333
   16MOL   O91415044   7.500   4.099   5.242 -0.4677 -0.3745 -0.3204
   16MOL   O91515045   7.451   4.003   5.042 -0.3786  0.8084  0.1571
   16MOL   C91615046   7.224   4.164   5.010 -0.5324 -0.0047  0.6798
   16MOL   C91715047   7.114   4.248   4.988 -0.0644 -0.1627 -0.1370
   16MOL   H91815048   6.619   5.066   5.973 -1.1741  0.2567 -0.3604
   16MOL   H91915049   6.653   4.933   6.064  0.0891 -1.8097  0.1041
   16MOL   H92015050   6.538   4.776   5.891  1.1835 -0.9515 -0.2673
   16MOL   H92115051   6.697   4.842   5.839 -0.2380  2.8516 -2.3907
   16MOL   H92215052   6.432   4.948   5.764 -0.4770  0.0680 -0.2359
   16MOL   H92315053   6.588   5.019   5.715  1.9660 -0.7907  1.0008
   16MOL   H92415054   6.487   4.898   5.533  2.2779  0.4239 -1.1378
   16MOL   H92515055   6.472   4.755   5.638 -0.9385 -0.4134 -2.9404
   16MOL   H92615056   6.722   4.736   5.651 -0.8464 -1.1151 -1.1966
   16MOL   H92715057   6.656   4.699   5.496 -0.5616  0.0542 -0.3446
   16MOL   H92815058   6.718   4.904   5.403 -0.8228 -0.1263 -0.0540
   16MOL   H92915059   6.767   4.975   5.549 -1.2117 -1.2769 -0.0569
   16MOL   H93015060   6.967   4.913   5.442  0.6487 -0.1542  2.8330
   16MOL   H93115061   6.955   4.789   5.566  0.0432  1.9704  0.5213
   16MOL   H93215062   7.025   4.685   5.381  1.4875  2.5269 -0.4056
   16MOL   H93315063   6.855   4.640   5.386  0.6349 -1.1298  0.3657
   16MOL   H93415064   7.010   4.818   5.202  1.3800 -1.6712  3.0659
   16MOL   H93515065   6.834   4.852   5.214  0.1724 -0.1836  0.5457
   16MOL   H93615066   6.882   4.691   5.022 -1.7473  2.5560  0.4892
   16MOL   H93715067   6.782   4.605   5.145 -0.4862  0.0451 -1.3981
   16MOL   H93815068   7.129   4.419   5.279 -4.3326 -0.2170 -0.9732
   16MOL   H93915069   7.327   4.282   5.308 -1.7451  0.6722  1.7416
   16MOL   H94015070   7.257   4.094   4.935 -3.0545  0.0084 -0.4674
   16MOL   H94115071   7.059   4.245   4.895 -3.4649 -0.6798  1.8074
   16MOL   H94215072   7.511   3.933   5.060 -1.2496 -0.1312 -0.5751
   17MOL     O115073   7.379   5.892   2.785 -0.3179 -0.1645  0.3656
   17MOL     C215074   7.489   5.946   2.717  0.0620  0.2267 -0.2594
   17MOL     C315075   7.550   5.849   2.614  0.5410 -0.8421  0.1165
   17MOL     C415076   7.646   5.933   2.522  0.3296 -0.4697 -0.3197
   17MOL     C515077   7.729   5.847   2.426 -0.2873  0.3540  0.1707
   17MOL     C615078   7.807   5.939   2.329  0.5714 -0.2969 -0.0952
   17MOL     C715079   7.914   5.872   2.241 -0.9292 -0.1223 -0.2905
   17MOL     C815080   7.977   5.967   2.150 -0.2067  0.2862  0.8949
   17MOL     C915081   0.055   5.914   2.014 -0.7502  0.3983 -0.3034
   17MOL    C1015082   0.192   5.980   1.978 -0.1876  0.5442 -0.1133
   17MOL    C1115083   0.258   5.905   1.870 -0.7122 -0.8795  0.2094
   17MOL    O1215084   0.393   5.925   1.887  0.0419  0.3726  0.9310
   17MOL    C1315085   0.475   5.881   1.783  0.2898 -0.1098  0.0900
   17MOL    O1415086   0.428   5.816   1.688 -0.0864 -0.5569 -0.1882
   17MOL    C1515087   0.617   5.920   1.787 -0.0752 -0.0695  0.5175
   17MOL    C1615088   0.679   5.971   1.899  0.5181  0.0770  0.2571
   17MOL    C1715089   0.819   5.992   1.900 -0.0359 -0.0891 -0.1685
   17MOL    C1815090   0.903   5.955   1.791 -0.1242  0.2756  0.5233
   17MOL    C1915091   1.053   5.964   1.793 -0.1488  0.2414 -0.1423
   17MOL    O2015092   1.130   5.932   1.704 -0.3350 -0.3515  0.1002
   17MOL    O2115093   1.098   6.011   1.905 -0.1895  0.2409 -0.9239
   17MOL    C2215094   0.840   5.913   1.670  0.5429  0.4670 -0.1325
   17MOL    C2315095   0.697   5.893   1.668 -0.0400 -0.4043 -0.2052
   17MOL    H2415096   7.458   6.036   2.664 -2.2007 -0.3028  0.1213
   17MOL    H2515097   7.565   5.972   2.790  0.8242 -3.3528  0.3109
   17MOL    H2615098   7.480   5.795   2.550 -1.6758  0.4611  1.3828
   17MOL    H2715099   7.604   5.776   2.674  0.6048  1.8136  3.4492
   17MOL    H2815100   7.587   5.995   2.455  2.3852  2.1757  0.2274
   17MOL    H2915101   7.710   5.998   2.581 -0.4818 -0.1666  0.2391
   17MOL    H3015102   7.667   5.773   2.377  1.1709 -0.4570 -0.4619
   17MOL    H3115103   7.804   5.799   2.489 -0.7433  0.7275  1.0136
   17MOL    H3215104   7.736   5.996   2.269  0.7928  0.7754  0.6506
   17MOL    H3315105   7.858   6.007   2.397 -0.7017 -1.0131  1.6152
   17MOL    H3415106   0.021   5.830   2.295  0.1733  1.1717 -0.9682
   17MOL    H3515107   7.871   5.791   2.183 -2.2307  0.3582 -0.0139
   17MOL    H3615108   7.908   6.048   2.126 -1.5324 -0.6924  1.3389
   17MOL    H3715109   0.081   6.022   2.196 -0.0467 -0.8714  1.9924
   17MOL    H3815110   0.081   5.809   2.027 -2.0174  0.1956  0.6911
   17MOL    H3915111   7.959   5.926   1.934  0.8634 -1.9487 -2.2188
   17MOL    H4015112   0.253   5.991   2.068  0.3057  1.3360 -0.5299
   17MOL    H4115113   0.165   6.077   1.935 -1.0268 -0.7249 -2.5438
   17MOL    H4215114   0.204   5.934   1.779  2.6765  1.7713 -1.0270
   17MOL    H4315115   0.242   5.798   1.885 -1.3106 -0.7651  0.4177
   17MOL    H4415116   0.618   5.993   1.985  1.0667  1.4753  0.2908
   17MOL    H4515117   0.872   6.026   1.988  0.2718 -2.0885  0.4395
   17MOL    H4615118   0.907   5.897   1.586 -1.5637 -0.5704 -1.6784
   17MOL    H4715119   0.641   5.873   1.578  0.0660  0.9085 -0.5775
   17MOL    H4815120   7.306   5.937   2.745  0.4742  1.9506  1.2048
   17MOL    O4915121   1.249   6.037   1.919 -0.4236  0.5991  0.2911
   17MOL    C5015122   1.272   6.182   1.912  0.1482 -0.3374 -0.5231
   17MOL    C5115123   1.395   6.239   1.990  0.3605 -0.6128  0.4318
   17MOL    C5215124   1.527   6.165   1.982 -0.7362 -0.2834  1.0585
   17MOL    C5315125   1.610   6.202   2.104  0.2602 -0.3756 -0.7109
   17MOL    C5415126   1.745   6.128   2.114 -0.3710 -0.4686 -0.4117
   17MOL    C5515127   1.836   6.159   2.231  0.1119  0.6193 -0.2999
   17MOL    C5615128   1.977   6.100   2.228  0.3520 -0.8904  0.2637
   17MOL    C5715129   2.062   6.134   2.103  0.4627 -0.8236 -0.1815
   17MOL    C5815130   2.204   6.093   2.109 -0.0959 -0.5470 -0.2816
   17MOL    C5915131   2.295   6.108   1.979  0.1961  0.0195 -0.3336
   17MOL    O6015132   2.273   6.235   1.917 -0.2790 -0.2680  0.0206
   17MOL    C6115133   2.356   6.271   1.817  0.1447  0.1392 -1.1995
   17MOL    O6215134   2.442   6.194   1.765  0.3635 -0.0195 -0.0191
   17MOL    C6315135   2.338   6.416   1.779  0.5936  0.1027  0.2579
   17MOL    C6415136   2.228   6.490   1.828  0.6040 -0.3243 -0.0436
   17MOL    C6515137   2.205   6.628   1.801  0.0767  0.2230 -0.4087
   17MOL    C6615138   2.305   6.696   1.719 -0.0566 -0.1505  0.1258
   17MOL    C6715139   2.288   6.836   1.684 -0.0607 -0.3293  0.2743
   17MOL    O6815140   2.373   6.912   1.633  0.1413 -0.2333 -0.3882
   17MOL    O6915141   2.158   6.881   1.733  0.1547  0.5381  0.0809
   17MOL    C7015142   2.419   6.626   1.675 -0.6474 -0.1459  0.9607
   17MOL    C7115143   2.430   6.487   1.701 -0.7025 -0.2322 -0.9002
   17MOL    H7215144   1.300   6.205   1.809 -0.3426  2.4012 -0.0912
   17MOL    H7315145   1.180   6.238   1.931  0.6104  0.1244  0.4164
   17MOL    H7415146   1.362   6.239   2.094 -0.5337 -0.0128  0.1571
   17MOL    H7515147   1.403   6.341   1.953 -0.5590 -0.1977  1.3447
   17MOL    H7615148   1.524   6.056   1.987  0.3613 -0.3274  0.8958
   17MOL    H7715149   1.580   6.176   1.887  0.8858 -0.5811  1.8967
   17MOL    H7815150   1.550   6.198   2.194  1.1682  1.3981 -0.0103
   17MOL    H7915151   1.639   6.307   2.098  2.0582 -0.7580  0.7361
   17MOL    H8015152   1.727   6.021   2.110 -2.3750 -0.1011 -2.1731
   17MOL    H8115153   1.799   6.162   2.025  1.4022 -1.8563  0.0987
   17MOL    H8215154   1.832   6.265   2.255 -0.1435  0.0686  2.3335
   17MOL    H8315155   1.782   6.114   2.315 -0.2928 -1.2078 -1.4951
   17MOL    H8415156   2.032   6.143   2.312  1.6561  0.1896 -1.1164
   17MOL    H8515157   1.974   5.992   2.235  0.8914 -1.0694 -1.7776
   17MOL    H8615158   2.007   6.099   2.015 -0.0525  1.0685 -0.6369
   17MOL    H8715159   2.048   6.242   2.093  0.9236 -0.5931  1.5333
   17MOL    H8815160   2.205   5.988   2.139 -1.0886 -0.4573  0.0796
   17MOL    H8915161   2.250   6.149   2.191 -1.1635 -1.3776  0.9152
   17MOL    H9015162   2.260   6.031   1.911 -0.4560 -1.0068  1.1182
   17MOL    H9115163   2.399   6.090   2.003  0.2279  1.5892  0.7519
   17MOL    H9215164   2.153   6.452   1.895 -1.5236  1.3659 -1.3968
   17MOL    H9315165   2.121   6.666   1.857  0.2007 -0.5199  0.3032
   17MOL    H9415166   2.488   6.683   1.615 -0.6319  1.0959  2.1165
   17MOL    H9515167   2.519   6.435   1.670 -0.5563 -0.7219  0.3024
   17MOL    O9615168   2.128   7.027   1.714 -0.4806 -0.1578 -0.4941
   17MOL    C9715169   2.189   7.098   1.826  0.1674 -0.5279  0.0252
   17MOL    C9815170   2.144   7.063   1.966 -0.1604 -0.1415  0.5658
   17MOL    C9915171   1.992   7.075   1.980 -0.0798 -0.0697  0.0278
   17MOL   C10015172   1.961   7.062   2.130  0.1852 -0.4438 -0.2697
   17MOL   C10115173   1.810   7.073   2.171  0.5911  0.5970  0.1941
   17MOL   C10215174   1.786   7.002   2.305 -0.0203 -0.1932  0.5955
   17MOL   C10315175   1.650   7.020   2.362  0.8777  0.0300  0.2135
   17MOL   C10415176   1.628   6.936   2.494  0.1098  1.0711  0.8708
   17MOL   C10515177   1.519   6.990   2.581  0.0807  0.7949  0.0910
   17MOL   C10615178   1.556   6.931   2.723 -0.1155 -0.3233 -0.4926
   17MOL   O10715179   1.462   6.931   2.832  0.0294  0.1689  1.0251
   17MOL   C10815180   1.395   6.814   2.868  0.3568  0.5183 -0.2310
   17MOL   O10915181   1.381   6.712   2.793  0.0398  0.2233 -0.2414
   17MOL   C11015182   1.336   6.812   3.006  0.4134 -0.2725 -0.4017
   17MOL   C11115183   1.316   6.937   3.075  0.1965  0.0054  0.7654
   17MOL   C11215184   1.244   6.939   3.191  0.2047 -0.0103  0.0526
   17MOL   C11315185   1.192   6.813   3.249  0.5931  0.3531  0.4152
   17MOL   C11415186   1.090   6.821   3.363  0.2672  0.2592 -0.6112
   17MOL   O11515187   1.015   6.730   3.405  0.0699 -0.0451 -0.2090
   17MOL   O11615188   1.094   6.942   3.419 -0.8365  0.3273  0.6579
   17MOL   C11715189   1.222   6.692   3.183  0.6141  0.1173 -0.3770
   17MOL   C11815190   1.282   6.691   3.060  0.5182  0.6079  0.4820
   17MOL   H11915191   2.295   7.076   1.815  0.8876  2.4943  0.4759
   17MOL   H12015192   2.181   7.205   1.809 -0.3220 -0.6807 -0.7633
   17MOL   H12115193   2.200   7.126   2.035  1.6031  1.0486 -1.8742
   17MOL   H12215194   2.168   6.959   1.988  0.0936 -0.1243  0.3704
   17MOL   H12315195   1.956   7.172   1.944 -1.2600 -0.9925 -1.3088
   17MOL   H12415196   1.941   6.993   1.929 -0.2891  0.4295 -0.5808
   17MOL   H12515197   2.010   7.143   2.184 -1.2837  1.0954 -1.1965
   17MOL   H12615198   2.009   6.968   2.156 -1.2112 -1.4569 -1.2089
   17MOL   H12715199   1.771   7.175   2.173  2.7907  1.4951 -0.9949
   17MOL   H12815200   1.752   7.027   2.091 -1.7502  0.4130  1.9401
   17MOL   H12915201   1.822   6.900   2.305 -1.4384 -0.7683  3.6506
   17MOL   H13015202   1.862   7.045   2.370  0.8244  0.6923 -0.9642
   17MOL   H13115203   1.615   7.123   2.365 -1.8904 -0.9044  1.5957
   17MOL   H13215204   1.573   6.982   2.294 -0.4133  3.5093 -0.3720
   17MOL   H13315205   1.619   6.831   2.465 -0.9667  1.1355  0.9468
   17MOL   H13415206   1.722   6.961   2.543  2.2708 -1.7241 -1.6502
   17MOL   H13515207   1.426   6.949   2.543  0.0270  2.0152 -1.1264
   17MOL   H13615208   1.518   7.098   2.566  0.0974  0.6693 -0.8589
   17MOL   H13715209   1.646   6.975   2.766 -0.5441 -1.0235  1.1590
   17MOL   H13815210   1.590   6.829   2.707  1.3668  0.0679  0.0665
   17MOL   H13915211   1.361   7.027   3.035  0.8416 -0.8329 -0.4433
   17MOL   H14015212   1.227   7.040   3.226  1.2835  1.2556 -2.9439
   17MOL   H14115213   1.189   6.597   3.223  0.9616  0.4505  0.7386
   17MOL   H14215214   1.280   6.600   3.003  0.7432  0.5551  0.5560
   17MOL   O14315215   0.972   6.987   3.495 -0.0042 -0.3741 -0.4874
   17MOL   C14415216   0.996   6.974   3.632  0.0533 -0.5845  0.2007
   17MOL   C14515217   0.898   7.052   3.713 -0.9284  0.6084  0.3155
   17MOL   C14615218   0.758   6.989   3.700 -0.2498  0.6099  0.5875
   17MOL   C14715219   0.654   7.092   3.743 -0.3467 -0.7819  0.4619
   17MOL   C14815220   0.514   7.036   3.782 -0.4055  0.5012  0.0407
   17MOL   C14915221   0.421   7.147   3.816  1.1222 -0.0055  0.0630
   17MOL   C15015222   0.282   7.091   3.832 -0.3004  0.2290 -0.5851
   17MOL   C15115223   0.178   7.212   3.851  0.0107 -0.1195 -0.2727
   17MOL   C15215224   0.160   7.307   3.730  0.3277  0.6517  0.4881
   17MOL   C15315225   0.033   7.405   3.750 -0.6233  0.0602  0.0295
   17MOL   O15415226   7.885   7.335   3.735 -0.3793 -0.4535 -0.3569
   17MOL   C15515227   7.808   7.309   3.850 -0.3106  0.7706 -0.4373
   17MOL   O15615228   7.833   7.349   3.962 -0.3283  0.5063 -0.8030
   17MOL   C15715229   7.690   7.230   3.822  0.1520 -0.1022 -0.5389
   17MOL   C15815230   7.662   7.176   3.696  0.3945 -0.1155 -0.4241
   17MOL   C15915231   7.562   7.077   3.680 -0.2724  0.0290 -0.5685
   17MOL   C16015232   7.461   7.064   3.776 -0.0649 -0.1744  0.1442
   17MOL   C16115233   7.343   6.976   3.749 -0.0912 -0.0476  0.3216
   17MOL   O16215234   7.233   7.007   3.793  0.5582 -0.1118  0.1023
   17MOL   O16315235   7.377   6.873   3.669  0.3748  0.1058 -0.2214
   17MOL   C16415236   7.470   7.136   3.894  0.3775  0.0776 -0.5229
   17MOL   C16515237   7.588   7.213   3.919  0.0579 -0.1636 -0.1506
   17MOL   H16615238   0.989   6.874   3.674  2.3192 -1.0516 -0.4982
   17MOL   H16715239   1.095   7.007   3.664  0.1312 -1.0842  0.4795
   17MOL   H16815240   0.899   7.158   3.690 -0.9732  0.2132 -1.5335
   17MOL   H16915241   0.931   7.054   3.817 -1.1518  2.3179  0.3551
   17MOL   H17015242   0.740   6.948   3.600  1.6229 -0.1868  0.5545
   17MOL   H17115243   0.753   6.903   3.766 -0.3281  0.6917  0.6874
   17MOL   H17215244   0.635   7.173   3.672 -2.7237 -2.0905 -0.4719
   17MOL   H17315245   0.685   7.143   3.834 -1.0875 -0.4755  0.5486
   17MOL   H17415246   0.482   6.967   3.704 -0.0334  0.0365  0.2973
   17MOL   H17515247   0.527   6.972   3.869 -1.1900  0.5670  0.2162
   17MOL   H17615248   0.452   7.199   3.906 -1.1585  1.6832 -0.1073
   17MOL   H17715249   0.417   7.224   3.739 -1.2780 -0.2856 -0.1100
   17MOL   H17815250   0.260   7.025   3.748 -0.4898  1.5929 -1.6335
   17MOL   H17915251   0.283   7.020   3.914 -0.3443 -0.0400 -0.8176
   17MOL   H18015252   0.081   7.173   3.881  0.4991  0.1241  1.6679
   17MOL   H18115253   0.212   7.266   3.939  0.5891 -0.4672 -0.2775
   17MOL   H18215254   0.151   7.253   3.636  0.4027  2.3491 -0.5029
   17MOL   H18315255   0.243   7.375   3.713  1.0727 -0.2721  0.3985
   17MOL   H18415256   0.028   7.489   3.681 -1.6946  0.0711  0.1129
   17MOL   H18515257   0.039   7.440   3.853  0.1186  0.3005 -0.0937
   17MOL   H18615258   7.727   7.189   3.611 -0.0378  1.2338 -0.5632
   17MOL   H18715259   7.563   7.011   3.595  1.1163 -2.0278  0.9795
   17MOL   H18815260   7.391   7.139   3.968 -0.1744  2.1011 -1.1661
   17MOL   H18915261   7.597   7.276   4.006 -0.3701 -0.3854  0.0538
   17MOL   O19015262   7.252   6.793   3.656  0.6766  0.6915 -0.1917
   17MOL   C19115263   7.243   6.679   3.754 -0.0327  0.2846  0.5507
   17MOL   C19215264   7.372   6.597   3.759 -0.5960 -0.1827 -0.7032
   17MOL   C19315265   7.406   6.512   3.639 -0.3846 -0.2449  0.4025
   17MOL   C19415266   7.526   6.417   3.673 -0.1172  0.7379 -0.2936
   17MOL   C19515267   7.565   6.340   3.546 -0.4326 -0.5376 -0.4957
   17MOL   C19615268   7.676   6.245   3.574  0.5654 -0.9979  0.6541
   17MOL   C19715269   7.808   6.323   3.591 -0.1968 -0.1346 -0.1073
   17MOL   C19815270   7.928   6.241   3.639 -0.2193  0.1405  0.4227
   17MOL   C19915271   0.090   6.295   3.624 -0.1544 -0.1184 -0.2729
   17MOL   C20015272   0.175   6.230   3.514 -0.1959 -0.1612  0.0210
   17MOL   O20115273   0.123   6.265   3.389 -0.2504  0.7555  0.4020
   17MOL   C20215274   0.134   6.185   3.281  0.1087  0.3883 -0.3765
   17MOL   O20315275   0.200   6.085   3.274 -0.7438 -0.6813  0.1926
   17MOL   C20415276   0.039   6.229   3.167 -0.1569  0.2012 -0.3858
   17MOL   C20515277   0.049   6.173   3.037 -0.3873  0.1289  0.3482
   17MOL   C20615278   7.943   6.212   2.935  0.6363  0.1156  0.0690
   17MOL   C20715279   7.850   6.311   2.951 -0.1477 -0.4192  0.3675
   17MOL   C20815280   7.763   6.352   2.833  0.4354  1.0094 -0.1008
   17MOL   O20915281   7.765   6.297   2.720 -0.2589  0.3153 -0.2216
   17MOL   O21015282   7.684   6.452   2.864  0.1330 -0.5553 -0.0282
   17MOL   C21115283   7.840   6.378   3.080  0.2453  0.6833  0.6714
   17MOL   C21215284   7.928   6.340   3.185 -0.1856  0.7362  0.1882
   17MOL   H21315285   7.247   6.722   3.854 -1.8990 -1.0021  1.1903
   17MOL   H21415286   7.158   6.612   3.747 -0.3217  0.4234  2.5204
   17MOL   H21515287   7.370   6.524   3.840  1.3210 -1.1284 -1.4969
   17MOL   H21615288   7.456   6.665   3.773  0.5331 -1.7286  0.0905
   17MOL   H21715289   7.324   6.442   3.625  1.0164 -1.8510 -0.0196
   17MOL   H21815290   7.417   6.571   3.549 -1.3662 -0.6676  0.0072
   17MOL   H21915291   7.513   6.343   3.751 -0.7724 -0.0123 -1.0982
   17MOL   H22015292   7.612   6.478   3.703  1.5316 -2.6308  2.0868
   17MOL   H22115293   7.483   6.282   3.503 -0.2942 -0.9637 -0.1871
   17MOL   H22215294   7.594   6.406   3.464  0.0679  0.0743  0.1663
   17MOL   H22315295   7.658   6.194   3.669 -0.4818 -1.1974  0.3594
   17MOL   H22415296   7.682   6.165   3.500  0.3575 -1.5724  1.2504
   17MOL   H22515297   7.830   6.381   3.501 -2.2230  2.6942  1.1604
   17MOL   H22615298   7.811   6.392   3.674  0.6168 -2.4016  1.8188
   17MOL   H22715299   7.908   6.209   3.741  1.7770 -1.1960  0.4143
   17MOL   H22815300   7.940   6.150   3.581  0.4433  0.7346 -0.3827
   17MOL   H22915301   0.146   6.298   3.717 -0.2451 -0.3968 -0.2081
   17MOL   H23015302   0.082   6.399   3.593  1.9322 -0.5623 -2.4409
   17MOL   H23115303   0.183   6.122   3.525 -4.3770 -0.4459  0.9840
   17MOL   H23215304   0.277   6.269   3.504 -0.1388 -0.5415 -0.8485
   17MOL   H23315305   0.142   6.119   3.026 -0.2801  0.6546 -1.4624
   17MOL   H23415306   7.942   6.160   2.840 -2.6919  1.7497 -0.8601
   17MOL   H23515307   7.774   6.459   3.106  0.0164  0.4314  0.8867
   17MOL   H23615308   7.915   6.392   3.279 -2.8467  0.3588  0.0871
   17MOL   O23715309   7.615   6.520   2.742  0.6339  0.2383  0.6971
   17MOL   C23815310   7.614   6.663   2.765  0.3308  0.3893 -0.8013
   17MOL   C23915311   7.760   6.718   2.776 -0.1279  0.3290 -0.4934
   17MOL   C24015312   7.780   6.868   2.748  0.3885  0.1503  0.5906
   17MOL   C24115313   7.763   6.895   2.600  0.2421 -0.6009 -0.3675
   17MOL   C24215314   7.808   7.034   2.563  0.5260 -0.0317  0.1947
   17MOL   C24315315   7.795   7.066   2.414  0.1233  0.5257  0.4509
   17MOL   C24415316   7.860   6.959   2.319 -0.1865  0.2032 -0.1238
   17MOL   C24515317   7.866   6.981   2.164 -0.6797 -0.0777  0.4892
   17MOL   C24615318   7.961   7.094   2.119  0.7570  0.0314  0.3085
   17MOL   C24715319   7.952   7.122   1.971 -0.6486 -0.2202 -0.6019
   17MOL   O24815320   0.066   7.032   1.909  0.1713 -0.6016  0.4069
   17MOL   C24915321   0.180   7.077   1.865 -0.2054  0.0418 -0.3145
   17MOL   O25015322   0.218   7.183   1.908 -0.5622 -0.2265 -0.8204
   17MOL   C25115323   0.240   6.989   1.769 -0.0335 -0.2926 -0.2015
   17MOL   C25215324   0.185   6.863   1.733 -0.0150 -0.3577 -0.0202
   17MOL   C25315325   0.263   6.773   1.652  0.7196  0.2120 -0.3418
   17MOL   C25415326   0.391   6.802   1.609 -0.1404 -0.5478 -0.5676
   17MOL   C25515327   0.461   6.701   1.525 -1.1987 -0.2328 -0.0333
   17MOL   O25615328   0.417   6.591   1.504  0.5463 -0.2678 -0.1232
   17MOL   O25715329   0.574   6.748   1.477 -0.2304 -0.3767 -0.3180
   17MOL   C25815330   0.450   6.926   1.647 -0.4755  0.6032 -0.3368
   17MOL   C25915331   0.372   7.015   1.724  0.0717 -0.5342  0.0133
   17MOL   H26015332   7.564   6.712   2.682 -0.6421  1.1888  0.2477
   17MOL   H26115333   7.572   6.689   2.862  1.3743 -1.6834  0.2512
   17MOL   H26215334   7.822   6.655   2.713  0.0187  1.3517 -1.3845
   17MOL   H26315335   7.789   6.696   2.879 -0.2914 -0.1040 -0.5416
   17MOL   H26415336   7.702   6.932   2.789  1.1226  0.1586  2.0090
   17MOL   H26515337   7.874   6.896   2.796  0.6056  0.8799 -0.2504
   17MOL   H26615338   7.657   6.889   2.578 -0.2578 -1.1125  2.0882
   17MOL   H26715339   7.809   6.816   2.541  3.3185  1.2616 -0.6053
   17MOL   H26815340   7.758   7.097   2.636 -0.2609  1.1191 -1.3193
   17MOL   H26915341   7.911   7.045   2.599  0.6014 -0.2121  0.0367
   17MOL   H27015342   7.690   7.049   2.388  0.4791 -0.8828 -0.1310
   17MOL   H27115343   7.820   7.169   2.390 -0.1171  0.6704  0.8296
   17MOL   H27215344   7.960   6.946   2.360 -1.4401 -1.3245  2.5609
   17MOL   H27315345   7.811   6.862   2.327  0.5096 -0.2372 -1.0008
   17MOL   H27415346   7.894   6.893   2.106 -1.6085 -0.5329  0.7249
   17MOL   H27515347   7.768   7.012   2.126 -1.0070 -1.3980  0.2273
   17MOL   H27615348   0.083   7.078   2.157  0.7703 -0.6311  0.0086
   17MOL   H27715349   7.932   7.179   2.181  1.3328  1.7364 -1.6998
   17MOL   H27815350   7.971   7.228   1.955  0.6335 -0.6848 -2.3415
   17MOL   H27915351   7.852   7.111   1.931 -0.6681  1.0128 -0.9076
   17MOL   H28015352   0.086   6.823   1.752 -0.6812 -0.5916 -3.5164
   17MOL   H28115353   0.220   6.674   1.638 -1.3617  0.6773  2.2884
   17MOL   H28215354   0.551   6.953   1.621  0.5566 -1.4187  1.5089
   17MOL   H28315355   0.420   7.110   1.744  0.5929 -0.0862 -3.1904
   17MOL   O28415356   0.651   6.645   1.398  0.5201 -0.3960 -0.0127
   17MOL   C28515357   0.632   6.678   1.261 -0.2082  0.1533 -0.1388
   17MOL   C28615358   0.671   6.551   1.183  0.0257  0.3350 -0.4511
   17MOL   C28715359   0.823   6.541   1.203 -0.6107  0.2359  0.3656
   17MOL   C28815360   0.892   6.431   1.122 -0.2934  0.4950  0.1654
   17MOL   C28915361   1.048   6.439   1.148  0.4514  0.0058  0.3148
   17MOL   C29015362   1.105   6.304   1.096  0.2227 -0.2401  0.2268
   17MOL   C29115363   1.255   6.318   1.100 -0.1547  0.6737 -1.2268
   17MOL   C29215364   1.335   6.178   1.088  0.1825  0.2863  0.7474
   17MOL   C29315365   1.296   6.087   0.969  0.0804  0.3928  0.4212
   17MOL   C29415366   1.367   5.950   0.980 -0.1592  0.2644 -0.4856
   17MOL   O29515367   1.340   5.876   1.103  0.5902 -0.0915  0.1653
   17MOL   C29615368   1.399   5.762   1.131  0.2300 -0.0479  0.3796
   17MOL   O29715369   1.492   5.706   1.069  0.0604 -0.0233 -0.3215
   17MOL   C29815370   1.336   5.695   1.253  0.5632 -0.1185 -0.4564
   17MOL   C29915371   1.213   5.755   1.304  0.1704 -0.2607 -0.6868
   17MOL   C30015372   1.141   5.689   1.409 -0.5932 -0.2004 -0.0497
   17MOL   C30115373   1.187   5.558   1.458  0.2172 -0.2696  0.0664
   17MOL   C30215374   1.098   5.489   1.556 -0.5574 -0.1245 -0.0103
   17MOL   O30315375   1.095   5.369   1.575  0.0064 -0.4056 -0.3702
   17MOL   O30415376   1.026   5.575   1.630  0.6106  0.1228 -0.1748
   17MOL   C30515377   1.310   5.505   1.410  0.4759 -0.3890  0.3133
   17MOL   C30615378   1.382   5.569   1.302  0.2310 -0.2736  0.9951
   17MOL   H30715379   0.527   6.701   1.240 -0.0581  1.0010  0.0350
   17MOL   H30815380   0.682   6.767   1.223 -0.6583  1.3027  1.9065
   17MOL   H30915381   0.639   6.566   1.080 -0.1653  0.6102 -0.3527
   17MOL   H31015382   0.628   6.462   1.228  0.7049 -0.5571 -1.5517
   17MOL   H31115383   0.876   6.635   1.187  1.0790 -0.6484  0.5782
   17MOL   H31215384   0.844   6.528   1.310  0.9035 -2.6178 -0.2194
   17MOL   H31315385   0.880   6.442   1.014  4.7112 -2.8609 -0.9598
   17MOL   H31415386   0.856   6.331   1.148  0.9153 -0.4730 -1.7710
   17MOL   H31515387   1.090   6.519   1.088 -0.7512  1.5303  1.4942
   17MOL   H31615388   1.076   6.449   1.253  1.4172  1.7370 -0.0898
   17MOL   H31715389   1.068   6.224   1.161  1.4077 -1.3464 -0.4424
   17MOL   H31815390   1.075   6.279   0.995 -0.1351 -1.0482  0.5234
   17MOL   H31915391   1.288   6.378   1.015  2.3848  0.7139 -0.2763
   17MOL   H32015392   1.283   6.370   1.192  0.8590 -3.0361  0.6630
   17MOL   H32115393   1.439   6.210   1.082  0.1419  0.2571 -0.3150
   17MOL   H32215394   1.327   6.132   1.186 -0.1079 -1.5125 -0.0997
   17MOL   H32315395   1.318   6.131   0.871 -0.2386  1.9646  1.0397
   17MOL   H32415396   1.190   6.062   0.973 -0.9355  3.8775 -2.1095
   17MOL   H32515397   1.476   5.959   0.978  0.0980 -1.4330  2.5217
   17MOL   H32615398   1.329   5.886   0.900 -1.4860  2.2894 -1.5125
   17MOL   H32715399   1.166   5.842   1.262 -5.3627 -1.2801  2.8459
   17MOL   H32815400   1.048   5.736   1.438  0.0506  0.1059  1.5755
   17MOL   H32915401   1.344   5.408   1.443 -1.9183 -0.7279  1.8816
   17MOL   H33015402   1.464   5.513   1.260  0.5250  0.3620  0.7165
   17MOL   O33115403   0.929   5.513   1.719 -0.5238  0.3071  0.0292
   17MOL   C33215404   0.981   5.485   1.843  0.0489 -0.2069  0.1661
   17MOL   C33315405   1.002   5.615   1.918 -0.4325  0.2026 -0.8053
   17MOL   C33415406   1.068   5.593   2.053  0.3034 -0.7779 -0.3337
   17MOL   C33515407   1.088   5.732   2.121 -0.7483  0.0832  0.3509
   17MOL   C33615408   0.960   5.803   2.161 -0.5117 -0.1759 -0.4254
   17MOL   C33715409   0.897   5.740   2.289  0.2383  0.3180 -0.7405
   17MOL   C33815410   0.760   5.811   2.319 -0.3355 -0.3100 -0.4698
   17MOL   C33915411   0.716   5.783   2.462  0.4573  0.3498  0.1309
   17MOL   C34015412   0.617   5.667   2.486 -0.3452  0.0472  0.4475
   17MOL   C34115413   0.659   5.527   2.437 -0.1698 -0.4305 -0.5362
   17MOL   O34215414   0.626   5.512   2.298  0.1755  0.1090  0.0611
   17MOL   C34315415   0.622   5.394   2.237 -0.9076  0.3562 -0.6445
   17MOL   O34415416   0.630   5.285   2.296 -0.3482 -0.1848 -0.1362
   17MOL   C34515417   0.613   5.403   2.093 -0.5472 -0.6630  0.3761
   17MOL   C34615418   0.643   5.524   2.023 -0.2540 -0.3532 -0.2178
   17MOL   C34715419   0.633   5.535   1.878  0.2870 -0.2873 -0.4183
   17MOL   C34815420   0.590   5.417   1.807  0.3920  0.7350 -0.0215
   17MOL   C34915421   0.567   5.409   1.664 -0.0711 -0.0486  0.1521
   17MOL   O35015422   0.491   5.334   1.609 -0.1177  0.0012  0.2214
   17MOL   O35115423   0.617   5.508   1.596 -0.6407  0.0570 -0.1389
   17MOL   C35215424   0.545   5.307   1.881  0.3200  0.0941 -0.8726
   17MOL   C35315425   0.557   5.301   2.019 -0.1611 -0.5515  0.1489
   17MOL   H35415426   0.903   5.443   1.906  1.9145 -1.6210  1.5832
   17MOL   H35515427   1.071   5.423   1.846 -0.5339 -0.9926  1.7724
   17MOL   H35615428   0.907   5.669   1.926 -0.7032  0.0371 -2.6188
   17MOL   H35715429   1.071   5.680   1.864 -0.7282 -0.7988 -2.4451
   17MOL   H35815430   1.012   5.523   2.115 -0.2225 -1.5513 -1.6621
   17MOL   H35915431   1.163   5.541   2.046  1.4851  1.0054  2.0670
   17MOL   H36015432   1.150   5.789   2.052  1.1095 -0.2553  1.7089
   17MOL   H36115433   1.145   5.707   2.210 -2.6483 -1.5034  1.1467
   17MOL   H36215434   0.989   5.907   2.171  1.7828 -0.9773  1.6021
   17MOL   H36315435   0.884   5.794   2.083 -0.2062 -3.1367 -0.4419
   17MOL   H36415436   0.884   5.632   2.276  1.1661  0.0274  0.6338
   17MOL   H36515437   0.971   5.760   2.366  0.6619 -2.3090 -0.3967
   17MOL   H36615438   0.784   5.918   2.315 -0.8291 -0.1422  0.7741
   17MOL   H36715439   0.679   5.782   2.254  0.9136 -2.7287 -0.9922
   17MOL   H36815440   0.803   5.782   2.527 -0.8629  1.3875  1.9716
   17MOL   H36915441   0.663   5.871   2.497  0.4500 -0.0985  1.2608
   17MOL   H37015442   0.518   5.694   2.450  0.0317  2.9816  1.4203
   17MOL   H37115443   0.603   5.666   2.594 -0.8121 -0.9382  0.3778
   17MOL   H37215444   0.610   5.451   2.499 -0.6131  0.1247 -0.1978
   17MOL   H37315445   0.767   5.519   2.444 -0.3005 -1.4912  0.6208
   17MOL   H37415446   0.678   5.614   2.072 -1.1836 -1.3750  2.3673
   17MOL   H37515447   0.662   5.628   1.831  2.3990  0.3659  2.0571
   17MOL   H37615448   0.507   5.219   1.831  1.4581 -1.6190  1.1814
   17MOL   H37715449   0.537   5.210   2.074 -1.7902 -0.0310  0.4515
   17MOL   O37815450   0.561   5.511   1.456  0.0297  0.4436  0.3320
   17MOL   C37915451   0.462   5.609   1.453  0.6521  0.1450 -0.4897
   17MOL   C38015452   0.387   5.584   1.322 -0.4971  0.4202  0.2192
   17MOL   C38115453   0.303   5.452   1.309 -0.6024  0.6408  0.3002
   17MOL   C38215454   0.204   5.438   1.422  0.4491  0.1052  0.0234
   17MOL   C38315455   0.109   5.327   1.408 -0.6227  0.3047  0.6189
   17MOL   C38415456   7.962   5.345   1.478  0.0946 -0.5491  0.0167
   17MOL   C38515457   7.878   5.222   1.471 -0.0447  0.4793 -0.7050
   17MOL   C38615458   7.746   5.222   1.550  0.1832 -0.2809  0.2912
   17MOL   C38715459   7.623   5.317   1.509  0.5046 -0.2283 -0.1948
   17MOL   C38815460   7.579   5.324   1.363  0.3566 -0.4898  0.5106
   17MOL   O38915461   7.674   5.403   1.292 -0.2326 -0.3846  0.0759
   17MOL   C39015462   7.697   5.390   1.162 -0.3293  0.9763  0.2133
   17MOL   O39115463   7.622   5.324   1.086 -0.0128 -0.1063 -0.3166
   17MOL   C39215464   7.808   5.470   1.113 -0.8310 -0.3761 -0.3693
   17MOL   C39315465   7.868   5.453   0.987  0.1941  0.3321  0.4292
   17MOL   C39415466   0.000   5.527   0.945 -0.0602  0.4627 -0.6326
   17MOL   C39515467   0.061   5.612   1.032  0.2339 -1.0086  0.3291
   17MOL   C39615468   0.184   5.688   0.988  0.4329 -0.1163 -0.2980
   17MOL   O39715469   0.255   5.755   1.068  0.3140  0.7929  0.8643
   17MOL   O39815470   0.203   5.688   0.848  0.0925  0.4581  0.1102
   17MOL   C39915471   0.009   5.631   1.155  0.1383  0.1833 -0.9155
   17MOL   C40015472   7.866   5.570   1.194 -0.1664  0.1108  0.1780
   17MOL   H40115473   0.400   5.608   1.543 -1.2585  0.4844 -1.7932
   17MOL   H40215474   0.514   5.704   1.452  0.5809  0.2176  0.8649
   17MOL   H40315475   0.454   5.603   1.238 -0.6193  1.7572  0.4236
   17MOL   H40415476   0.313   5.661   1.299 -0.3755  0.0859 -1.3951
   17MOL   H40515477   0.250   5.431   1.216  0.6186 -2.0421  0.1611
   17MOL   H40615478   0.373   5.370   1.314  0.6249  1.6355 -0.3557
   17MOL   H40715479   0.149   5.532   1.429  0.6896  0.3429 -1.2092
   17MOL   H40815480   0.256   5.415   1.515  0.2981  1.4672  0.4673
   17MOL   H40915481   0.079   5.321   1.304  0.2856  0.8741  0.3238
   17MOL   H41015482   0.163   5.244   1.453  1.0340  1.6653  1.1670
   17MOL   H41115483   7.964   5.388   1.578  1.5417 -1.3533  0.3511
   17MOL   H41215484   7.906   5.428   1.436 -1.7768 -0.8439  1.8502
   17MOL   H41315485   7.877   5.172   1.375 -2.5620  0.7305 -0.8657
   17MOL   H41415486   7.935   5.142   1.517 -0.7964 -0.5960 -1.6297
   17MOL   H41515487   7.710   5.120   1.538 -0.7298  0.1779 -1.0079
   17MOL   H41615488   7.775   5.230   1.654  1.2213 -0.0016 -0.0176
   17MOL   H41715489   7.655   5.414   1.548 -1.4159  0.9089 -1.3812
   17MOL   H41815490   7.537   5.290   1.571  1.3450  0.7833  1.4572
   17MOL   H41915491   7.483   5.377   1.358 -0.5241 -2.1816 -1.6425
   17MOL   H42015492   7.552   5.222   1.334 -0.0583 -0.0706 -0.6389
   17MOL   H42115493   7.836   5.373   0.921  0.6256  0.0436  0.5695
   17MOL   H42215494   0.035   5.499   0.846 -1.9044  0.4917 -1.3121
   17MOL   H42315495   0.060   5.705   1.215 -0.2600 -0.1434 -0.1684
   17MOL   H42415496   7.821   5.597   1.288  0.1910  1.5651 -0.0588
   17MOL   O42515497   0.298   5.791   0.803 -0.4111 -0.2466  0.4105
   17MOL   C42615498   0.231   5.901   0.743 -0.1666  0.2906 -0.0828
   17MOL   C42715499   0.223   5.877   0.592  0.2168  0.7398 -0.1617
   17MOL   C42815500   0.351   5.907   0.509  0.4712 -0.1643  0.6496
   17MOL   C42915501   0.340   5.887   0.350  0.6776 -0.4318 -0.4993
   17MOL   C43015502   0.351   5.738   0.312 -0.4183 -1.0129  0.1750
   17MOL   C43115503   0.267   5.711   0.194  1.1245 -0.9587 -0.3226
   17MOL   C43215504   0.252   5.558   0.163  0.7334  0.6224  0.7002
   17MOL   C43315505   0.144   5.529   0.050 -0.6857  0.4577  0.0061
   17MOL   C43415506   0.131   5.391   7.963 -0.3002  0.6818  0.2077
   17MOL   C43515507   0.004   5.362   7.878 -0.2496  0.1258 -0.4357
   17MOL   O43615508   7.862   5.381   7.952  0.7507 -0.5939 -0.5686
   17MOL   C43715509   7.750   5.319   7.912  0.2431 -0.1229  1.0600
   17MOL   O43815510   7.747   5.262   7.802  0.3295 -0.0638 -0.0331
   17MOL   C43915511   7.632   5.318   0.029 -0.6763  0.7342  0.7300
   17MOL   C44015512   7.621   5.402   0.143 -0.0685 -0.9642 -0.1266
   17MOL   C44115513   7.506   5.414   0.220 -0.9293 -0.0617  1.1048
   17MOL   C44215514   7.398   5.324   0.194  0.4724  0.0947  0.6859
   17MOL   C44315515   7.276   5.338   0.282  0.1385 -0.5751  0.0864
   17MOL   O44415516   7.259   5.432   0.358 -0.4999  0.3297 -0.4305
   17MOL   O44515517   7.189   5.228   0.273  0.1833 -0.5872  0.0577
   17MOL   C44615518   7.408   5.238   0.084 -0.4416 -0.4279 -0.0864
   17MOL   C44715519   7.520   5.238   7.977  0.1095  0.0964 -0.7008
   17MOL   H44815520   0.131   5.917   0.785  0.6931  0.5769  1.9009
   17MOL   H44915521   0.288   5.991   0.764  1.2283  0.0954 -2.8726
   17MOL   H45015522   0.150   5.945   0.548 -1.6296  0.1656  1.9251
   17MOL   H45115523   0.173   5.782   0.573  0.2635  0.4838  0.9563
   17MOL   H45215524   0.377   6.011   0.525 -2.0758  0.3533  1.6215
   17MOL   H45315525   0.436   5.850   0.546  1.1206  0.5001  0.1960
   17MOL   H45415526   0.413   5.941   0.290  0.2568 -3.0252 -3.4722
   17MOL   H45515527   0.243   5.927   0.321  1.3992  2.5630  1.0201
   17MOL   H45615528   0.454   5.702   0.303 -0.3667 -0.6496 -0.6783
   17MOL   H45715529   0.308   5.677   0.391 -1.0884 -0.6856  0.0644
   17MOL   H45815530   0.170   5.756   0.216  0.1350 -2.3245 -1.7942
   17MOL   H45915531   0.304   5.776   0.114 -0.5808  1.3834  0.7257
   17MOL   H46015532   0.346   5.507   0.140 -0.2273  0.3261 -2.9638
   17MOL   H46115533   0.217   5.516   0.257  3.2319  0.8908  1.7930
   17MOL   H46215534   0.046   5.555   0.089 -1.2467 -0.3349 -0.8420
   17MOL   H46315535   0.164   5.596   7.944  1.7815  0.1346  0.3186
   17MOL   H46415536   0.129   5.322   0.069  2.8092  0.7161  0.3837
   17MOL   H46515537   0.221   5.364   7.908  0.9465  0.8905  2.1041
   17MOL   H46615538   0.012   5.254   7.862  1.0696  0.1807 -0.2842
   17MOL   H46715539   0.008   5.419   7.786 -2.4285  1.5281  0.3072
   17MOL   H46815540   7.711   5.449   0.178 -1.1320 -0.7799  2.4400
   17MOL   H46915541   7.527   5.490   0.294 -0.2020  0.2497  0.5869
   17MOL   H47015542   7.329   5.166   0.072 -1.9944  1.1411  0.5084
   17MOL   H47115543   7.521   5.167   7.895  0.2140  0.5906 -1.1329
   17MOL   O47215544   7.088   5.230   0.381 -0.3606 -0.2723 -0.4817
   17MOL   C47315545   6.970   5.294   0.335  1.0752  0.0152 -0.3921
   17MOL   C47415546   6.911   5.210   0.223 -0.3763  0.8069  0.7494
   17MOL   C47515547   6.794   5.264   0.150  0.2248 -0.1930  0.0040
   17MOL   C47615548   6.692   5.341   0.229  0.0696  0.1194 -0.3163
   17MOL   C47715549   6.573   5.365   0.137  0.4758  0.2491  0.0079
   17MOL   C47815550   6.584   5.489   0.046  0.1084 -0.2640 -0.2647
   17MOL   C47915551   6.476   5.499   7.916  0.6569  0.6877 -0.0121
   17MOL   C48015552   6.477   5.622   7.828 -0.0512 -0.4280  0.4249
   17MOL   C48115553   6.575   5.610   7.712  0.1121 -0.3261 -0.3031
   17MOL   C48215554   6.575   5.738   7.629  0.0548  0.4360  0.4238
   17MOL   O48315555   6.453   5.735   7.558  0.4715  0.2412  0.6024
   17MOL   C48415556   6.458   5.695   7.428  0.8342  0.2847 -0.1061
   17MOL   O48515557   6.563   5.663   7.369 -0.2040  0.1156 -0.2465
   17MOL   C48615558   6.330   5.692   7.352 -0.2893  0.8675  0.1359
   17MOL   C48715559   6.326   5.621   7.231  0.2520 -0.3028  0.2448
   17MOL   C48815560   6.208   5.625   7.157 -0.8067  0.0307  0.8531
   17MOL   C48915561   6.098   5.694   7.204 -0.5460 -0.5823  0.0601
   17MOL   C49015562   5.968   5.689   7.129  0.4711  0.1305 -1.4961
   17MOL   O49115563   5.865   5.746   7.171 -0.0454 -0.3835 -0.0018
   17MOL   O49215564   5.972   5.620   7.010  0.5623  0.0073  0.1768
   17MOL   C49315565   6.103   5.761   7.327  0.1743  0.3950 -0.6471
   17MOL   C49415566   6.217   5.763   7.405  1.5462  0.4185 -0.1277
   17MOL   H49515567   6.901   5.313   0.418  2.1021  1.7819  0.0837
   17MOL   H49615568   6.988   5.389   0.285 -0.0829  3.5784  5.4750
   17MOL   H49715569   6.887   5.114   0.269 -0.6415 -0.0378 -1.1199
   17MOL   H49815570   6.981   5.183   0.145 -0.1958  1.5034  0.6759
   17MOL   H49915571   6.818   5.328   0.065 -2.3443  0.9682  0.0936
   17MOL   H50015572   6.751   5.177   0.100 -0.1604  0.9373 -1.7005
   17MOL   H50115573   6.727   5.430   0.282 -1.3750 -0.3039  1.3944
   17MOL   H50215574   6.657   5.273   0.307  1.8419 -0.6907 -0.2119
   17MOL   H50315575   6.536   5.277   0.084  1.7903 -0.4887  0.2909
   17MOL   H50415576   6.488   5.382   0.203  0.9754 -1.3783  1.1002
   17MOL   H50515577   6.572   5.574   0.113 -0.4900 -0.0501 -0.6391
   17MOL   H50615578   6.674   5.497   7.962  0.6858 -1.3053  0.4283
   17MOL   H50715579   6.482   5.402   7.865 -2.0140  0.0458  0.7982
   17MOL   H50815580   6.385   5.499   7.976  1.4869 -0.2479  1.2711
   17MOL   H50915581   6.375   5.622   7.789  0.2289  0.7285 -0.3416
   17MOL   H51015582   6.487   5.711   7.890  0.6669 -1.1573  1.3714
   17MOL   H51115583   6.559   5.524   7.647  0.2244  0.0428 -0.8215
   17MOL   H51215584   6.670   5.588   7.759 -0.0575 -1.1652 -0.3499
   17MOL   H51315585   6.655   5.742   7.555 -0.1493  2.7049  0.2868
   17MOL   H51415586   6.579   5.818   7.703  1.8534  1.0027 -0.2619
   17MOL   H51515587   6.415   5.570   7.196  0.1839 -1.2659  1.4617
   17MOL   H51615588   6.207   5.564   7.068 -0.0079  0.9479  0.2018
   17MOL   H51715589   6.015   5.804   7.372  0.1060  1.4098 -1.7421
   17MOL   H51815590   6.218   5.807   7.504  0.5964 -1.2284  0.6423
   17MOL   O51915591   5.839   5.580   6.957 -0.1446  0.0458 -0.3748
   17MOL   C52015592   5.806   5.651   6.837 -0.1646 -0.2640 -0.1464
   17MOL   C52115593   5.657   5.631   6.805  1.2193  0.3248  0.4280
   17MOL   C52215594   5.613   5.718   6.683 -0.1258 -0.4555  0.2815
   17MOL   C52315595   5.480   5.803   6.703 -0.2065 -0.0719  0.7697
   17MOL   C52415596   5.491   5.919   6.813 -0.9421  0.9678  0.5392
   17MOL   C52515597   5.598   6.029   6.797 -0.3591 -0.5593 -1.1562
   17MOL   C52615598   5.606   6.133   6.908 -0.3831  0.0777  0.5809
   17MOL   C52715599   5.714   6.235   6.882 -0.3085 -0.8709  1.3042
   17MOL   C52815600   5.697   6.355   6.974 -1.0330  0.8862  0.0718
   17MOL   C52915601   5.769   6.478   6.915  0.3258 -0.1028  0.1248
   17MOL   O53015602   5.702   6.529   6.799  0.3036 -0.0297 -0.3489
   17MOL   C53115603   5.772   6.619   6.722  0.9180  0.0283  0.2591
   17MOL   O53215604   5.880   6.666   6.759 -0.4732 -0.0507  0.5052
   17MOL   C53315605   5.694   6.658   6.599 -0.2781 -0.1064  0.3262
   17MOL   C53415606   5.729   6.771   6.525  0.2577  0.6072  0.9158
   17MOL   C53515607   5.662   6.811   6.403 -0.2114  0.0652  0.0320
   17MOL   C53615608   5.556   6.734   6.354  0.4590 -0.6368  0.3338
   17MOL   C53715609   5.487   6.754   6.224  0.0061 -0.2094  0.0331
   17MOL   O53815610   5.388   6.698   6.178 -0.4766  0.5944  0.1330
   17MOL   O53915611   5.548   6.857   6.154 -0.3502 -0.2094 -0.8828
   17MOL   C54015612   5.516   6.625   6.432 -1.4637  0.1172 -0.0680
   17MOL   C54115613   5.588   6.581   6.551  0.2431  0.9130  0.2479
   17MOL   H54215614   5.820   5.753   6.871  0.2000 -0.5705  0.6250
   17MOL   H54315615   5.876   5.631   6.755 -0.4397 -2.1254  0.0452
   17MOL   H54415616   5.598   5.657   6.893  0.2012 -0.4812 -0.0116
   17MOL   H54515617   5.628   5.527   6.789  1.8244  0.3671 -1.1025
   17MOL   H54615618   5.695   5.787   6.665 -1.1444  0.7881  0.2581
   17MOL   H54715619   5.594   5.663   6.591 -2.8187  1.9611 -0.7034
   17MOL   H54815620   5.393   5.740   6.725 -2.9236  4.1241  2.6001
   17MOL   H54915621   5.446   5.842   6.608 -4.0330 -2.2770  1.1178
   17MOL   H55015622   5.390   5.954   6.831 -2.4659 -3.1065  0.4706
   17MOL   H55115623   5.517   5.867   6.906  0.6931  2.8445  1.1896
   17MOL   H55215624   5.693   5.985   6.765 -0.0392 -0.3012 -0.5496
   17MOL   H55315625   5.558   6.073   6.706  0.7379  0.1280 -1.3136
   17MOL   H55415626   5.507   6.178   6.920 -0.3222  0.6122 -0.8432
   17MOL   H55515627   5.625   6.091   7.006 -1.6453 -1.1267  0.3289
   17MOL   H55615628   5.810   6.186   6.898  0.7247  0.6228 -0.1555
   17MOL   H55715629   5.705   6.262   6.777  2.2044  1.0481  1.5281
   17MOL   H55815630   5.738   6.316   7.067  0.2419  0.0723 -0.8186
   17MOL   H55915631   5.592   6.380   6.989 -1.5314 -1.1529  0.0944
   17MOL   H56015632   5.873   6.453   6.896  0.3296 -1.8897  2.3046
   17MOL   H56115633   5.770   6.558   6.989 -0.4591  0.2672 -0.2641
   17MOL   H56215634   5.816   6.825   6.559  2.9704 -2.6918 -0.5120
   17MOL   H56315635   5.693   6.896   6.344 -1.0279  2.6408  3.1607
   17MOL   H56415636   5.435   6.563   6.396 -0.7823 -0.6712 -0.2834
   17MOL   H56515637   5.568   6.489   6.603  1.0219  0.8293  0.4069
   17MOL   O56615638   5.488   6.900   6.025  0.1940  0.3353 -0.2477
   17MOL   C56715639   5.541   6.822   5.914  0.9461 -0.3044  0.0239
   17MOL   C56815640   5.478   6.886   5.791 -0.5251 -0.4301  0.0021
   17MOL   C56915641   5.532   6.838   5.655 -0.1211  0.7712 -0.4028
   17MOL   C57015642   5.454   6.719   5.588  0.2448 -0.5450 -0.0556
   17MOL   C57115643   5.509   6.685   5.455 -0.5294  0.1366 -0.1763
   17MOL   C57215644   5.646   6.615   5.481 -0.1007  0.9468  0.7631
   17MOL   C57315645   5.719   6.545   5.364 -0.2848 -0.1838 -0.1651
   17MOL   C57415646   5.860   6.489   5.403  0.1199  0.4103 -0.6638
   17MOL   C57515647   5.847   6.365   5.503 -0.1223 -0.4699 -0.3491
   17MOL   C57615648   5.983   6.335   5.578  0.1385  0.2789  0.0432
   17MOL   O57715649   5.998   6.432   5.679 -0.1567 -0.6068 -0.6237
   17MOL   C57815650   5.964   6.410   5.812 -0.8369  0.2636  0.2696
   17MOL   O57915651   5.940   6.298   5.850  0.0801 -0.6980 -0.1128
   17MOL   C58015652   5.947   6.534   5.890 -0.4469 -0.0358 -0.5415
   17MOL   C58115653   5.913   6.655   5.821 -1.0089 -0.4716  0.5135
   17MOL   C58215654   5.909   6.781   5.889  0.3338  0.3125 -0.0324
   17MOL   C58315655   5.935   6.791   6.030 -0.3407  0.0020  0.3801
   17MOL   C58415656   5.933   6.923   6.106  0.4621  0.2417  0.3549
   17MOL   O58515657   5.954   6.931   6.228  0.3913  0.3187 -0.5108
   17MOL   O58615658   5.909   7.028   6.033 -0.4629  0.2746  0.2619
   17MOL   C58715659   5.964   6.667   6.095 -0.3949 -0.6880  0.4783
   17MOL   C58815660   5.966   6.540   6.030  0.4115 -0.6814  0.1473
   17MOL   H58915661   5.650   6.825   5.921  1.0402  0.8865 -1.7036
   17MOL   H59015662   5.517   6.718   5.937  2.0526  0.1638  3.5907
   17MOL   H59115663   5.494   6.994   5.794  1.1483 -0.7025  1.5129
   17MOL   H59215664   5.371   6.867   5.793 -0.5207 -0.3686  2.6585
   17MOL   H59315665   5.524   6.931   5.598 -0.9588 -0.5547 -2.5115
   17MOL   H59415666   5.638   6.818   5.668 -0.1261  1.8618  1.4748
   17MOL   H59515667   5.351   6.750   5.569  0.3826 -0.4726 -0.7107
   17MOL   H59615668   5.443   6.642   5.663  1.0615  0.1505  0.7863
   17MOL   H59715669   5.448   6.612   5.403  0.0976  0.9560 -2.1245
   17MOL   H59815670   5.514   6.769   5.386 -0.0314  1.6415  1.6467
   17MOL   H59915671   5.718   6.672   5.539  0.0294  0.0148  1.5212
   17MOL   H60015672   5.631   6.528   5.544 -0.7258  1.9088  1.9620
   17MOL   H60115673   5.659   6.462   5.327  0.6627 -1.8390  1.9071
   17MOL   H60215674   5.723   6.608   5.275 -2.0122 -1.1203 -0.9463
   17MOL   H60315675   5.907   6.466   5.308 -0.8137  0.4129 -1.1332
   17MOL   H60415676   5.915   6.574   5.443 -0.6477 -0.0147  1.3921
   17MOL   H60515677   5.796   6.279   5.459 -0.4684  0.3792 -1.6310
   17MOL   H60615678   5.779   6.384   5.585 -0.5689 -0.4770 -0.7170
   17MOL   H60715679   6.071   6.336   5.514  0.3484 -1.3773  0.2731
   17MOL   H60815680   5.985   6.232   5.614  1.2088  0.0294 -0.7158
   17MOL   H60915681   5.896   6.649   5.715 -0.6397 -0.0176  0.4283
   17MOL   H61015682   5.879   6.870   5.835  0.7050  0.3322 -0.2066
   17MOL   H61115683   5.990   6.670   6.200 -1.7993 -0.1362  0.8303
   17MOL   H61215684   6.007   6.453   6.079  1.9697  0.2175  0.4576
   17MOL   O61315685   5.900   7.151   6.113 -0.2457 -0.1456  0.4555
   17MOL   C61415686   6.013   7.224   6.065  0.5007  0.8622  0.0161
   17MOL   C61515687   6.015   7.353   6.139 -0.2454 -0.5144  0.3581
   17MOL   C61615688   6.149   7.427   6.129  0.4733 -0.3727 -0.6177
   17MOL   C61715689   6.254   7.392   6.237 -0.1703 -0.1575  0.4138
   17MOL   C61815690   6.397   7.445   6.194  0.3542 -0.2425  0.3746
   17MOL   C61915691   6.495   7.444   6.322 -0.3478 -0.1757 -0.0704
   17MOL   C62015692   6.633   7.502   6.293 -0.1942 -0.1657 -0.1987
   17MOL   C62115693   6.721   7.394   6.207  0.1721  0.3815 -0.8526
   17MOL   C62215694   6.873   7.434   6.189 -0.2293  0.0176  0.2007
   17MOL   C62315695   6.964   7.351   6.102  0.1034  0.3881 -0.2406
   17MOL   O62415696   6.908   7.327   5.972  0.1511  0.1746 -0.4863
   17MOL   C62515697   6.940   7.210   5.903 -1.3366 -0.4048  0.1057
   17MOL   O62615698   7.028   7.137   5.931 -0.5699 -0.2530  0.8140
   17MOL   C62715699   6.844   7.181   5.790  0.2884  0.3639 -0.0948
   17MOL   C62815700   6.732   7.264   5.770  0.2719 -0.3104  0.1054
   17MOL   C62915701   6.634   7.232   5.672 -0.7374 -0.6907  0.5468
   17MOL   C63015702   6.655   7.130   5.578 -0.2153 -0.2389  0.1526
   17MOL   C63115703   6.556   7.106   5.467 -0.0626 -0.2067  0.6748
   17MOL   O63215704   6.580   7.029   5.365  0.0623  0.0979  0.1021
   17MOL   O63315705   6.448   7.178   5.472  0.2055 -0.2118 -0.2117
   17MOL   C63415706   6.773   7.055   5.592 -0.7264 -0.3042  0.1214
   17MOL   C63515707   6.859   7.069   5.700 -0.3799  0.0194 -0.0745
   17MOL   H63615708   6.099   7.170   6.102 -0.8085 -0.6171  0.9796
   17MOL   H63715709   6.004   7.246   5.959 -1.3016  0.7812  0.1258
   17MOL   H63815710   6.005   7.328   6.245  0.0220  0.4624  0.6238
   17MOL   H63915711   5.938   7.420   6.100  1.2849  0.7937 -0.4450
   17MOL   H64015712   6.190   7.413   6.029 -1.9151  0.1235 -1.6819
   17MOL   H64115713   6.129   7.534   6.127 -0.7848 -0.6216 -1.5361
   17MOL   H64215714   6.269   7.286   6.257  2.0879  0.0845  0.0644
   17MOL   H64315715   6.229   7.434   6.335 -1.0368 -0.6937  0.4267
   17MOL   H64415716   6.430   7.384   6.110  2.1045 -0.6410  1.3267
   17MOL   H64515717   6.382   7.545   6.153  1.0363  0.2089  1.2080
   17MOL   H64615718   6.452   7.504   6.403 -2.8867 -0.1064 -1.4118
   17MOL   H64715719   6.508   7.346   6.369 -1.9701  0.8700  2.7365
   17MOL   H64815720   6.625   7.592   6.232 -0.6371  0.1249  0.2888
   17MOL   H64915721   6.686   7.532   6.383 -1.1915  2.1463 -0.3576
   17MOL   H65015722   6.719   7.296   6.256 -4.0201  0.1349 -1.3470
   17MOL   H65115723   6.668   7.378   6.114  0.7896 -0.4545 -1.0686
   17MOL   H65215724   6.919   7.445   6.287 -0.0689  0.4837  0.0746
   17MOL   H65315725   6.874   7.534   6.145 -4.4436  0.2600  0.4545
   17MOL   H65415726   6.979   7.256   6.154  1.0758  0.2005 -0.8590
   17MOL   H65515727   7.065   7.391   6.107 -0.2137  1.0493  1.1451
   17MOL   H65615728   6.706   7.341   5.841  2.4450  0.7639 -0.2410
   17MOL   H65715729   6.536   7.276   5.663 -0.9928 -1.9224 -3.9237
   17MOL   H65815730   6.788   6.976   5.520  2.5528 -1.1974  1.6571
   17MOL   H65915731   6.943   7.003   5.713 -1.7776 -2.1762 -1.8022
   17MOL   O66015732   6.327   7.128   5.388 -0.2335 -0.4782  0.6447
   17MOL   C66115733   6.318   7.210   5.275  0.6268 -0.2454 -0.3603
   17MOL   C66215734   6.194   7.166   5.197 -0.5086 -0.2582 -0.0421
   17MOL   C66315735   6.195   7.018   5.144 -0.0804 -0.0141  0.5432
   17MOL   C66415736   6.084   6.990   5.039 -0.3088 -0.4527 -0.1848
   17MOL   C66515737   6.070   6.839   5.015  0.0687 -0.5260  0.2979
   17MOL   C66615738   5.932   6.798   4.963 -0.3852  0.0824  0.5280
   17MOL   C66715739   5.898   6.651   4.989  0.1461  0.9117 -0.1418
   17MOL   C66815740   5.761   6.620   4.936  0.0233 -0.8278  0.0572
   17MOL   C66915741   5.747   6.470   4.947 -0.2161 -0.4964  0.1949
   17MOL   C67015742   5.609   6.411   4.902 -0.1317 -0.3328 -0.2561
   17MOL   O67115743   5.504   6.481   4.972  0.1290 -0.0288 -0.6124
   17MOL   C67215744   5.449   6.434   5.082 -0.5215  0.3746  0.1740
   17MOL   O67315745   5.496   6.335   5.141 -0.4692  0.9254 -0.2246
   17MOL   C67415746   5.338   6.515   5.136 -0.3931  0.1017 -0.0211
   17MOL   C67515747   5.280   6.485   5.259 -0.6292  0.2653  0.1046
   17MOL   C67615748   5.183   6.569   5.315  0.4246 -0.2118  0.4177
   17MOL   C67715749   5.137   6.684   5.246  0.4439 -0.1700  0.2462
   17MOL   C67815750   5.035   6.764   5.306 -0.1889 -0.2553  0.3292
   17MOL   O67915751   4.994   6.742   5.421 -0.4609  0.1899  0.1346
   17MOL   O68015752   4.996   6.868   5.233  0.2765  0.1164  0.3050
   17MOL   C68115753   5.201   6.711   5.123 -0.0935 -0.4044 -0.2422
   17MOL   C68215754   5.290   6.626   5.065 -0.6735  0.1079 -0.1562
   17MOL   H68315755   6.317   7.316   5.300  0.2711 -0.8355  2.2525
   17MOL   H68415756   6.398   7.178   5.208  1.0473  1.1545 -0.5446
   17MOL   H68515757   6.179   7.228   5.109 -0.2264 -0.6875 -0.3982
   17MOL   H68615758   6.106   7.192   5.256 -1.2355 -0.0089 -1.2153
   17MOL   H68715759   6.293   6.991   5.105 -0.0744 -0.4021  0.8155
   17MOL   H68815760   6.184   6.946   5.226 -0.0621  1.4173  1.8096
   17MOL   H68915761   6.091   7.038   4.941 -2.9540  1.2983  0.4460
   17MOL   H69015762   5.991   7.039   5.068  0.7728  0.1618  2.3091
   17MOL   H69115763   6.162   6.805   4.968  0.1226 -0.4803  0.3695
   17MOL   H69215764   6.064   6.788   5.111 -0.3125  0.0078  0.5614
   17MOL   H69315765   5.857   6.863   5.009  1.9484  2.6119  0.8526
   17MOL   H69415766   5.938   6.820   4.856 -0.2453 -0.0379  0.5109
   17MOL   H69515767   5.972   6.582   4.948  1.0595  0.1672  2.6905
   17MOL   H69615768   5.910   6.636   5.096  1.5619  1.3636 -0.2360
   17MOL   H69715769   5.687   6.680   4.989  0.5701  0.2310 -0.3603
   17MOL   H69815770   5.762   6.642   4.829 -0.6485  0.1879  0.2443
   17MOL   H69915771   5.768   6.432   5.047 -1.4241 -2.1986 -0.1637
   17MOL   H70015772   5.823   6.423   4.884  0.4682  1.8269 -0.7561
   17MOL   H70115773   5.608   6.304   4.919  1.6255 -0.2041  0.7998
   17MOL   H70215774   5.593   6.438   4.798 -1.2604  2.7228  0.6260
   17MOL   H70315775   5.321   6.403   5.317  0.7090  0.8872  0.0501
   17MOL   H70415776   5.133   6.543   5.407 -1.1142 -1.2248 -0.6804
   17MOL   H70515777   5.177   6.803   5.071  2.1422  0.2749 -0.1001
   17MOL   H70615778   5.335   6.666   4.975  0.8926  0.6833  0.8531
   17MOL   O70715779   4.953   6.988   5.312  0.1956 -0.3888 -0.3551
   17MOL   C70815780   4.818   6.982   5.348  0.0891  0.7128 -0.0787
   17MOL   C70915781   4.787   7.115   5.420 -0.0088 -0.6156 -0.0186
   17MOL   C71015782   4.644   7.110   5.492  0.6455  0.6033  0.2591
   17MOL   C71115783   4.610   7.222   5.581  0.4009 -0.5759 -0.2453
   17MOL   C71215784   4.473   7.205   5.645  0.1481 -0.3095  0.0452
   17MOL   C71315785   4.444   7.313   5.757 -0.0472 -0.5606 -0.3892
   17MOL   C71415786   4.342   7.262   5.864 -0.5871  0.1035 -0.0125
   17MOL   C71515787   4.326   7.362   5.984  1.4727 -0.0561  0.3699
   17MOL   C71615788   4.449   7.361   6.078  0.9797  0.0108 -0.3735
   17MOL   C71715789   4.447   7.466   6.189 -0.0066  0.1654  0.4621
   17MOL   O71815790   4.333   7.457   6.281  0.7486 -0.4167 -0.4403
   17MOL   C71915791   4.333   7.356   6.377 -1.3281 -0.0809  0.3681
   17MOL   O72015792   4.420   7.268   6.390  0.2065 -0.7392 -0.0142
   17MOL   C72115793   4.211   7.362   6.469 -0.5390 -0.4052 -0.0056
   17MOL   C72215794   4.180   7.253   6.563  0.8178 -0.6828 -0.4344
   17MOL   C72315795   4.067   7.262   6.648 -0.1809 -0.0848  0.5702
   17MOL   C72415796   3.980   7.375   6.635 -0.1703 -0.1311  0.4417
   17MOL   C72515797   3.882   7.388   6.742 -0.1334  0.1959  0.4498
   17MOL   O72615798   3.863   7.291   6.818  0.0784  0.0562 -0.2927
   17MOL   O72715799   3.819   7.516   6.741  0.8063 -0.2176  0.4923
   17MOL   C72815800   4.000   7.471   6.534 -0.2569  0.1173  1.2902
   17MOL   C72915801   4.114   7.461   6.457  0.3454 -0.6362  0.2404
   17MOL   H73015802   4.758   6.962   5.259 -1.4061  0.3341  1.0019
   17MOL   H73115803   4.805   6.895   5.412  0.6863  0.4107 -0.3624
   17MOL   H73215804   4.784   7.197   5.349  0.5547  0.3421  1.0579
   17MOL   H73315805   4.868   7.120   5.493 -0.1875  0.4760  0.1114
   17MOL   H73415806   4.559   7.099   5.425  0.4181 -2.7747  1.0156
   17MOL   H73515807   4.641   7.016   5.546  0.7999  0.2155 -0.3988
   17MOL   H73615808   4.617   7.318   5.530 -0.8326 -1.8804 -2.9577
   17MOL   H73715809   4.691   7.220   5.654 -0.6779 -0.6653  0.9725
   17MOL   H73815810   4.390   7.209   5.574 -1.5610 -1.9049  1.8926
   17MOL   H73915811   4.471   7.109   5.697 -0.9258  0.2394  1.0479
   17MOL   H74015812   4.535   7.323   5.816  0.3435  0.1379 -1.1038
   17MOL   H74115813   4.412   7.412   5.726 -2.1673  0.1308  3.7863
   17MOL   H74215814   4.244   7.249   5.819 -0.4367 -0.2326 -0.2437
   17MOL   H74315815   4.380   7.166   5.901  0.7248  1.1085  1.3303
   17MOL   H74415816   4.308   7.465   5.950  0.1738 -0.4978 -0.3196
   17MOL   H74515817   4.239   7.338   6.045  0.3061 -1.6618 -1.8578
   17MOL   H74615818   4.543   7.381   6.028  1.3049  2.7948  1.2236
   17MOL   H74715819   4.467   7.263   6.123 -2.1188 -0.1546  0.6101
   17MOL   H74815820   4.453   7.566   6.147  1.3902  0.3925  1.1762
   17MOL   H74915821   4.539   7.445   6.243  0.2891  0.4326  0.0641
   17MOL   H75015822   4.255   7.179   6.586 -0.2355 -0.6893  3.2612
   17MOL   H75115823   4.051   7.183   6.720  1.8693  0.0484  1.2102
   17MOL   H75215824   3.934   7.554   6.512  1.2733  1.7569  2.6314
   17MOL   H75315825   4.131   7.551   6.398 -0.1696  0.9688  2.4716
   17MOL   O75415826   3.727   7.547   6.850 -0.3259  0.1005  0.2839
   17MOL   C75515827   3.787   7.629   6.946 -0.1233 -0.0311 -0.3711
   17MOL   C75615828   3.683   7.663   7.049  0.5971 -0.5552 -0.0972
   17MOL   C75715829   3.569   7.756   7.015  0.2149  0.1651 -0.2363
   17MOL   C75815830   3.453   7.750   7.117 -0.4554 -0.5141  0.2639
   17MOL   C75915831   3.341   7.849   7.091  0.7811 -0.4984 -0.5805
   17MOL   C76015832   3.228   7.843   7.194 -0.3458  0.0766 -0.1376
   17MOL   C76115833   3.255   7.886   7.341  0.6050  0.4237 -0.5023
   17MOL   C76215834   3.362   0.012   7.359  0.4484 -0.5533  0.0900
   17MOL   C76315835   3.365   0.083   7.497 -0.4462  0.5317  0.9162
   17MOL   C76415836   3.409   7.965   7.612 -0.1174  0.5015 -0.1176
   17MOL   O76515837   3.545   7.930   7.602  0.1441 -0.4235  0.3978
   17MOL   C76615838   3.583   7.806   7.592 -0.4052 -0.1325 -0.2699
   17MOL   O76715839   3.508   7.709   7.584 -0.7280  0.2283  0.0513
   17MOL   C76815840   3.733   7.798   7.596  0.0877 -0.0850 -1.5353
   17MOL   C76915841   3.790   7.667   7.603  0.3767 -0.6947  0.3082
   17MOL   C77015842   3.927   7.647   7.596  0.1626 -0.5948 -0.0944
   17MOL   C77115843   4.014   7.759   7.589  0.5404  0.0727  0.4591
   17MOL   C77215844   4.161   7.734   7.586 -0.2392  0.2386  0.7450
   17MOL   O77315845   4.215   7.628   7.561 -0.0344  0.1308  0.3667
   17MOL   O77415846   4.232   7.847   7.610  1.0057  0.7367 -0.7719
   17MOL   C77515847   3.958   7.891   7.581 -0.2198 -0.4670  0.4624
   17MOL   C77615848   3.819   7.909   7.572  0.4444 -0.0770 -0.7266
   17MOL   H77715849   3.858   7.558   6.989 -0.5941  0.2558  0.9175
   17MOL   H77815850   3.855   7.702   6.903 -0.6847  0.5805 -0.2339
   17MOL   H77915851   3.726   7.707   7.138 -0.0580 -1.3123  0.5981
   17MOL   H78015852   3.636   7.571   7.084  0.2799 -0.2817  0.1975
   17MOL   H78115853   3.604   7.858   6.997 -0.4559 -0.1590 -3.8209
   17MOL   H78215854   3.524   7.723   6.921  0.3372  0.3174 -0.3479
   17MOL   H78315855   3.488   7.756   7.220 -1.2105  0.7471  0.4582
   17MOL   H78415856   3.398   7.655   7.119 -2.1324  0.4502  1.0755
   17MOL   H78515857   3.376   7.951   7.077 -0.2305 -0.2051 -0.9973
   17MOL   H78615858   3.298   7.840   6.992 -0.3692 -1.5061 -0.0063
   17MOL   H78715859   3.149   7.913   7.167  0.2847  1.7549  2.1791
   17MOL   H78815860   3.183   7.744   7.186 -0.2572 -0.1131  1.6290
   17MOL   H78915861   3.162   7.927   7.382  0.6128 -0.5705  0.5272
   17MOL   H79015862   3.288   7.798   7.396  1.1106  2.9143  3.3877
   17MOL   H79115863   3.454   7.935   7.341  0.0765 -0.6807 -1.4952
   17MOL   H79215864   3.348   0.098   7.293  2.5438  0.6475  1.1642
   17MOL   H79315865   3.267   0.126   7.520 -0.5178  2.6822 -2.9688
   17MOL   H79415866   3.445   0.157   7.494  0.9374 -0.9522 -0.4422
   17MOL   H79515867   3.341   7.881   7.596 -1.5246  1.8844 -1.5546
   17MOL   H79615868   3.377   0.017   7.712 -2.7610 -2.0456 -0.1184
   17MOL   H79715869   3.735   7.574   7.600 -0.3334 -0.2618 -0.1870
   17MOL   H79815870   3.977   7.552   7.586 -0.3518 -0.8508 -0.2791
   17MOL   H79915871   4.023   7.978   7.575  0.7807 -1.1863  0.6652
   17MOL   H80015872   3.783   0.033   7.566 -0.6900 -0.2573  2.0074
   17MOL   O80115873   4.382   7.826   7.653  0.0016 -0.1452 -0.2818
   17MOL   C80215874   4.466   7.853   7.541  0.3594 -0.4339  0.2915
   17MOL   C80315875   4.488   0.022   7.528 -0.5082  1.0756 -0.3692
   17MOL   C80415876   4.560   0.054   7.400 -0.0004  0.6034  0.1619
   17MOL   C80515877   4.468   0.065   7.285 -0.8185  0.6635  0.6130
   17MOL   C80615878   4.522   0.142   7.160 -0.3798 -0.1434 -0.5360
   17MOL   C80715879   4.431   0.133   7.040 -0.3607  0.0814 -0.1829
   17MOL   C80815880   4.443   7.978   6.973 -0.0562 -0.3602  0.1384
   17MOL   C80915881   4.366   7.974   6.841  1.5131  0.5227 -0.1486
   17MOL   C81015882   4.368   7.826   6.789 -0.3267  0.3326 -0.8573
   17MOL   C81115883   4.282   7.810   6.664  0.2538 -0.0350  0.0500
   17MOL   O81215884   4.150   7.839   6.700  0.0408 -0.1066  0.0817
   17MOL   C81315885   4.053   7.842   6.613 -0.0483  0.3091  0.1462
   17MOL   O81415886   4.067   7.798   6.498 -0.1600 -0.0777 -0.2772
   17MOL   C81515887   3.921   7.890   6.666  0.8793  0.6346  0.2954
   17MOL   C81615888   3.808   7.823   6.621 -0.0908 -0.1209 -0.3531
   17MOL   C81715889   3.684   7.865   6.653  0.8497 -0.6219  0.2711
   17MOL   C81815890   3.663   7.976   6.730 -0.2933 -0.7106 -0.2505
   17MOL   C81915891   3.519   0.043   6.748 -0.1645 -0.2305  0.3534
   17MOL   O82015892   3.422   7.971   6.692 -0.0016 -0.2740  0.6325
   17MOL   O82115893   3.506   0.142   6.834  0.0512 -0.3591 -0.0193
   17MOL   C82215894   3.776   0.062   6.793 -0.2116 -0.3082  0.4035
   17MOL   C82315895   3.907   0.019   6.762  0.0542 -0.3555  0.6157
   17MOL   H82415896   4.561   7.799   7.547 -0.6326 -2.0998  1.2450
   17MOL   H82515897   4.411   7.822   7.453 -0.3591  1.2999  0.1040
   17MOL   H82615898   4.539   0.062   7.616  1.0401  0.1226 -0.8129
   17MOL   H82715899   4.387   0.060   7.538 -0.6599  0.6796 -0.4014
   17MOL   H82815900   4.609   0.152   7.392  1.4975 -0.2067 -0.9144
   17MOL   H82915901   4.645   7.964   7.392 -0.6113 -0.6293  3.3207
   17MOL   H83015902   4.376   0.115   7.316 -0.8747  1.1722 -0.3438
   17MOL   H83115903   4.428   7.946   7.254  0.4168 -0.1303  1.4590
   17MOL   H83215904   4.530   0.251   7.172 -0.9282  0.0266 -1.6433
   17MOL   H83315905   4.617   0.096   7.134  1.9669  2.6329  2.7115
   17MOL   H83415906   4.330   0.149   7.077 -0.0921 -0.9362  1.0427
   17MOL   H83515907   4.452   0.214   6.970  0.4895 -0.7970 -0.9579
   17MOL   H83615908   4.547   7.951   6.956  0.6661 -0.0140  3.7236
   17MOL   H83715909   4.393   7.907   7.038 -1.4813  0.8077  0.3348
   17MOL   H83815910   4.266   0.040   6.850  1.5313  0.7345 -0.9208
   17MOL   H83915911   4.400   0.068   6.766  0.5362  1.4391  0.2713
   17MOL   H84015912   4.330   7.759   6.867  1.6858  0.3023  0.1185
   17MOL   H84115913   4.472   7.801   6.766  0.1171  0.2319  1.2088
   17MOL   H84215914   4.286   7.728   6.592  0.7818  0.5848 -0.6392
   17MOL   H84315915   4.310   7.888   6.593 -1.0132 -1.6841 -2.3610
   17MOL   H84415916   3.826   7.739   6.555 -1.0247 -2.9029  2.7984
   17MOL   H84515917   3.604   7.810   6.606  2.2259 -1.5255 -1.0514
   17MOL   H84615918   3.752   0.150   6.851  1.3684 -0.6410  1.5903
   17MOL   H84715919   3.991   0.072   6.804 -1.5811  1.3083  1.8418
   17MOL   O84815920   3.362   0.149   6.891 -0.2032  0.0618  0.6376
   17MOL   C84915921   3.304   0.272   6.843  0.9551 -0.6930 -0.0571
   17MOL   C85015922   3.191   0.323   6.942  0.9817 -0.5277 -0.1051
   17MOL   C85115923   3.155   0.472   6.932  0.2172 -0.2009 -0.7541
   17MOL   C85215924   3.044   0.514   7.037  0.4280 -0.0428  0.0996
   17MOL   C85315925   3.029   0.660   7.079 -1.1932  0.0430 -0.2615
   17MOL   C85415926   2.936   0.668   7.193  0.1178  0.4504 -0.1562
   17MOL   C85515927   2.898   0.804   7.238  0.0837 -0.0778  0.0131
   17MOL   C85615928   2.825   0.805   7.378  0.4413  0.5496  0.2118
   17MOL   C85715929   2.799   0.942   7.422 -0.2496 -0.5217 -0.3326
   17MOL   C85815930   2.751   0.936   7.565  0.0377  0.4199  0.6033
   17MOL   O85915931   2.718   1.064   7.628 -0.3510 -0.0885  0.0696
   17MOL   C86015932   2.606   1.079   7.687 -0.0724  0.4119  0.7661
   17MOL   O86115933   2.506   1.014   7.664  0.0176  0.0780  0.6895
   17MOL   C86215934   2.605   1.192   7.786  0.1209 -0.6273 -0.1122
   17MOL   C86315935   2.492   1.222   7.862 -0.4136 -0.6053  0.3093
   17MOL   C86415936   2.488   1.336   7.946 -0.3130 -0.5330 -0.0255
   17MOL   C86515937   2.593   1.430   7.951 -1.0594 -0.2239  0.8693
   17MOL   C86615938   2.579   1.561   0.047 -0.3326 -0.5196  0.4250
   17MOL   O86715939   2.474   1.602   0.094  0.7590 -0.2070 -0.2546
   17MOL   O86815940   2.693   1.621   0.062 -0.0366  0.0127 -0.2382
   17MOL   C86915941   2.709   1.395   7.882  0.2997 -0.0417  0.3702
   17MOL   C87015942   2.721   1.279   7.801  0.3026 -0.1426 -0.3407
   17MOL   H87115943   3.384   0.346   6.843 -0.2435  0.6360  0.5661
   17MOL   H87215944   3.272   0.269   6.739  0.3791  1.9228 -0.0056
   17MOL   H87315945   3.219   0.301   7.045  0.8071 -1.3340 -0.2294
   17MOL   H87415946   3.105   0.258   6.927  1.6911 -1.2828 -1.0047
   17MOL   H87515947   3.239   0.541   6.939  1.8888 -2.4409  2.2791
   17MOL   H87615948   3.114   0.482   6.832  2.0588  0.8912 -1.4211
   17MOL   H87715949   3.070   0.460   7.128 -0.6269  0.5711  0.7788
   17MOL   H87815950   2.946   0.478   7.005  0.9182 -0.0025 -1.4482
   17MOL   H87915951   3.131   0.699   7.089 -0.3274 -2.0281 -0.6896
   17MOL   H88015952   2.997   0.719   6.994 -0.7255 -0.1450 -0.5707
   17MOL   H88115953   2.843   0.622   7.159  0.2826  0.6534 -0.8862
   17MOL   H88215954   2.972   0.606   7.275  0.5053 -0.6698 -1.1665
   17MOL   H88315955   2.975   0.880   7.247  0.7872 -0.8276  0.4075
   17MOL   H88415956   2.835   0.846   7.160 -0.3643 -2.6907 -1.0874
   17MOL   H88515957   2.734   0.746   7.382 -0.0124  1.3221  2.1614
   17MOL   H88615958   2.888   0.763   7.457 -0.6030 -2.1653 -0.3227
   17MOL   H88715959   2.710   0.983   7.374 -0.7188  0.7343  1.5563
   17MOL   H88815960   2.884   1.008   7.405  1.7837 -2.0215  3.4937
   17MOL   H88915961   2.829   0.895   7.630  0.3988 -0.0398 -0.1131
   17MOL   H89015962   2.670   0.863   7.566  1.5162 -1.3232 -1.7939
   17MOL   H89115963   2.402   1.164   7.846  0.6362 -1.8175 -1.3651
   17MOL   H89215964   2.403   1.356   0.031 -0.6582 -0.3119 -0.5516
   17MOL   H89315965   2.789   1.466   7.899 -0.4916  0.8861  0.2400
   17MOL   H89415966   2.817   1.253   7.759 -0.4587 -0.4860 -1.8799
   17MOL   O89515967   2.679   1.727   0.159 -0.1299 -0.5218 -0.0844
   17MOL   C89615968   2.722   1.686   0.284  0.2269  0.2570  0.4685
   17MOL   C89715969   2.730   1.808   0.379  0.4214  0.3743 -0.7388
   17MOL   C89815970   2.593   1.882   0.397 -0.3861 -0.9654 -0.3595
   17MOL   C89915971   2.609   2.017   0.468  0.3842  1.2649  0.1029
   17MOL   C90015972   2.669   2.013   0.612 -0.7681  0.2126 -0.1002
   17MOL   C90115973   2.609   1.912   0.716  0.6950  0.1243 -0.1024
   17MOL   C90215974   2.704   1.807   0.785 -0.2481 -0.3699  0.2625
   17MOL   C90315975   2.633   1.689   0.850  0.3108 -0.9954  0.8796
   17MOL   C90415976   2.600   1.568   0.755  0.7499 -0.7240  0.1715
   17MOL   C90515977   2.726   1.511   0.687 -0.5169 -0.0685  0.3557
   17MOL   O90615978   2.705   1.412   0.589  0.7876 -0.1451 -0.2901
   17MOL   C90715979   2.719   1.277   0.624 -0.3568  0.5236  0.2992
   17MOL   O90815980   2.743   1.231   0.734  0.0943 -0.1404 -0.1953
   17MOL   C90915981   2.714   1.192   0.503 -1.1122 -0.4018 -0.9395
   17MOL   C91015982   2.718   1.252   0.379 -0.1799 -0.6015 -0.0889
   17MOL   C91115983   2.712   1.179   0.259  0.3747  0.6452  0.0965
   17MOL   C91215984   2.711   1.042   0.261 -0.1618 -0.3064  0.2481
   17MOL   C91315985   2.712   0.961   0.133 -0.0204  0.5054  0.1052
   17MOL   O91415986   2.701   1.014   0.019  0.2252 -0.3355 -0.2472
   17MOL   O91515987   2.724   0.827   0.147  0.6965  0.2456 -0.9335
   17MOL   C91615988   2.714   0.976   0.387  0.3547 -0.4420  0.1444
   17MOL   C91715989   2.698   1.049   0.511  0.1487 -0.9106  0.8189
   17MOL   H91815990   2.662   1.609   0.332 -0.6147  1.0981  0.7714
   17MOL   H91915991   2.821   1.640   0.271 -0.0945  0.2417 -2.2618
   17MOL   H92015992   2.803   1.880   0.343  0.7691  0.0212 -0.7376
   17MOL   H92115993   2.757   1.769   0.477 -2.0954  0.6221  0.0867
   17MOL   H92215994   2.545   1.900   0.301  0.2201 -0.0459 -0.4920
   17MOL   H92315995   2.527   1.814   0.452 -2.2221  0.4176 -0.7822
   17MOL   H92415996   2.513   2.069   0.471 -0.3276 -0.0409  0.7683
   17MOL   H92515997   2.670   2.083   0.407  2.8206 -1.1915 -0.2083
   17MOL   H92615998   2.775   1.991   0.602 -0.9463 -1.1964  0.9081
   17MOL   H92715999   2.659   2.117   0.642 -0.8524  0.9091 -2.4634
   17MOL   H92816000   2.566   1.973   0.795  2.0637  0.4799  0.3802
   17MOL   H92916001   2.536   1.843   0.671 -0.1666  1.3007 -0.5409
   17MOL   H93016002   2.777   1.773   0.712 -0.5829 -0.0130 -0.2472
   17MOL   H93116003   2.753   1.860   0.866 -1.7263  0.4034  0.6722
   17MOL   H93216004   2.685   1.647   0.936 -1.5470 -0.5506  2.2456
   17MOL   H93316005   2.537   1.728   0.884  0.1863 -0.1164 -0.4279
   17MOL   H93416006   2.528   1.596   0.677  1.0668  2.3501  0.8859
   17MOL   H93516007   2.551   1.490   0.812  0.9328  0.5104  2.0694
   17MOL   H93616008   2.802   1.482   0.760  0.7930 -0.1767 -1.0132
   17MOL   H93716009   2.775   1.599   0.647  0.1149 -0.5064  0.1477
   17MOL   H93816010   2.718   1.360   0.369  0.4365 -0.7306 -1.6469
   17MOL   H93916011   2.723   1.224   0.161 -0.5748  0.3243 -0.1571
   17MOL   H94016012   2.716   0.868   0.391 -0.3694 -0.4524  0.2163
   17MOL   H94116013   2.697   0.993   0.604 -3.5965 -1.2109  0.6732
   17MOL   H94216014   2.717   0.776   0.068 -0.6060  1.3730 -1.5666
   18MOL     O116015   2.764   0.440   6.238  0.2330 -0.4361 -0.3190
   18MOL     C216016   2.768   0.562   6.163 -0.2906  0.2254  0.0610
   18MOL     C316017   2.630   0.639   6.177 -0.6148  0.3874  0.0107
   18MOL     C416018   2.598   0.693   6.318 -0.6677 -0.2709 -0.3984
   18MOL     C516019   2.455   0.747   6.315 -0.3940 -0.3692  0.1201
   18MOL     C616020   2.411   0.850   6.206  0.1828  0.1893  0.1031
   18MOL     C716021   2.436   0.999   6.236 -0.4776 -0.0507  1.0018
   18MOL     C816022   2.385   1.090   6.121 -0.1984 -0.1570  0.6221
   18MOL     C916023   2.393   1.245   6.152 -0.1809  0.9207 -0.1926
   18MOL    C1016024   2.316   1.337   6.058  0.0569 -0.2173  0.4847
   18MOL    C1116025   2.169   1.331   6.084 -0.6404  0.3776  0.1877
   18MOL    O1216026   2.098   1.427   6.007 -0.1452 -0.0375  0.1200
   18MOL    C1316027   2.079   1.409   5.869 -0.4603 -0.5355 -0.2408
   18MOL    O1416028   2.134   1.310   5.809 -0.0741  0.5250  0.3145
   18MOL    C1516029   1.992   1.517   5.806 -0.0556 -0.0283  0.5967
   18MOL    C1616030   1.970   1.517   5.666 -0.0356  0.1265 -0.2414
   18MOL    C1716031   1.883   1.609   5.603 -0.3344  0.2277  0.2668
   18MOL    C1816032   1.816   1.701   5.684 -0.0306 -0.2845  0.1079
   18MOL    C1916033   1.716   1.799   5.633  0.1767  0.1129 -0.3826
   18MOL    O2016034   1.629   1.856   5.706 -0.2653  0.3025 -0.4017
   18MOL    O2116035   1.714   1.806   5.504 -0.0584 -0.2643  0.4999
   18MOL    C2216036   1.841   1.704   5.825  0.5573 -0.0678  0.2107
   18MOL    C2316037   1.930   1.615   5.886 -0.4853  0.3524  0.1943
   18MOL    H2416038   2.860   0.614   6.190 -0.1881  1.1550 -2.0416
   18MOL    H2516039   2.789   0.523   6.064  1.9048  1.2425  0.0984
   18MOL    H2616040   2.547   0.582   6.134 -0.1514  0.7139 -1.3112
   18MOL    H2716041   2.637   0.720   6.106 -1.2493  0.7344  0.3393
   18MOL    H2816042   2.603   0.610   6.389  1.2594  0.8961  0.8766
   18MOL    H2916043   2.660   0.776   6.352 -2.5369  0.4050  1.4617
   18MOL    H3016044   2.421   0.778   6.414  1.1641  1.0418  0.2380
   18MOL    H3116045   2.390   0.664   6.289 -0.1936 -0.3240 -0.5336
   18MOL    H3216046   2.448   0.825   6.106 -0.7994  1.4286 -0.5922
   18MOL    H3316047   2.304   0.832   6.201  0.0714  1.0962 -1.2039
   18MOL    H3416048   2.388   1.036   6.326  1.5861 -0.2427  2.2152
   18MOL    H3516049   2.543   1.014   6.251 -0.3099  0.4057 -0.5540
   18MOL    H3616050   2.441   1.068   6.031  0.3816  2.8581  0.1938
   18MOL    H3716051   2.282   1.054   6.107 -0.3415  0.8741 -1.0995
   18MOL    H3816052   2.371   1.265   6.257 -0.6562  1.1533 -0.3347
   18MOL    H3916053   2.497   1.275   6.147 -0.1040  0.5300 -0.9068
   18MOL    H4016054   2.337   1.294   5.959 -0.6064  1.0703 -0.2328
   18MOL    H4116055   2.366   1.434   6.068 -1.8777  0.8476  0.0429
   18MOL    H4216056   2.150   1.358   6.188  0.9512 -0.7578  0.7716
   18MOL    H4316057   2.125   1.233   6.069 -2.0598  1.3846 -2.8032
   18MOL    H4416058   2.016   1.441   5.605  2.5620  3.1220 -2.1913
   18MOL    H4516059   1.870   1.602   5.496  1.3336 -0.8457  0.1002
   18MOL    H4616060   1.784   1.764   5.893 -0.2598 -0.5196 -0.0622
   18MOL    H4716061   1.940   1.617   5.993 -0.6616 -2.1496  0.3016
   18MOL    H4816062   2.681   0.394   6.234  1.4118 -2.5793 -1.4381
   18MOL    O4916063   1.611   1.900   5.451 -0.4582 -0.3268 -0.2379
   18MOL    C5016064   1.515   1.831   5.369 -0.8685 -0.3032 -0.0404
   18MOL    C5116065   1.383   1.799   5.454  0.2803  1.0115  0.8286
   18MOL    C5216066   1.254   1.782   5.365 -0.0852  0.0796  0.6825
   18MOL    C5316067   1.274   1.656   5.280  0.3151  0.2925  0.6335
   18MOL    C5416068   1.156   1.647   5.177 -0.4990 -0.3561 -0.1822
   18MOL    C5516069   1.149   1.513   5.108 -0.8317  0.3956 -0.0783
   18MOL    C5616070   1.054   1.486   4.992 -0.0501  0.1371  0.4997
   18MOL    C5716071   1.094   1.534   4.846 -0.6773 -0.2369 -0.4230
   18MOL    C5816072   1.103   1.687   4.823  0.6818  0.7313  0.5058
   18MOL    C5916073   1.149   1.718   4.682  0.2211  0.3747  0.3466
   18MOL    O6016074   1.257   1.636   4.646  0.3916 -0.1230 -0.1872
   18MOL    C6116075   1.305   1.641   4.521  0.2531 -0.0836  0.0678
   18MOL    O6216076   1.237   1.675   4.424  0.4204 -0.0270  0.4265
   18MOL    C6316077   1.432   1.556   4.501 -0.7070 -0.4684 -0.1479
   18MOL    C6416078   1.512   1.595   4.391  0.3476 -0.0452 -0.0252
   18MOL    C6516079   1.641   1.539   4.381 -0.0150  0.0010 -0.8410
   18MOL    C6616080   1.689   1.453   4.484 -0.5683 -0.0207 -0.2681
   18MOL    C6716081   1.824   1.394   4.478 -0.0854  0.5529  0.0189
   18MOL    O6816082   1.863   1.287   4.531  0.0611 -0.3592  0.5375
   18MOL    O6916083   1.914   1.480   4.428  0.3402 -0.2012  0.0195
   18MOL    C7016084   1.610   1.420   4.597  0.3096  0.4575  1.0671
   18MOL    C7116085   1.479   1.474   4.608 -0.1726 -0.5242  0.3857
   18MOL    H7216086   1.504   1.901   5.287  2.1036  0.4806  0.1814
   18MOL    H7316087   1.557   1.740   5.325 -0.2350  1.2141 -2.6544
   18MOL    H7416088   1.369   1.888   5.515  0.1896  0.2993  1.8555
   18MOL    H7516089   1.406   1.714   5.518 -0.8746  0.5861  0.6740
   18MOL    H7616090   1.171   1.768   5.435 -1.6028  0.8303 -0.9261
   18MOL    H7716091   1.222   1.870   5.309 -0.9374 -0.6168  0.0605
   18MOL    H7816092   1.257   1.576   5.353  1.8936 -1.0621 -0.4398
   18MOL    H7916093   1.372   1.644   5.235  0.0649  1.0440 -0.1174
   18MOL    H8016094   1.062   1.654   5.232 -0.7065 -2.0474 -0.3181
   18MOL    H8116095   1.146   1.730   5.106 -1.1076  1.0337  1.4991
   18MOL    H8216096   1.241   1.496   5.053 -1.1128  1.7198 -0.9802
   18MOL    H8316097   1.145   1.432   5.181  1.3579 -1.4776 -1.9677
   18MOL    H8416098   1.047   1.377   4.999  0.6573  0.0234 -0.4802
   18MOL    H8516099   0.953   1.525   5.006 -0.9729 -1.7076 -0.7492
   18MOL    H8616100   1.192   1.489   4.830  0.8223  2.8354 -0.2086
   18MOL    H8716101   1.033   1.498   4.764  1.9429 -0.5929 -2.2983
   18MOL    H8816102   1.181   1.726   4.888  0.2058 -0.1522  1.6141
   18MOL    H8916103   1.015   1.730   4.869 -0.0548 -2.0964  1.8676
   18MOL    H9016104   1.160   1.825   4.667 -0.5365  0.5489  1.0129
   18MOL    H9116105   1.062   1.689   4.623 -0.0160 -1.7349  1.6838
   18MOL    H9216106   1.474   1.660   4.313  0.6611  0.6730  0.4134
   18MOL    H9316107   1.704   1.567   4.298 -1.5494  1.8340 -1.4025
   18MOL    H9416108   1.651   1.358   4.675  1.7350  0.2965  0.2026
   18MOL    H9516109   1.417   1.445   4.691  0.1624  0.9338  1.1550
   18MOL    O9616110   2.054   1.414   4.404 -0.0920 -0.0130 -0.0367
   18MOL    C9716111   2.132   1.423   4.521 -0.0866 -0.5725 -0.1498
   18MOL    C9816112   2.232   1.306   4.538 -0.2594 -0.3417  0.2736
   18MOL    C9916113   2.168   1.166   4.522 -0.3044 -0.6260  0.0523
   18MOL   C10016114   2.265   1.050   4.549  0.2070 -0.1320  0.5866
   18MOL   C10116115   2.368   1.023   4.438 -0.2297 -0.3886  0.3428
   18MOL   C10216116   2.477   0.927   4.480  0.5596 -0.3046 -0.9099
   18MOL   C10316117   2.572   0.972   4.603 -0.0780  0.8363  0.5491
   18MOL   C10416118   2.619   1.116   4.589  0.8338  0.4784  0.3259
   18MOL   C10516119   2.728   1.144   4.696  0.4315 -0.1295 -0.0416
   18MOL   C10616120   2.718   1.289   4.737  0.3025  0.7994  0.2214
   18MOL   O10716121   2.606   1.314   4.818 -0.5811 -0.0939 -0.0828
   18MOL   C10816122   2.604   1.292   4.954 -0.3466  0.7000 -0.6110
   18MOL   O10916123   2.704   1.258   5.018 -0.0464  0.2589 -0.1436
   18MOL   C11016124   2.472   1.311   5.020 -0.6474  0.3547  0.1857
   18MOL   C11116125   2.459   1.244   5.142  0.1593  0.4888  0.8590
   18MOL   C11216126   2.342   1.250   5.225 -0.7160  0.0611 -0.3631
   18MOL   C11316127   2.238   1.327   5.176  0.3077 -0.5798 -0.0259
   18MOL   C11416128   2.111   1.335   5.257 -0.4743 -0.0467  0.3004
   18MOL   O11516129   2.070   1.255   5.349 -0.1372  0.0060 -0.1493
   18MOL   O11616130   2.021   1.419   5.214  0.0902 -0.2038 -0.0784
   18MOL   C11716131   2.247   1.397   5.053 -0.5717  0.2506 -0.1708
   18MOL   C11816132   2.367   1.398   4.976  0.6991 -0.7584 -0.3715
   18MOL   H11916133   2.193   1.512   4.503 -1.9956  0.9169  0.6177
   18MOL   H12016134   2.071   1.447   4.609  1.4605  0.7019  0.6075
   18MOL   H12116135   2.281   1.316   4.635  0.6712  0.2192 -0.2386
   18MOL   H12216136   2.309   1.310   4.460 -0.3478 -0.6414  0.1680
   18MOL   H12316137   2.096   1.167   4.603 -0.3246  1.8980  0.0496
   18MOL   H12416138   2.109   1.153   4.431  0.3411  1.9970 -0.7956
   18MOL   H12516139   2.202   0.965   4.573  0.7293 -0.2821  1.4388
   18MOL   H12616140   2.328   1.070   4.636  0.9511 -3.2780  0.8311
   18MOL   H12716141   2.312   0.980   4.354 -0.5585  0.2024  0.2549
   18MOL   H12816142   2.412   1.115   4.397 -0.5168 -0.6387 -0.5351
   18MOL   H12916143   2.426   0.836   4.512 -0.8706  0.6496 -0.4063
   18MOL   H13016144   2.545   0.888   4.405 -0.9204 -1.1848 -1.8274
   18MOL   H13116145   2.529   0.959   4.702  0.4769  0.7126  0.7780
   18MOL   H13216146   2.661   0.909   4.593 -0.2603  0.7431 -0.5910
   18MOL   H13316147   2.644   1.129   4.483 -0.1474  0.3292  0.0715
   18MOL   H13416148   2.529   1.178   4.596 -0.0430 -0.4742 -1.9050
   18MOL   H13516149   2.827   1.124   4.655  0.8085 -0.4556  1.0141
   18MOL   H13616150   2.717   1.072   4.777 -2.1806  0.8974  0.5649
   18MOL   H13716151   2.703   1.341   4.642 -1.3675 -0.8323 -0.4269
   18MOL   H13816152   2.809   1.321   4.788  0.7458  0.2693 -0.2493
   18MOL   H13916153   2.542   1.188   5.182 -0.2090 -0.0494  0.8712
   18MOL   H14016154   2.341   1.184   5.311  0.8910  0.4267 -0.0462
   18MOL   H14116155   2.165   1.452   5.011  0.3577 -0.0845 -2.5472
   18MOL   H14216156   2.384   1.439   4.877 -1.9459 -1.5043 -1.1813
   18MOL   O14316157   1.892   1.437   5.295 -0.0116 -0.6534  0.6137
   18MOL   C14416158   1.801   1.340   5.255  0.7922 -0.3620  0.3268
   18MOL   C14516159   1.743   1.365   5.113 -0.1256 -1.3327  0.1156
   18MOL   C14616160   1.697   1.507   5.076 -0.4793  0.6737  0.2772
   18MOL   C14716161   1.688   1.520   4.925  0.2590  0.3472 -0.2147
   18MOL   C14816162   1.633   1.662   4.882  0.5906 -0.2211  0.3116
   18MOL   C14916163   1.497   1.708   4.932 -0.1663  0.5122  0.3543
   18MOL   C15016164   1.435   1.832   4.863 -0.4668  0.1123  0.8359
   18MOL   C15116165   1.508   1.968   4.866  0.2756  0.3375  0.6130
   18MOL   C15216166   1.623   1.988   4.759  0.0246 -0.6687  0.5460
   18MOL   C15316167   1.688   2.123   4.785 -0.6467 -0.1274  0.5632
   18MOL   O15416168   1.742   2.130   4.921 -0.1563 -0.1421 -0.0657
   18MOL   C15516169   1.797   2.238   4.967  0.4713  0.2828 -0.0856
   18MOL   O15616170   1.817   2.339   4.897 -0.1515  0.2877 -0.3801
   18MOL   C15716171   1.844   2.227   5.107 -0.0783  0.1980 -0.7478
   18MOL   C15816172   1.924   2.335   5.156 -0.4476  0.4308 -0.5451
   18MOL   C15916173   1.977   2.324   5.290 -0.0687  0.1592  0.0941
   18MOL   C16016174   1.952   2.208   5.368  0.8928  0.3454 -0.3877
   18MOL   C16116175   2.005   2.196   5.509  0.7493 -0.0437 -0.1191
   18MOL   O16216176   2.077   2.281   5.553 -0.2710 -0.5259 -0.6834
   18MOL   O16316177   1.967   2.076   5.575 -0.3994  0.3794  0.1087
   18MOL   C16416178   1.863   2.108   5.321  0.4749  0.1053 -0.3352
   18MOL   C16516179   1.812   2.119   5.191 -1.0069  1.2401 -0.1257
   18MOL   H16616180   1.820   1.236   5.282  0.0158 -0.8063 -0.8164
   18MOL   H16716181   1.716   1.353   5.323 -0.5476 -2.0458 -1.0010
   18MOL   H16816182   1.656   1.302   5.096 -0.7710 -0.1002 -1.2575
   18MOL   H16916183   1.814   1.328   5.039  0.5176 -0.9132  0.5219
   18MOL   H17016184   1.604   1.529   5.128 -0.3621  0.5803  0.5278
   18MOL   H17116185   1.776   1.576   5.105  1.9539 -2.1764  0.6948
   18MOL   H17216186   1.620   1.438   4.901  2.9675 -1.0022 -3.6956
   18MOL   H17316187   1.778   1.492   4.871  0.0189 -2.2660  0.6658
   18MOL   H17416188   1.707   1.729   4.924  1.0794 -0.3857 -0.2725
   18MOL   H17516189   1.633   1.657   4.773 -0.1249 -3.9594  0.4123
   18MOL   H17616190   1.429   1.626   4.911  0.3033  0.2700 -0.2479
   18MOL   H17716191   1.490   1.716   5.041 -0.0627  2.4640  0.2394
   18MOL   H17816192   1.420   1.812   4.756 -1.2135 -2.3467  1.3627
   18MOL   H17916193   1.339   1.861   4.907 -0.6704  1.2846 -0.3391
   18MOL   H18016194   1.444   2.056   4.861  1.1039  0.9898  1.3940
   18MOL   H18116195   1.558   1.967   4.963 -2.0687 -2.7450  1.8662
   18MOL   H18216196   1.578   1.985   4.660  0.3826 -1.4426  0.3923
   18MOL   H18316197   1.703   1.914   4.746  0.3983 -0.0971 -0.5095
   18MOL   H18416198   1.614   2.202   4.769 -1.0078 -0.3108  1.3045
   18MOL   H18516199   1.769   2.143   4.715 -0.9614 -0.0545  0.2217
   18MOL   H18616200   1.960   2.419   5.100  0.9499  0.2295  0.0356
   18MOL   H18716201   2.029   2.407   5.335 -1.9854  1.9460 -0.9136
   18MOL   H18816202   1.843   2.021   5.381 -0.0405 -0.1553 -0.8779
   18MOL   H18916203   1.752   2.036   5.157  1.8635 -2.2638  2.8695
   18MOL   O19016204   2.043   2.061   5.701 -0.0717  0.2069 -0.3814
   18MOL   C19116205   1.964   2.102   5.804 -0.9944  0.8032  0.5799
   18MOL   C19216206   2.032   2.090   5.939  0.0394 -0.0372 -0.6209
   18MOL   C19316207   2.040   1.948   5.988 -0.1898 -0.0544 -0.1845
   18MOL   C19416208   2.138   1.939   6.105 -0.1859 -0.1380 -0.1823
   18MOL   C19516209   2.163   1.793   6.148 -0.1931  0.2333 -0.0261
   18MOL   C19616210   2.256   1.778   6.269 -0.2989  0.3118 -0.2684
   18MOL   C19716211   2.226   1.638   6.322 -0.3596 -1.0281 -0.1649
   18MOL   C19816212   2.309   1.615   6.452 -0.8067 -1.1138  0.2154
   18MOL   C19916213   2.259   1.498   6.543  0.5301 -0.2761  0.5058
   18MOL   C20016214   2.328   1.496   6.682  0.6927  0.4930  0.1694
   18MOL   O20116215   2.258   1.423   6.784 -0.0702 -0.2087  0.1219
   18MOL   C20216216   2.233   1.480   6.912 -0.4851 -0.5268  0.4346
   18MOL   O20316217   2.251   1.598   6.938 -0.3741  0.0271 -0.3237
   18MOL   C20416218   2.151   1.392   7.004  0.5034  0.0840 -0.4992
   18MOL   C20516219   2.088   1.444   7.120  0.6633 -0.5009  0.3035
   18MOL   C20616220   2.008   1.354   7.200 -0.7542 -0.0575  0.2891
   18MOL   C20716221   1.994   1.220   7.166  0.4101  0.0890 -0.7728
   18MOL   C20816222   1.901   1.136   7.252 -0.8350  0.4816  0.4573
   18MOL   O20916223   1.835   1.175   7.352  0.7955  0.0977  0.3861
   18MOL   O21016224   1.896   1.006   7.206 -0.1958  0.4044 -0.3254
   18MOL   C21116225   2.056   1.163   7.051  0.2058  0.3486  0.2110
   18MOL   C21216226   2.129   1.255   6.970 -0.0766 -0.1819  0.5142
   18MOL   H21316227   1.952   2.211   5.799  2.0079  1.1539  0.3425
   18MOL   H21416228   1.865   2.057   5.797  0.4298 -2.7054  2.1046
   18MOL   H21516229   1.999   2.167   6.008 -1.2930 -1.8153  0.7877
   18MOL   H21616230   2.137   2.113   5.921  0.5083 -0.9816  0.8085
   18MOL   H21716231   1.943   1.917   6.027  1.2492  0.5033  4.1215
   18MOL   H21816232   2.071   1.882   5.907  0.1555  2.1421 -1.8858
   18MOL   H21916233   2.095   2.009   6.177  1.4950  0.4952  0.2198
   18MOL   H22016234   2.235   1.981   6.081 -0.0962  0.4880  1.2093
   18MOL   H22116235   2.063   1.756   6.174  0.0883  0.1085  0.9126
   18MOL   H22216236   2.209   1.728   6.075  1.4973 -1.3477  2.3994
   18MOL   H22316237   2.362   1.792   6.249 -0.0679  0.4643  1.0322
   18MOL   H22416238   2.231   1.848   6.349 -0.5090  0.9650 -0.9031
   18MOL   H22516239   2.127   1.646   6.368 -1.9660  1.2996 -3.8299
   18MOL   H22616240   2.244   1.565   6.244 -1.4942 -1.0000 -0.4700
   18MOL   H22716241   2.396   1.569   6.405 -0.0071  2.0703 -1.6083
   18MOL   H22816242   2.358   1.700   6.501 -0.5470 -1.3213  0.3186
   18MOL   H22916243   2.278   1.401   6.497 -0.2699 -0.8936  1.4612
   18MOL   H23016244   2.152   1.515   6.555  0.6942 -0.3791  2.2436
   18MOL   H23116245   2.325   1.603   6.705 -1.4610  0.0234  2.2902
   18MOL   H23216246   2.430   1.458   6.683  0.7435  0.6312  0.9408
   18MOL   H23316247   2.085   1.551   7.132 -0.9984 -0.1268 -2.7758
   18MOL   H23416248   1.966   1.398   7.289  0.0455  0.1023  0.5992
   18MOL   H23516249   2.043   1.060   7.022  0.0389  0.6006 -0.6133
   18MOL   H23616250   2.170   1.218   6.878 -1.6751  0.3396 -0.4199
   18MOL   O23716251   1.793   0.918   7.277  0.2382 -0.4969  0.2513
   18MOL   C23816252   1.681   0.906   7.192  0.7446  0.2569  0.2711
   18MOL   C23916253   1.556   0.877   7.282 -0.0365 -0.6782 -0.2072
   18MOL   C24016254   1.423   0.894   7.200  0.3723 -0.2465  0.1335
   18MOL   C24116255   1.372   1.040   7.190  0.5248 -1.2959 -0.5247
   18MOL   C24216256   1.249   1.058   7.100 -0.0830  0.9827 -0.5740
   18MOL   C24316257   1.278   1.068   6.954 -0.6064 -1.0422  0.5641
   18MOL   C24416258   1.164   1.039   6.861 -0.9155 -0.0952 -0.4976
   18MOL   C24516259   1.158   1.137   6.739  0.2720 -0.0220 -0.5803
   18MOL   C24616260   1.018   1.127   6.666 -0.3376 -0.0239 -0.3129
   18MOL   C24716261   1.018   1.223   6.548  0.2120  0.6687  0.5380
   18MOL   O24816262   1.072   1.154   6.439  0.4219  0.0251 -0.4531
   18MOL   C24916263   1.136   1.215   6.340  0.2828  0.0186 -0.2724
   18MOL   O25016264   1.169   1.336   6.343 -0.1477 -0.1640 -0.2944
   18MOL   C25116265   1.156   1.131   6.225  0.1778 -0.4641  0.0862
   18MOL   C25216266   1.249   1.171   6.132  0.3752 -0.6065 -0.3426
   18MOL   C25316267   1.271   1.083   6.017 -0.3370 -0.5350  0.3700
   18MOL   C25416268   1.193   0.975   5.974 -0.1399 -0.1289  0.3862
   18MOL   C25516269   1.223   0.911   5.843 -0.3159 -0.3664 -0.1557
   18MOL   O25616270   1.316   0.950   5.772 -0.6201  0.4266 -0.0553
   18MOL   O25716271   1.140   0.812   5.806  0.0911  0.3263 -0.2714
   18MOL   C25816272   1.102   0.938   6.078 -0.2557 -0.7456 -0.5174
   18MOL   C25916273   1.083   1.009   6.196 -0.3889 -0.0568 -0.0072
   18MOL   H26016274   1.658   1.004   7.149 -0.6356 -1.2551 -2.5897
   18MOL   H26116275   1.698   0.824   7.123  1.0777 -0.1895  0.8762
   18MOL   H26216276   1.569   0.950   7.362  0.6853  0.7890 -1.6456
   18MOL   H26316277   1.561   0.774   7.319 -0.0621 -0.2062  1.1438
   18MOL   H26416278   1.445   0.856   7.100 -0.6690  3.6383 -1.6750
   18MOL   H26516279   1.349   0.827   7.244 -0.4247  0.1641 -0.5669
   18MOL   H26616280   1.450   1.115   7.176  0.3015 -0.6034  1.6633
   18MOL   H26716281   1.339   1.073   7.289  0.3057 -0.7124 -0.7898
   18MOL   H26816282   1.177   0.976   7.115  0.0817  0.9944  0.2651
   18MOL   H26916283   1.193   1.148   7.126  1.4809  1.5228  0.9295
   18MOL   H27016284   1.311   1.171   6.937  1.6534 -1.7761  0.3386
   18MOL   H27116285   1.365   1.004   6.938 -0.7882 -0.7837 -1.6363
   18MOL   H27216286   1.149   0.935   6.833 -2.8237  0.6057 -2.2695
   18MOL   H27316287   1.076   1.064   6.920  0.4999  0.1562  1.5390
   18MOL   H27416288   1.181   1.239   6.771  0.1602 -0.5384  1.2059
   18MOL   H27516289   1.233   1.120   6.662  1.4307  1.6464  0.1372
   18MOL   H27616290   0.929   1.149   6.726  0.1358 -0.5736  0.6071
   18MOL   H27716291   0.997   1.023   6.643  1.3886 -0.4188 -0.1317
   18MOL   H27816292   1.070   1.313   6.582 -1.0082  1.1512  1.1686
   18MOL   H27916293   0.919   1.257   6.521 -0.9967 -1.7910  1.7115
   18MOL   H28016294   1.318   1.247   6.165 -0.6731  0.1590  0.1359
   18MOL   H28116295   1.355   1.125   5.963 -0.3096 -0.1003  0.7493
   18MOL   H28216296   1.038   0.853   6.066 -0.8348 -0.2346 -1.0482
   18MOL   H28316297   1.009   0.971   6.265  0.2699 -0.3970  0.5305
   18MOL   O28416298   1.127   0.796   5.661  0.3171  0.6064  0.1820
   18MOL   C28516299   0.991   0.815   5.632  0.7948 -0.1434  0.2846
   18MOL   C28616300   0.948   0.965   5.628  0.0595 -0.1592 -0.2207
   18MOL   C28716301   1.028   1.034   5.522 -0.2651  0.1485 -0.3386
   18MOL   C28816302   1.011   1.185   5.511  0.6071 -0.3056  0.0847
   18MOL   C28916303   1.088   1.262   5.621  0.1608  0.9104  0.6812
   18MOL   C29016304   1.055   1.413   5.621  0.5124  0.1813  0.1124
   18MOL   C29116305   1.146   1.507   5.711 -0.6567 -0.4659  0.3683
   18MOL   C29216306   1.100   1.650   5.701 -0.4424 -0.7688 -0.0125
   18MOL   C29316307   1.191   1.748   5.779  0.9354  0.5816 -0.6886
   18MOL   C29416308   1.181   1.722   5.937  0.6695 -0.2502  0.5522
   18MOL   O29516309   1.301   1.662   5.998  0.4770  0.7693 -0.1050
   18MOL   C29616310   1.302   1.640   6.129 -0.6417 -0.1352  0.1610
   18MOL   O29716311   1.197   1.654   6.195  0.1737  0.2874 -0.5151
   18MOL   C29816312   1.434   1.595   6.185 -0.2631 -1.2480 -0.6838
   18MOL   C29916313   1.441   1.541   6.318 -0.2982 -0.6453  0.8268
   18MOL   C30016314   1.560   1.484   6.365  0.2346 -0.7227  0.6645
   18MOL   C30116315   1.671   1.478   6.284  0.4699 -0.2411  0.3069
   18MOL   C30216316   1.808   1.429   6.332  0.3555 -0.0972 -0.7848
   18MOL   O30316317   1.911   1.425   6.262  0.2695 -0.2761  0.1705
   18MOL   O30416318   1.802   1.386   6.456 -0.5360  0.8132 -0.0317
   18MOL   C30516319   1.665   1.529   6.152  0.1364 -0.1886 -0.1411
   18MOL   C30616320   1.549   1.592   6.105  0.0066 -0.4449  0.5219
   18MOL   H30716321   0.972   0.767   5.536 -0.3460  1.7467 -0.4468
   18MOL   H30816322   0.927   0.761   5.702  0.3499 -2.1188 -1.5897
   18MOL   H30916323   0.962   1.011   5.726 -1.7566 -2.0392  0.9587
   18MOL   H31016324   0.842   0.970   5.604 -0.1108 -0.5014  0.4365
   18MOL   H31116325   1.135   1.013   5.532  0.0945  2.6185  1.4375
   18MOL   H31216326   1.007   0.990   5.424 -0.5195  0.5887 -0.4821
   18MOL   H31316327   0.905   1.207   5.516  0.2594 -1.9194  0.0093
   18MOL   H31416328   1.049   1.214   5.413 -3.6683  1.8328 -1.0527
   18MOL   H31516329   1.073   1.217   5.719  0.2718  0.5134  0.5186
   18MOL   H31616330   1.195   1.242   5.612 -0.3602 -1.3786 -0.8168
   18MOL   H31716331   1.064   1.449   5.518  1.0010 -0.9235 -0.2377
   18MOL   H31816332   0.951   1.425   5.652  0.6706 -0.1943  0.7920
   18MOL   H31916333   1.166   1.478   5.814  1.5912 -0.5682 -0.0590
   18MOL   H32016334   1.247   1.500   5.670 -0.2386 -2.3958  1.6953
   18MOL   H32116335   1.091   1.681   5.597 -0.7456 -0.2186  0.1748
   18MOL   H32216336   0.998   1.650   5.741 -1.7503  0.0985 -3.1890
   18MOL   H32316337   1.154   1.848   5.757  0.5173  1.1179  2.1577
   18MOL   H32416338   1.293   1.751   5.739  0.0065 -0.7907 -3.2458
   18MOL   H32516339   1.096   1.655   5.949  0.3404  0.5919  3.1767
   18MOL   H32616340   1.165   1.821   5.978 -0.3865  0.9353 -2.5231
   18MOL   H32716341   1.359   1.539   6.388 -0.7582 -0.9132  0.2822
   18MOL   H32816342   1.555   1.448   6.467 -0.3913  0.3238  1.0239
   18MOL   H32916343   1.748   1.525   6.082 -0.9911 -1.2348 -1.4394
   18MOL   H33016344   1.543   1.634   6.005  0.8565  1.9952  1.4540
   18MOL   O33116345   1.935   1.340   6.506  0.5498  0.2123 -0.5060
   18MOL   C33216346   1.939   1.198   6.517 -0.3174 -0.0006 -0.2251
   18MOL   C33316347   2.085   1.161   6.520  0.8985  0.2508  0.4597
   18MOL   C33416348   2.108   1.006   6.527 -0.4154 -0.0416 -0.6334
   18MOL   C33516349   2.061   0.939   6.396  0.8659 -0.0753  0.7821
   18MOL   C33616350   2.064   0.791   6.416 -0.0413  0.3427  0.3948
   18MOL   C33716351   2.029   0.709   6.294 -0.1783 -0.0139 -0.5678
   18MOL   C33816352   2.075   0.569   6.321  0.4980  0.6859  0.3484
   18MOL   C33916353   2.044   0.473   6.200  0.4260 -0.5830 -1.0242
   18MOL   C34016354   2.128   0.342   6.188  0.0218  0.9146 -0.3648
   18MOL   C34116355   2.261   0.378   6.136 -0.2464 -0.0845  0.0225
   18MOL   O34216356   2.301   0.260   6.071 -0.3926 -0.0636 -0.9141
   18MOL   C34316357   2.439   0.229   6.072 -0.0950  0.2415  0.2715
   18MOL   O34416358   2.523   0.295   6.130 -0.8837  0.3482  0.0166
   18MOL   C34516359   2.470   0.107   5.991 -0.6837  0.3294 -0.5434
   18MOL   C34616360   2.372   0.019   5.943  0.0550 -0.8925 -0.4230
   18MOL   C34716361   2.413   7.895   5.856  0.0162 -0.0695 -0.9360
   18MOL   C34816362   2.552   7.873   5.821 -0.0978  1.2254  0.2206
   18MOL   C34916363   2.588   7.784   5.711 -0.9923  0.0038 -0.3795
   18MOL   O35016364   2.503   7.734   5.634 -0.3311  0.2015  0.1717
   18MOL   O35116365   2.717   7.763   5.691 -0.4744  0.3738  0.2603
   18MOL   C35216366   2.652   7.965   5.878 -0.1242 -0.2527 -0.2371
   18MOL   C35316367   2.609   0.094   5.954  0.3738 -0.1896 -0.2291
   18MOL   H35416368   1.880   1.153   6.597  0.4209 -0.2645  0.1746
   18MOL   H35516369   1.897   1.158   6.425 -1.0749 -0.0100  0.1127
   18MOL   H35616370   2.121   1.204   6.614  2.6163  3.4563 -1.5658
   18MOL   H35716371   2.134   1.214   6.438  0.8151  0.3790  0.4944
   18MOL   H35816372   2.213   0.985   6.549 -0.2977  1.4381  0.3480
   18MOL   H35916373   2.057   0.974   6.618  0.3056 -0.0414 -0.2235
   18MOL   H36016374   2.124   0.971   6.313 -1.7836 -0.2516 -1.3595
   18MOL   H36116375   1.963   0.965   6.357  2.0911  1.7574 -1.1875
   18MOL   H36216376   2.164   0.758   6.441  0.0965  0.5948  0.1790
   18MOL   H36316377   2.002   0.753   6.497 -0.7532 -1.2597 -0.8710
   18MOL   H36416378   1.923   0.717   6.269 -0.1872 -0.2080 -0.5951
   18MOL   H36516379   2.091   0.737   6.209 -0.0838  0.2361 -0.4154
   18MOL   H36616380   2.182   0.561   6.338  0.3587  0.3999  1.1153
   18MOL   H36716381   2.011   0.519   6.393  0.4743 -0.1342 -0.2354
   18MOL   H36816382   1.937   0.451   6.201  0.7534 -2.4122  2.7418
   18MOL   H36916383   2.046   0.535   6.110  1.8831 -0.4244 -0.8913
   18MOL   H37016384   2.074   0.283   6.115 -2.4448 -0.0486  2.1435
   18MOL   H37116385   2.129   0.280   6.278 -1.4216  0.1740 -0.8545
   18MOL   H37216386   2.334   0.398   6.214 -0.7163  1.0142  0.1832
   18MOL   H37316387   2.252   0.442   6.048  0.0344 -0.3850 -0.2293
   18MOL   H37416388   2.266   0.027   5.966  0.3246  1.1402  0.2646
   18MOL   H37516389   2.330   7.833   5.827 -0.5104 -0.9308  2.1762
   18MOL   H37616390   2.756   7.962   5.851  0.3422 -2.3637  1.5930
   18MOL   H37716391   2.671   0.171   5.997  1.5285 -0.8010 -0.7854
   18MOL   O37816392   2.741   7.663   5.584 -0.1546 -0.5691 -0.4128
   18MOL   C37916393   2.794   7.553   5.654 -0.2786 -0.0951  0.2723
   18MOL   C38016394   2.815   7.439   5.553  0.1215 -0.3855 -0.5671
   18MOL   C38116395   2.679   7.385   5.510 -0.2780  0.0485 -0.5513
   18MOL   C38216396   2.694   7.273   5.409 -0.2277 -0.1061 -0.1406
   18MOL   C38316397   2.557   7.221   5.371  0.5193 -0.2466 -0.1042
   18MOL   C38416398   2.567   7.098   5.281  0.0380 -0.2769 -0.2612
   18MOL   C38516399   2.657   7.118   5.156 -0.5045  0.0106  0.2388
   18MOL   C38616400   2.651   7.002   5.058 -0.2814 -0.2500 -0.3536
   18MOL   C38716401   2.760   7.020   4.946  0.3153  0.5690  0.6879
   18MOL   C38816402   2.774   6.898   4.853  0.3046  0.4382 -0.5598
   18MOL   O38916403   2.657   6.859   4.778  0.2723  0.6940  0.1343
   18MOL   C39016404   2.636   6.908   4.662 -1.4955 -0.1907  0.0099
   18MOL   O39116405   2.701   7.004   4.619 -0.1086 -0.0861 -0.4484
   18MOL   C39216406   2.514   6.860   4.593  0.2969 -0.6636 -0.2306
   18MOL   C39316407   2.457   6.925   4.479 -0.0111 -0.1741  0.2233
   18MOL   C39416408   2.345   6.874   4.418 -0.0414 -0.0727  0.5209
   18MOL   C39516409   2.273   6.767   4.476 -0.3476 -0.3363  0.3530
   18MOL   C39616410   2.143   6.730   4.410  0.3143 -0.0164  0.4552
   18MOL   O39716411   2.057   6.660   4.462 -0.7234  0.4413  0.1387
   18MOL   O39816412   2.126   6.782   4.284 -0.0035 -0.1640  0.2154
   18MOL   C39916413   2.332   6.702   4.582  0.1569 -0.5674 -0.4759
   18MOL   C40016414   2.446   6.752   4.646  0.8631  0.4088 -0.4941
   18MOL   H40116415   2.895   7.578   5.687 -0.5604  2.3608 -0.6677
   18MOL   H40216416   2.728   7.511   5.730  0.2785 -0.9651  0.2817
   18MOL   H40316417   2.867   7.357   5.601 -0.2329 -0.5450 -0.4559
   18MOL   H40416418   2.875   7.474   5.469  0.9632 -0.0801  0.1585
   18MOL   H40516419   2.612   7.370   5.595 -0.6866  3.9451 -0.0968
   18MOL   H40616420   2.637   7.460   5.443  1.0454 -1.5590 -3.2711
   18MOL   H40716421   2.757   7.192   5.445 -0.4628 -0.1592  0.1621
   18MOL   H40816422   2.753   7.300   5.322 -0.8524  2.4602  0.1684
   18MOL   H40916423   2.497   7.198   5.459  0.6376 -1.5102 -0.3454
   18MOL   H41016424   2.498   7.298   5.322 -0.0572 -2.5488 -3.1827
   18MOL   H41116425   2.606   7.017   5.343  0.7558  1.7287  2.0036
   18MOL   H41216426   2.471   7.059   5.246  0.2146 -1.1786  0.2256
   18MOL   H41316427   2.633   7.208   5.098  1.1174 -0.3998 -1.0822
   18MOL   H41416428   2.761   7.124   5.186 -0.3903 -0.6341 -0.0316
   18MOL   H41516429   2.656   6.906   5.111 -2.3659 -0.4324 -0.4841
   18MOL   H41616430   2.557   7.010   5.005 -0.0149 -0.2410 -0.8225
   18MOL   H41716431   2.857   7.037   4.992  1.9338 -2.2463 -1.4945
   18MOL   H41816432   2.730   7.106   4.885  1.1608 -0.1324 -0.7366
   18MOL   H41916433   2.795   6.813   4.918 -1.7152  1.6234  1.6788
   18MOL   H42016434   2.863   6.900   4.789  0.6402 -2.4502 -0.2424
   18MOL   H42116435   2.511   7.011   4.442  3.3502 -1.5418  1.7313
   18MOL   H42216436   2.311   6.921   4.326 -1.0744  0.0174  0.9445
   18MOL   H42316437   2.284   6.615   4.624  2.4637 -1.6804 -0.1029
   18MOL   H42416438   2.480   6.707   4.738 -0.7954 -0.7468 -0.4250
   18MOL   O42516439   1.987   6.783   4.234 -0.5115  0.4186 -0.0694
   18MOL   C42616440   1.964   6.684   4.134  0.1008 -0.5923  0.2723
   18MOL   C42716441   1.812   6.676   4.101 -0.7102 -1.4301  0.2956
   18MOL   C42816442   1.780   6.572   3.991 -0.8041  0.3730 -0.6518
   18MOL   C42916443   1.635   6.578   3.943 -0.1589  0.0111  0.6633
   18MOL   C43016444   1.601   6.477   3.840  0.1671 -0.4447  0.3770
   18MOL   C43116445   1.453   6.496   3.793 -0.7657 -0.0860  0.1831
   18MOL   C43216446   1.415   6.416   3.669  0.0313 -0.5472  0.1937
   18MOL   C43316447   1.287   6.457   3.597  0.0611  0.2842 -0.0282
   18MOL   C43416448   1.160   6.384   3.660  0.5980 -0.3693  0.7811
   18MOL   C43516449   1.036   6.469   3.638  0.4883  0.2397 -0.1607
   18MOL   O43616450   1.048   6.577   3.723 -0.0849  0.1600  0.0967
   18MOL   C43716451   0.949   6.602   3.809  0.1886  0.5678 -0.1401
   18MOL   O43816452   0.840   6.546   3.820  0.3975 -0.5257  0.5505
   18MOL   C43916453   0.969   6.722   3.897  0.4233  0.1829 -1.0242
   18MOL   C44016454   0.858   6.779   3.962  0.4209  0.5952 -1.0583
   18MOL   C44116455   0.872   6.884   4.052  0.2312  0.1499  0.5338
   18MOL   C44216456   1.003   6.934   4.082  0.4796 -0.7759  0.2128
   18MOL   C44316457   1.022   7.047   4.184  0.3383  0.6053  0.0612
   18MOL   O44416458   0.928   7.070   4.261 -0.5443 -0.2639  0.2346
   18MOL   O44516459   1.136   7.128   4.175 -0.2160 -0.1852  0.4237
   18MOL   C44616460   1.112   6.873   4.026  0.7704 -0.5570  0.0394
   18MOL   C44716461   1.094   6.769   3.932 -0.8530 -0.5105 -0.8532
   18MOL   H44816462   2.003   6.727   4.042  0.0386  2.5639  1.6620
   18MOL   H44916463   2.005   6.584   4.144 -0.0798 -0.5410  1.5754
   18MOL   H45016464   1.767   6.773   4.083 -3.6633 -2.3651  2.2302
   18MOL   H45116465   1.768   6.634   4.192 -0.7363 -0.2977  0.8098
   18MOL   H45216466   1.844   6.566   3.903 -1.2685 -1.8337 -0.8842
   18MOL   H45316467   1.800   6.476   4.039  1.0870  1.0142 -0.1060
   18MOL   H45416468   1.609   6.677   3.905  0.6710 -0.7921 -2.1468
   18MOL   H45516469   1.578   6.552   4.032 -0.3071 -2.3360 -0.0673
   18MOL   H45616470   1.671   6.501   3.760  0.1642 -0.2529  0.4328
   18MOL   H45716471   1.615   6.373   3.870 -1.0500 -0.6126  0.3689
   18MOL   H45816472   1.391   6.463   3.877 -2.5163  3.2102  0.2552
   18MOL   H45916473   1.431   6.601   3.775  0.3450  0.4029  1.5646
   18MOL   H46016474   1.501   6.421   3.602 -0.7079 -0.1262 -0.7291
   18MOL   H46116475   1.416   6.313   3.705  1.7209 -0.2271  1.1517
   18MOL   H46216476   1.270   6.563   3.617 -0.9370 -0.0285  0.9016
   18MOL   H46316477   1.285   6.443   3.489  0.1815 -1.4853  0.1831
   18MOL   H46416478   1.180   6.356   3.763 -1.1019  0.5489  1.3861
   18MOL   H46516479   1.138   6.290   3.609 -0.3870  0.2849 -0.0449
   18MOL   H46616480   0.947   6.409   3.657  1.7093 -2.3893 -2.3976
   18MOL   H46716481   1.037   6.514   3.539  0.3347 -1.9584 -1.1801
   18MOL   H46816482   0.760   6.734   3.950  1.4193 -1.8766 -0.0919
   18MOL   H46916483   0.785   6.912   4.109  0.2610  2.4788 -0.5183
   18MOL   H47016484   1.212   6.899   4.058 -0.4765  0.2959  3.5449
   18MOL   H47116485   1.179   6.729   3.879 -0.9654  1.5661 -2.7069
   18MOL   O47216486   1.141   7.253   4.259  0.0386  0.2273 -0.1841
   18MOL   C47316487   1.237   7.230   4.354  0.1586  0.1204  0.4351
   18MOL   C47416488   1.278   7.367   4.416  0.3377 -1.0384  0.2406
   18MOL   C47516489   1.367   7.323   4.530 -0.3450 -0.0198 -0.3698
   18MOL   C47616490   1.430   7.433   4.615  0.3496 -0.2181  0.0077
   18MOL   C47716491   1.548   7.382   4.697  0.4463  0.4187  0.4659
   18MOL   C47816492   1.605   7.483   4.786 -0.3080 -0.2649 -0.1172
   18MOL   C47916493   1.711   7.425   4.885 -0.0316 -0.1524  0.3818
   18MOL   C48016494   1.742   7.523   4.999 -0.8116 -0.0569 -0.1804
   18MOL   C48116495   1.856   7.486   5.092 -0.0183  0.0276  0.5529
   18MOL   C48216496   1.877   7.600   5.195  0.6477 -0.1319 -0.1666
   18MOL   O48316497   1.962   7.548   5.300 -0.0397  0.3092 -0.0613
   18MOL   C48416498   1.999   7.624   5.399  0.7102 -0.2143  0.1669
   18MOL   O48516499   1.953   7.736   5.412  0.4419  0.4197 -0.0888
   18MOL   C48616500   2.109   7.558   5.479  0.6631 -0.8907  0.0395
   18MOL   C48716501   2.149   7.422   5.469  0.4164  0.3723  0.1613
   18MOL   C48816502   2.248   7.368   5.559  0.2178 -0.1765  0.5779
   18MOL   C48916503   2.285   7.440   5.675  0.1524 -0.2842 -0.0308
   18MOL   C49016504   2.365   7.379   5.781  0.1848  0.2147  0.0564
   18MOL   O49116505   2.450   7.436   5.850  0.5908 -0.1326 -0.0332
   18MOL   O49216506   2.359   7.245   5.784  0.3228 -0.4996  0.1204
   18MOL   C49316507   2.243   7.574   5.688 -0.1158 -0.3664 -0.1259
   18MOL   C49416508   2.165   7.635   5.588 -0.6226  0.6265  0.2088
   18MOL   H49516509   1.210   7.151   4.423  0.2887 -0.4610 -0.1705
   18MOL   H49616510   1.321   7.188   4.299 -1.1002 -0.6610 -0.9070
   18MOL   H49716511   1.188   7.416   4.452 -0.3207 -0.6604 -1.8689
   18MOL   H49816512   1.322   7.437   4.345  0.7606 -0.1620  1.3361
   18MOL   H49916513   1.313   7.263   4.603 -1.8464  2.2988  0.5154
   18MOL   H50016514   1.443   7.259   4.486  0.4840  0.0610  0.9168
   18MOL   H50116515   1.354   7.472   4.683  0.3253  1.0634 -0.7397
   18MOL   H50216516   1.466   7.515   4.553 -0.8137 -0.3330 -0.8500
   18MOL   H50316517   1.506   7.309   4.766 -1.5311  0.4226 -0.6742
   18MOL   H50416518   1.615   7.329   4.629 -1.3393 -0.8730 -0.3387
   18MOL   H50516519   1.649   7.562   4.725 -1.2947  0.2162 -0.2129
   18MOL   H50616520   1.536   7.539   4.849  0.4637  0.3445  0.1913
   18MOL   H50716521   1.667   7.333   4.923  0.5978 -0.6713 -0.1573
   18MOL   H50816522   1.803   7.405   4.832 -0.2934 -3.3935  1.0635
   18MOL   H50916523   1.766   7.615   4.946 -2.9131  1.5109  1.4997
   18MOL   H51016524   1.650   7.542   5.054 -0.1881 -0.2601  0.9611
   18MOL   H51116525   1.949   7.462   5.041 -0.3524 -1.2532  0.5304
   18MOL   H51216526   1.819   7.396   5.140  0.9963  0.4579  2.1948
   18MOL   H51316527   1.780   7.632   5.232  0.8343  0.0670  0.1524
   18MOL   H51416528   1.921   7.687   5.145  1.1095 -0.4814 -0.3754
   18MOL   H51516529   2.117   7.362   5.386 -0.4645  1.3398 -0.2141
   18MOL   H51616530   2.286   7.267   5.545  0.2190 -0.2677  1.2061
   18MOL   H51716531   2.264   7.639   5.772 -0.9310  0.8058 -0.8040
   18MOL   H51816532   2.147   7.741   5.601 -1.1956  0.8471 -2.2247
   18MOL   O51916533   2.455   7.171   5.879 -0.0314 -0.3162  0.0744
   18MOL   C52016534   2.581   7.149   5.815 -0.4380 -0.3848 -0.3443
   18MOL   C52116535   2.572   7.015   5.731 -0.3351  0.2554  0.4835
   18MOL   C52216536   2.582   6.889   5.812  0.7791 -0.3443 -0.6738
   18MOL   C52316537   2.729   6.857   5.850  0.0366  0.4676 -0.3891
   18MOL   C52416538   2.763   6.732   5.942 -0.4252  0.2271  0.2812
   18MOL   C52516539   2.915   6.723   5.973  0.3205  0.9144 -0.4109
   18MOL   C52616540   2.993   6.669   5.858  0.3639 -0.4487  0.3399
   18MOL   C52716541   3.049   6.532   5.892 -0.2136 -0.3457 -0.0108
   18MOL   C52816542   3.134   6.472   5.777 -0.1014 -0.6038  0.7467
   18MOL   C52916543   3.055   6.418   5.657  0.2412  0.0382  0.4308
   18MOL   O53016544   3.139   6.362   5.562 -0.4885 -0.3575  0.5335
   18MOL   C53116545   3.086   6.355   5.439 -0.3791 -0.3887 -0.0733
   18MOL   O53216546   2.979   6.408   5.408  0.2550  0.2849 -0.5979
   18MOL   C53316547   3.173   6.277   5.345  0.0104 -0.2488  0.6383
   18MOL   C53416548   3.313   6.282   5.377 -0.2284  0.0167 -0.6578
   18MOL   C53516549   3.404   6.209   5.291  0.5451 -0.7396 -0.1455
   18MOL   C53616550   3.355   6.123   5.190 -0.5731 -0.3852  0.3232
   18MOL   C53716551   3.449   6.018   5.126  1.0629 -0.0300  0.5283
   18MOL   O53816552   3.564   5.988   5.163 -0.0185 -0.5590 -0.0726
   18MOL   O53916553   3.397   5.963   5.023  0.8096 -0.1836 -0.0354
   18MOL   C54016554   3.218   6.127   5.155  0.9016 -0.7613 -0.3035
   18MOL   C54116555   3.126   6.212   5.232 -0.1491  0.4707  0.5544
   18MOL   H54216556   2.611   7.234   5.754  1.4374 -0.2540  0.6989
   18MOL   H54316557   2.658   7.138   5.892 -0.8655 -0.0063  0.1367
   18MOL   H54416558   2.663   7.013   5.671  1.8231  0.0931  3.6227
   18MOL   H54516559   2.480   7.006   5.673  0.4680  0.3917 -0.8272
   18MOL   H54616560   2.526   6.904   5.904  1.4277 -2.2422  0.0413
   18MOL   H54716561   2.538   6.808   5.755  0.9431 -0.8305 -0.1130
   18MOL   H54816562   2.770   6.949   5.894  0.6880  0.3261 -0.6921
   18MOL   H54916563   2.788   6.844   5.760 -0.2131 -0.3630 -0.4298
   18MOL   H55016564   2.712   6.754   6.036  2.9256  0.2299  2.2058
   18MOL   H55116565   2.726   6.645   5.888 -0.4377  0.1535  0.4079
   18MOL   H55216566   2.948   6.820   6.009  0.0507  0.2482  1.6932
   18MOL   H55316567   2.918   6.660   6.062 -0.4950  0.5402 -0.6457
   18MOL   H55416568   2.940   6.660   5.763  0.9312  2.8022 -0.3544
   18MOL   H55516569   3.077   6.738   5.844  0.3661 -0.8092 -1.5613
   18MOL   H55616570   3.108   6.539   5.983 -2.5379 -0.9607  1.5825
   18MOL   H55716571   2.968   6.472   5.934  0.0425  0.2619  1.3785
   18MOL   H55816572   3.198   6.397   5.822  0.8654 -1.7624 -2.4421
   18MOL   H55916573   3.205   6.547   5.743  0.0443 -1.0087  0.1491
   18MOL   H56016574   3.005   6.504   5.613  1.3526  0.9812  0.9843
   18MOL   H56116575   2.970   6.353   5.679  0.4210 -0.0735  0.8020
   18MOL   H56216576   3.349   6.332   5.466  0.0245 -2.2515  0.5429
   18MOL   H56316577   3.508   6.199   5.318  0.8071 -0.5243 -1.0591
   18MOL   H56416578   3.173   6.078   5.070 -2.6400  2.5853 -0.4665
   18MOL   H56516579   3.024   6.225   5.201 -0.6879 -0.5801  1.8432
   18MOL   O56616580   3.461   5.832   4.984 -0.1684  0.2987  0.6685
   18MOL   C56716581   3.374   5.725   5.020  0.5547  0.1149  0.0717
   18MOL   C56816582   3.273   5.704   4.909 -0.0818  0.1275  0.6422
   18MOL   C56916583   3.156   5.606   4.942 -0.3045  0.6561  0.1427
   18MOL   C57016584   3.087   5.575   4.805 -0.4039  0.3640  0.0494
   18MOL   C57116585   2.952   5.494   4.833 -0.0482 -0.0818  0.3097
   18MOL   C57216586   2.891   5.477   4.694 -0.4716  0.5953  0.1814
   18MOL   C57316587   2.744   5.437   4.702  0.2367  0.0765  0.3667
   18MOL   C57416588   2.707   5.328   4.807 -0.0915  0.2744 -0.0488
   18MOL   C57516589   2.742   5.188   4.746  0.3658 -0.2143  0.3138
   18MOL   C57616590   2.695   5.081   4.850 -0.0559  0.0706 -0.2063
   18MOL   O57716591   2.776   5.086   4.968  0.1831  0.3894  0.6117
   18MOL   C57816592   2.749   5.003   5.069 -0.3519  0.4240  0.1468
   18MOL   O57916593   2.660   4.924   5.063  0.6775  0.2657 -0.7619
   18MOL   C58016594   2.843   5.013   5.187 -0.3464 -0.4030 -0.2887
   18MOL   C58116595   2.952   5.107   5.188 -0.3339  0.8067  0.1735
   18MOL   C58216596   3.044   5.104   5.291  0.1296 -0.1540  0.0408
   18MOL   C58316597   3.036   5.011   5.393 -0.4021  0.5461 -0.2029
   18MOL   C58416598   3.139   5.001   5.495  0.5571  0.0222  0.2671
   18MOL   O58516599   3.171   4.890   5.539  0.4100 -0.1414 -0.0062
   18MOL   O58616600   3.190   5.117   5.526 -0.6732 -0.0309  0.1117
   18MOL   C58716601   2.927   4.918   5.392  0.0107  0.1059 -0.7684
   18MOL   C58816602   2.825   4.927   5.296  0.4875  0.6154 -0.4099
   18MOL   H58916603   3.443   5.642   5.031  1.2578  0.6461 -0.2826
   18MOL   H59016604   3.332   5.753   5.117 -0.5465 -2.7134  0.4458
   18MOL   H59116605   3.328   5.679   4.818 -3.2826  2.6822 -2.0917
   18MOL   H59216606   3.236   5.803   4.884 -1.1644 -0.8501 -1.7913
   18MOL   H59316607   3.193   5.519   4.995 -0.5923  1.0992  1.0922
   18MOL   H59416608   3.087   5.657   5.010 -1.7116 -0.1940 -0.6120
   18MOL   H59516609   3.168   5.523   4.753 -0.8024 -3.6599  3.2025
   18MOL   H59616610   3.063   5.661   4.742 -0.1045  0.8137  0.5505
   18MOL   H59716611   2.982   5.401   4.881 -0.4509 -0.1203  0.4871
   18MOL   H59816612   2.896   5.545   4.911 -1.5611  0.2719 -0.9823
   18MOL   H59916613   2.904   5.569   4.637  0.8222  0.0461 -0.4181
   18MOL   H60016614   2.938   5.401   4.632  0.1253  0.5411  0.6898
   18MOL   H60116615   2.686   5.522   4.738  0.6310  1.7824 -2.9153
   18MOL   H60216616   2.707   5.407   4.604 -0.3710  0.5427  0.4513
   18MOL   H60316617   2.763   5.346   4.899  1.7372 -3.1003 -0.4021
   18MOL   H60416618   2.602   5.343   4.832 -0.4208  0.0334 -1.2555
   18MOL   H60516619   2.849   5.175   4.725  0.3655  1.3045 -0.7266
   18MOL   H60616620   2.693   5.156   4.653  1.0586 -0.5918  0.0726
   18MOL   H60716621   2.704   4.981   4.808  0.3634  0.4355 -0.9743
   18MOL   H60816622   2.591   5.094   4.882 -1.0683  1.7346 -3.9805
   18MOL   H60916623   2.973   5.168   5.101 -0.6226 -2.9563 -2.6550
   18MOL   H61016624   3.133   5.165   5.288  0.3272 -0.3928  0.8633
   18MOL   H61116625   2.916   4.845   5.470 -1.3251 -0.6480 -1.6384
   18MOL   H61216626   2.754   4.845   5.295  0.8159  0.3278 -0.4012
   18MOL   O61316627   3.295   5.116   5.629  0.1745  0.3941  0.0639
   18MOL   C61416628   3.419   5.125   5.566  0.7250 -0.6753 -0.4545
   18MOL   C61516629   3.518   5.134   5.679  0.6228  0.2317  0.5373
   18MOL   C61616630   3.667   5.155   5.655  0.0467  0.6238  0.0874
   18MOL   C61716631   3.755   5.123   5.781 -0.1973  0.2535 -0.3573
   18MOL   C61816632   3.912   5.144   5.746  1.2745  0.1355  0.0983
   18MOL   C61916633   3.988   5.249   5.830  0.3436  0.3280 -0.0664
   18MOL   C62016634   3.965   5.226   5.974  0.5216  0.0926  0.3743
   18MOL   C62116635   4.022   5.338   6.061  0.3147  0.6392  0.3841
   18MOL   C62216636   3.945   5.350   6.190 -0.0280 -0.0090 -0.8579
   18MOL   C62316637   4.031   5.423   6.303  0.3006 -0.2574  0.3181
   18MOL   O62416638   3.960   5.444   6.426 -0.0866 -0.0193 -0.0117
   18MOL   C62516639   3.874   5.541   6.450 -0.1018 -0.0617  0.4995
   18MOL   O62616640   3.841   5.611   6.356  0.0721  0.0586 -0.3092
   18MOL   C62716641   3.826   5.550   6.588 -0.4700  0.4633  0.1200
   18MOL   C62816642   3.726   5.635   6.623 -0.6842  0.7150  0.0357
   18MOL   C62916643   3.666   5.622   6.748  0.2588  0.4780  0.2078
   18MOL   C63016644   3.717   5.540   6.850 -0.1249 -0.2007 -0.5784
   18MOL   C63116645   3.660   5.545   6.991  0.4527  0.2040  0.0957
   18MOL   O63216646   3.701   5.478   7.082  0.3102 -0.4381 -0.0696
   18MOL   O63316647   3.557   5.633   7.006  0.5530 -0.3016 -0.1412
   18MOL   C63416648   3.837   5.471   6.823  0.0934  0.0799 -0.4573
   18MOL   C63516649   3.881   5.467   6.691 -0.0822 -0.5278  1.3216
   18MOL   H63616650   3.430   5.027   5.521 -0.9757 -1.4006  0.6425
   18MOL   H63716651   3.429   5.204   5.491 -3.4818 -0.2625 -0.7011
   18MOL   H63816652   3.510   5.033   5.718 -0.7842  0.0759 -0.1069
   18MOL   H63916653   3.485   5.207   5.753  1.9086  3.6920 -2.1177
   18MOL   H64016654   3.695   5.096   5.568  0.4533 -0.4782  0.9555
   18MOL   H64116655   3.680   5.260   5.627  1.3160  0.4068 -0.1618
   18MOL   H64216656   3.732   5.023   5.819  0.7465  0.3208  0.3891
   18MOL   H64316657   3.723   5.183   5.866  1.5359  2.9752 -1.5638
   18MOL   H64416658   3.955   5.045   5.763 -0.6309 -0.4821  1.5214
   18MOL   H64516659   3.914   5.166   5.639 -2.9229  0.9807  0.0756
   18MOL   H64616660   4.092   5.236   5.800 -0.0939 -2.2501 -0.6650
   18MOL   H64716661   3.959   5.352   5.810  0.4782  0.2738 -0.5463
   18MOL   H64816662   3.860   5.238   6.000  0.0346 -0.6254 -1.2294
   18MOL   H64916663   3.977   5.120   5.998  0.0020 -0.3160 -1.1145
   18MOL   H65016664   4.127   5.324   6.087  0.2523  0.3909  0.5101
   18MOL   H65116665   4.027   5.428   6.000 -1.3388 -0.1315 -0.9408
   18MOL   H65216666   3.937   5.243   6.213  3.1686 -0.4628 -1.6694
   18MOL   H65316667   3.861   5.412   6.159  0.6654  1.4434  0.1213
   18MOL   H65416668   4.065   5.523   6.275  1.1097 -0.3460  0.9698
   18MOL   H65516669   4.122   5.369   6.329  0.3491  0.1052  0.9022
   18MOL   H65616670   3.689   5.693   6.540  0.4996  0.7329 -0.4949
   18MOL   H65716671   3.573   5.673   6.770  0.1954  0.1918  0.5888
   18MOL   H65816672   3.881   5.406   6.897  0.4982 -2.5403 -2.9096
   18MOL   H65916673   3.972   5.410   6.675  0.8672  1.2341  0.2082
   18MOL   O66016674   3.504   5.653   7.145 -0.0116  0.9484 -0.1972
   18MOL   C66116675   3.403   5.561   7.172 -0.3900  0.1795 -0.1312
   18MOL   C66216676   3.325   5.604   7.291  0.0004  0.0480  0.7704
   18MOL   C66316677   3.248   5.732   7.267 -0.3266 -0.3711  0.1665
   18MOL   C66416678   3.165   5.761   7.395 -0.1831 -0.4069 -0.4226
   18MOL   C66516679   3.096   5.893   7.396 -0.8442 -0.6166  0.1343
   18MOL   C66616680   3.033   5.920   7.530  0.4750  0.6742 -0.0308
   18MOL   C66716681   2.978   6.063   7.541 -0.2420 -0.3179 -1.1342
   18MOL   C66816682   3.086   6.177   7.528 -0.4299 -0.1918  0.0446
   18MOL   C66916683   3.019   6.316   7.546 -0.8520 -0.2977  0.1178
   18MOL   C67016684   3.123   6.420   7.589  0.0482  0.1397 -0.1482
   18MOL   O67116685   3.066   6.543   7.630 -0.1565 -0.2634 -0.0194
   18MOL   C67216686   3.143   6.636   7.700  0.1017 -0.2357  0.3237
   18MOL   O67316687   3.249   6.603   7.749 -0.7877 -0.3730  0.1139
   18MOL   C67416688   3.071   6.769   7.715  0.3171 -0.4207 -0.0096
   18MOL   C67516689   3.115   6.865   7.807 -0.4004 -0.1643 -0.2159
   18MOL   C67616690   3.077   7.002   7.792  0.3635 -0.8810  0.1159
   18MOL   C67716691   2.979   7.042   7.701  0.2938 -0.8192 -0.3648
   18MOL   C67816692   2.933   7.185   7.694 -0.6188  0.4315  0.0736
   18MOL   O67916693   2.852   7.222   7.613 -0.5356  0.4046 -0.3108
   18MOL   O68016694   2.984   7.263   7.793 -0.4510  0.1430  0.1773
   18MOL   C68116695   2.931   6.946   7.615 -0.2347 -0.1225  0.1917
   18MOL   C68216696   2.973   6.809   7.620  0.2920  0.0026 -0.3657
   18MOL   H68316697   3.330   5.544   7.093 -1.2676 -2.9685  1.2982
   18MOL   H68416698   3.433   5.457   7.186  0.8476  0.7001  1.1548
   18MOL   H68516699   3.390   5.593   7.378 -1.6042  1.8154  2.2256
   18MOL   H68616700   3.247   5.530   7.313 -1.1445  1.3477  1.1225
   18MOL   H68716701   3.319   5.811   7.240 -0.9069 -0.2363 -0.9872
   18MOL   H68816702   3.188   5.735   7.176 -0.1066 -0.5958  0.0152
   18MOL   H68916703   3.237   5.759   7.477 -1.3231 -0.3912  0.5967
   18MOL   H69016704   3.091   5.682   7.408  0.8694 -1.6059 -1.5852
   18MOL   H69116705   3.182   5.957   7.375 -2.1521  1.0722 -0.1652
   18MOL   H69216706   3.035   5.912   7.308  1.7087  0.3708 -1.4785
   18MOL   H69316707   2.944   5.858   7.537  1.1240 -0.3925 -1.1069
   18MOL   H69416708   3.103   5.896   7.610  0.0058  0.4409  0.3155
   18MOL   H69516709   2.901   6.074   7.465  0.5762 -0.8903 -2.0584
   18MOL   H69616710   2.932   6.076   7.639 -0.5417  2.0946 -1.5614
   18MOL   H69716711   3.159   6.161   7.607 -1.1352 -1.2625  0.5045
   18MOL   H69816712   3.144   6.168   7.436  1.3769  0.3992  1.1151
   18MOL   H69916713   2.944   6.312   7.625 -1.2504 -0.9685 -0.2846
   18MOL   H70016714   2.964   6.354   7.460  1.5260  1.1927 -0.7911
   18MOL   H70116715   3.187   6.426   7.501  0.5795  2.6156  0.3654
   18MOL   H70216716   3.187   6.378   7.666 -0.5906  1.2760  1.0335
   18MOL   H70316717   3.201   6.837   7.866 -2.3882 -1.6357  2.1051
   18MOL   H70416718   3.131   7.076   7.848  0.1311  0.4004 -1.3234
   18MOL   H70516719   2.855   6.982   7.546  0.1432  0.5710  0.1344
   18MOL   H70616720   2.932   6.738   7.551  0.4637  0.6794 -1.1709
   18MOL   O70716721   2.915   7.403   7.812 -0.6491 -1.0245  0.0515
   18MOL   C70816722   2.851   7.406   7.931 -0.2985  0.6888 -0.6442
   18MOL   C70916723   2.755   7.514   7.950 -0.1032  1.5888  0.4775
   18MOL   C71016724   2.628   7.507   7.855  0.7304 -0.4996 -0.1244
   18MOL   C71116725   2.517   7.620   7.869  0.0928  0.9255 -0.4946
   18MOL   C71216726   2.408   7.611   7.765  0.1592  0.4145  0.5143
   18MOL   C71316727   2.314   7.729   7.767  0.1232 -0.2603  0.3868
   18MOL   C71416728   2.209   7.716   7.877 -0.3352  0.2070 -1.0155
   18MOL   C71516729   2.126   7.837   7.892 -0.8297  0.6074  0.8682
   18MOL   C71616730   2.021   7.803   0.027 -0.7337  0.0741  1.0754
   18MOL   C71716731   1.933   7.916   0.075 -0.3081 -0.6198 -0.3974
   18MOL   O71816732   1.850   7.960   7.951  0.3798 -0.2062 -0.3900
   18MOL   C71916733   1.734   7.899   7.920 -0.4924  0.5989  0.7908
   18MOL   O72016734   1.687   7.810   0.003 -0.0352  0.0664  0.0866
   18MOL   C72116735   1.671   7.955   7.797 -0.3958 -0.9031  1.0136
   18MOL   C72216736   1.739   0.076   7.718  1.1319  0.6101 -0.8079
   18MOL   C72316737   1.664   0.141   7.612 -0.4566  0.4340  0.5664
   18MOL   C72416738   1.543   0.085   7.564 -0.2883  0.0286  0.2007
   18MOL   C72516739   1.480   0.138   7.442  0.7158 -0.0043  0.1383
   18MOL   O72616740   1.509   0.243   7.379 -0.5082 -0.4080  0.2347
   18MOL   O72716741   1.381   0.058   7.398  0.2985  0.6059 -0.1746
   18MOL   C72816742   1.487   7.957   7.638  0.9150  0.2310 -0.0663
   18MOL   C72916743   1.550   7.910   7.754  0.1131  0.1183  0.2937
   18MOL   H73016744   2.799   7.311   7.941 -0.0739  0.6379  0.0238
   18MOL   H73116745   2.923   7.405   0.034 -1.2344  2.1829  0.2359
   18MOL   H73216746   2.817   7.604   7.943 -0.3016  1.5191 -3.3839
   18MOL   H73316747   2.707   7.508   0.069  0.1760 -0.6515  0.5126
   18MOL   H73416748   2.657   7.503   7.750  1.2836 -1.0958  0.0485
   18MOL   H73516749   2.581   7.412   7.878  1.4297 -1.2199 -1.6172
   18MOL   H73616750   2.567   7.715   7.853 -0.1527  0.9925 -0.8936
   18MOL   H73716751   2.475   7.632   7.969 -2.2613 -2.5903 -0.9596
   18MOL   H73816752   2.455   7.596   7.668  1.4312 -0.7946  1.3043
   18MOL   H73916753   2.342   7.525   7.772 -1.8061  1.9617  1.3649
   18MOL   H74016754   2.377   7.818   7.767  0.5386 -0.5452  1.3526
   18MOL   H74116755   2.259   7.742   7.674 -0.4025 -2.8679  0.3014
   18MOL   H74216756   2.166   7.619   7.854 -2.7811  1.0834 -0.3169
   18MOL   H74316757   2.261   7.706   7.972 -0.0004  2.4109 -0.9489
   18MOL   H74416758   2.189   7.920   7.925  1.8092 -1.7936  2.0928
   18MOL   H74516759   2.082   7.849   7.793  1.0245 -0.9066 -0.1628
   18MOL   H74616760   2.077   7.783   0.119  1.0934  2.1688  0.4504
   18MOL   H74716761   1.961   7.715   0.006 -1.2628  0.8952 -0.9443
   18MOL   H74816762   1.995   0.018   0.115 -0.8032 -0.3909 -0.0791
   18MOL   H74916763   1.874   7.885   0.161 -1.2837 -0.3246 -0.9526
   18MOL   H75016764   1.832   0.111   7.760  0.0063  0.5401  1.8334
   18MOL   H75116765   1.705   0.229   7.564 -0.5748  0.6163  0.8026
   18MOL   H75216766   1.393   7.916   7.605  0.8716 -0.8790  1.4053
   18MOL   H75316767   1.502   7.834   7.813 -0.7284  0.6357  0.2785
   18MOL   O75416768   1.360   0.069   7.243  0.0960 -0.0023 -0.4317
   18MOL   C75516769   1.246   0.144   7.215 -0.1824 -0.5801  0.3073
   18MOL   C75616770   1.199   0.140   7.075  0.5914 -0.5248 -0.0481
   18MOL   C75716771   1.127   0.009   7.042  0.0894 -0.6396  0.0860
   18MOL   C75816772   1.015   0.017   6.935 -0.2474 -0.2207 -0.2997
   18MOL   C75916773   0.876   0.073   6.986  0.4653  0.5484 -0.5876
   18MOL   C76016774   0.800   7.961   7.084 -0.3179  0.2538  0.6500
   18MOL   C76116775   0.667   0.047   7.129 -0.4494 -0.0084  0.0795
   18MOL   C76216776   0.588   7.931   7.215 -0.1939  0.6451  0.1297
   18MOL   C76316777   0.481   0.026   7.293  0.1220 -0.2059 -0.2110
   18MOL   C76416778   0.364   0.070   7.208  0.0462 -0.1637  0.1566
   18MOL   O76516779   0.270   0.143   7.282  0.0369  0.2600 -0.1816
   18MOL   C76616780   0.133   0.142   7.257 -0.1680 -0.2175 -0.0160
   18MOL   O76716781   0.081   0.095   7.154 -0.5182  0.6804  0.0797
   18MOL   C76816782   0.056   0.234   7.341 -0.5124  0.5208  0.6325
   18MOL   C76916783   7.897   0.268   7.312 -0.5022  0.1774  0.1453
   18MOL   C77016784   7.833   0.359   7.399  0.4665 -0.4136 -0.2766
   18MOL   C77116785   7.891   0.416   7.518  0.2733 -0.1920  0.1080
   18MOL   C77216786   7.821   0.505   7.622 -0.0977  0.5256  0.3218
   18MOL   O77316787   7.882   0.559   7.714 -0.5616 -0.1376  0.0124
   18MOL   O77416788   7.686   0.519   7.593  0.7945  0.4505  0.0713
   18MOL   C77516789   0.048   0.381   7.536  1.0398 -0.5866  0.7671
   18MOL   C77616790   0.117   0.288   7.455  0.1930  0.4258 -1.1156
   18MOL   H77716791   1.168   0.114   7.284 -1.4971 -2.0155 -1.7461
   18MOL   H77816792   1.267   0.246   7.246  0.9041 -0.2967 -1.2831
   18MOL   H77916793   1.280   0.165   7.007 -0.4062  0.3254 -0.9472
   18MOL   H78016794   1.129   0.223   7.067  0.0815 -1.0058 -0.6848
   18MOL   H78116795   1.199   7.911   7.011 -0.2946 -0.7819 -0.4589
   18MOL   H78216796   1.083   7.955   7.136 -0.0453  0.6958  0.4853
   18MOL   H78316797   1.001   7.898   6.887  0.2983  0.2576 -1.4184
   18MOL   H78416798   1.051   0.088   6.861 -0.2520 -0.9291 -0.9814
   18MOL   H78516799   0.881   0.169   7.037 -0.5439 -0.1052  0.7492
   18MOL   H78616800   0.816   0.089   6.896 -1.9192 -4.1678  0.0340
   18MOL   H78716801   0.785   7.869   7.027 -1.0155  1.3175 -0.9047
   18MOL   H78816802   0.855   7.936   7.174  0.0806 -1.2438  0.0066
   18MOL   H78916803   0.693   0.135   7.188 -0.8791 -1.2583  2.2136
   18MOL   H79016804   0.602   0.080   7.048  0.8272  1.1874 -0.4825
   18MOL   H79116805   0.541   7.850   7.159  2.2272 -1.0498  0.4895
   18MOL   H79216806   0.658   7.875   7.276 -0.2341  0.9841  0.4884
   18MOL   H79316807   0.510   0.123   7.335  0.9340  0.0382 -1.3102
   18MOL   H79416808   0.457   7.947   7.383  1.3931 -0.0393  0.2464
   18MOL   H79516809   0.322   7.965   7.151 -2.3872  0.5521  0.8467
   18MOL   H79616810   0.400   0.137   7.129  1.5584  1.4334  2.1680
   18MOL   H79716811   7.846   0.226   7.226  1.1544 -0.1758 -0.6872
   18MOL   H79816812   7.732   0.381   7.367  0.6743  1.0414  0.0466
   18MOL   H79916813   0.102   0.434   7.613  0.7596 -1.3899  1.5271
   18MOL   H80016814   0.216   0.256   7.485  0.2020 -0.0316 -1.6128
   18MOL   O80116815   7.596   0.556   7.713 -0.2940 -0.6440 -0.5288
   18MOL   C80216816   7.564   0.692   7.712  1.1692  0.6576  0.1700
   18MOL   C80316817   7.469   0.716   7.600 -0.2012  0.0574  0.5876
   18MOL   C80416818   7.327   0.650   7.627 -0.3593 -0.4137  0.9040
   18MOL   C80516819   7.225   0.709   7.528 -0.0160  0.0493  0.0980
   18MOL   C80616820   7.088   0.653   7.552 -0.3664  0.2923 -0.3750
   18MOL   C80716821   7.077   0.509   7.497  0.0510  0.7097 -0.4615
   18MOL   C80816822   6.939   0.481   7.458  1.0547 -0.1552  0.5353
   18MOL   C80916823   6.910   0.335   7.437 -0.1217  0.7784 -0.3886
   18MOL   C81016824   6.775   0.301   7.385  0.0470  0.6302  0.1849
   18MOL   C81116825   6.716   0.171   7.427  0.0185  0.4233 -0.1097
   18MOL   O81216826   6.810   0.069   7.407 -0.1149  0.1745 -0.0206
   18MOL   C81316827   6.766   7.923   7.360  0.1213  0.3013  0.3548
   18MOL   O81416828   6.649   7.902   7.316  0.0823  0.2543 -0.0949
   18MOL   C81516829   6.867   7.814   7.357  0.3729  0.3772 -0.5374
   18MOL   C81616830   6.824   7.681   7.350 -0.0627 -0.6669 -0.1814
   18MOL   C81716831   6.921   7.581   7.348  0.0655  0.7022  0.3550
   18MOL   C81816832   7.060   7.603   7.357  0.5870 -0.4388 -0.5244
   18MOL   C81916833   7.154   7.486   7.351  0.4536 -0.0342  0.0556
   18MOL   O82016834   7.116   7.370   7.350  0.0305  0.0535 -0.1871
   18MOL   O82116835   7.279   7.525   7.341 -0.0836 -0.9201  0.1820
   18MOL   C82216836   7.105   7.742   7.361 -1.0476  0.2877  0.5184
   18MOL   C82316837   7.006   7.844   7.366  0.0473 -0.2779 -0.2858
   18MOL   H82416838   7.523   0.727   7.807  0.0118  0.0168 -0.0775
   18MOL   H82516839   7.659   0.743   7.704  1.5347 -0.1747 -0.9325
   18MOL   H82616840   7.517   0.675   7.512 -1.8786 -0.5268 -0.0807
   18MOL   H82716841   7.451   0.823   7.588 -0.7505 -0.1797 -0.7534
   18MOL   H82816842   7.339   0.543   7.610  0.3102  0.0709 -1.8348
   18MOL   H82916843   7.296   0.664   7.731  0.6987  0.0417  1.1640
   18MOL   H83016844   7.254   0.679   7.427  0.0536  0.7043 -0.0832
   18MOL   H83116845   7.206   0.817   7.528 -1.2386 -0.1629  0.8482
   18MOL   H83216846   7.055   0.666   7.655 -0.2090  0.0941 -0.3022
   18MOL   H83316847   7.025   0.707   7.481 -0.4808 -2.2541 -2.2752
   18MOL   H83416848   7.151   0.492   7.418  1.4341  1.8245  0.5687
   18MOL   H83516849   7.109   0.440   7.575 -1.1935 -0.1809 -0.7313
   18MOL   H83616850   6.869   0.509   7.536  1.9509 -1.8809  1.9987
   18MOL   H83716851   6.912   0.531   7.365  1.3263  2.3948  1.7999
   18MOL   H83816852   6.983   0.293   7.368  1.3507  0.2759  1.4324
   18MOL   H83916853   6.926   0.286   7.534  0.8920 -1.3749 -1.5995
   18MOL   H84016854   6.789   0.321   7.279 -2.0059  1.0021 -0.0423
   18MOL   H84116855   6.715   0.382   7.426 -0.7199  0.3725 -0.4189
   18MOL   H84216856   6.630   0.152   7.362  1.3892  1.0112 -2.1131
   18MOL   H84316857   6.673   0.159   7.527 -0.8558 -2.7148 -0.7744
   18MOL   H84416858   6.718   7.662   7.342 -0.2768  0.9880 -1.6965
   18MOL   H84516859   6.886   7.479   7.344  0.9929  0.4061 -0.1736
   18MOL   H84616860   7.204   7.786   7.363  0.1099 -2.2217  1.4292
   18MOL   H84716861   7.032   7.948   7.371 -0.7701 -0.0460 -0.7036
   18MOL   O84816862   7.378   7.418   7.329 -0.1508  0.6198 -0.3828
   18MOL   C84916863   7.426   7.392   7.463  0.6611 -0.0054 -0.4210
   18MOL   C85016864   7.540   7.494   7.500  0.2168  0.6016  0.4214
   18MOL   C85116865   7.629   7.458   7.617 -0.3668  0.2147  0.3216
   18MOL   C85216866   7.751   7.557   7.623  0.2975 -0.3832  0.2399
   18MOL   C85316867   7.836   7.532   7.754 -0.3263 -0.3492 -0.0921
   18MOL   C85416868   7.934   7.647   7.775 -0.7327 -0.6480 -0.6980
   18MOL   C85516869   0.013   7.647   7.921 -0.2399 -0.3577  0.1334
   18MOL   C85616870   0.123   7.756   7.933  0.2942  0.3908 -0.1527
   18MOL   C85716871   0.183   7.781   0.093 -0.0158 -0.0883  0.3556
   18MOL   C85816872   0.284   7.891   0.105  0.2020 -0.2448  0.8568
   18MOL   O85916873   0.308   7.919   0.243 -0.2564 -0.1396  0.1021
   18MOL   C86016874   0.427   7.885   0.296 -0.9690 -0.5457 -0.1827
   18MOL   O86116875   0.517   7.832   0.235 -0.0397 -0.1906 -0.0864
   18MOL   C86216876   0.434   7.934   0.436  0.2403  0.2676 -0.8795
   18MOL   C86316877   0.331   0.026   0.502  0.6248 -0.5610 -0.1437
   18MOL   C86416878   0.344   0.087   0.633  0.0974 -0.4324 -0.1275
   18MOL   C86516879   0.460   0.047   0.707  0.0303  0.2960 -0.1479
   18MOL   C86616880   0.472   0.086   0.853 -0.7906 -0.1082 -0.2750
   18MOL   O86716881   0.576   0.117   0.908  0.3724  0.0227  0.1275
   18MOL   O86816882   0.347   0.078   0.919  0.1917 -0.0074 -0.1716
   18MOL   C86916883   0.570   7.957   0.645 -0.2162 -0.1808  0.0423
   18MOL   C87016884   0.556   7.925   0.506 -0.2690 -0.4830 -0.0189
   18MOL   H87116885   7.349   7.407   7.539  2.1391  0.8079  0.9441
   18MOL   H87216886   7.462   7.290   7.470 -0.3016 -0.3686 -0.6903
   18MOL   H87316887   7.495   7.593   7.511 -3.3901 -0.8345 -0.8018
   18MOL   H87416888   7.603   7.499   7.411 -0.3170  3.8424  0.1649
   18MOL   H87516889   7.579   7.454   7.713 -0.2386 -0.5249  0.3539
   18MOL   H87616890   7.668   7.357   7.608 -1.0200 -0.0118  0.0450
   18MOL   H87716891   7.713   7.659   7.615  2.0375  0.2413 -0.2310
   18MOL   H87816892   7.806   7.538   7.531 -0.0992 -1.9010  0.3102
   18MOL   H87916893   7.760   7.540   7.831 -0.7903  0.4901 -0.6204
   18MOL   H88016894   7.890   7.439   7.770  0.4063 -0.0867 -0.9737
   18MOL   H88116895   0.046   7.634   7.715 -0.9782 -2.0926 -0.7959
   18MOL   H88216896   7.888   7.744   7.757  2.7105  1.7826  2.9922
   18MOL   H88316897   7.909   7.673   0.010 -1.1440  3.5593 -2.3378
   18MOL   H88416898   0.054   7.552   7.955 -1.2689 -0.4876  1.0397
   18MOL   H88516899   0.200   7.721   7.865 -0.3289 -2.2095  0.4040
   18MOL   H88616900   0.077   7.845   7.889 -2.5093 -0.7501  0.3111
   18MOL   H88716901   0.225   7.689   0.133 -1.8789 -0.8164  0.7328
   18MOL   H88816902   0.101   7.813   0.158  1.3374 -0.0789  2.0781
   18MOL   H88916903   0.225   7.973   0.063 -0.7035 -1.1834  0.2791
   18MOL   H89016904   0.367   7.869   0.038 -0.2721  2.5956 -0.7735
   18MOL   H89116905   0.242   0.045   0.444  0.6384  0.6351  0.2121
   18MOL   H89216906   0.265   0.145   0.678 -0.9722 -0.4779 -1.8817
   18MOL   H89316907   0.663   7.937   0.695 -1.1425 -1.7282  1.1730
   18MOL   H89416908   0.634   7.876   0.450 -2.4876 -1.7171 -2.1120
   18MOL   O89516909   0.362   0.067   1.073  0.0843 -0.4691  0.1752
   18MOL   C89616910   0.309   0.187   1.132  0.1964  0.2108 -0.2255
   18MOL   C89716911   0.165   0.199   1.094 -0.0853  0.8230  0.4000
   18MOL   C89816912   0.106   0.322   1.168 -0.5503 -0.2868  0.0273
   18MOL   C89916913   7.929   0.317   1.161  0.9288  0.8163 -0.1154
   18MOL   C90016914   7.858   0.424   1.246 -0.3279 -0.8484 -0.8109
   18MOL   C90116915   7.721   0.374   1.298 -0.3047 -0.0988  0.3888
   18MOL   C90216916   7.658   0.486   1.393  0.4779  0.0135 -0.1815
   18MOL   C90316917   7.594   0.611   1.324 -0.0472 -0.2690 -0.0026
   18MOL   C90416918   7.541   0.727   1.411 -0.1387 -0.2833 -0.2211
   18MOL   C90516919   7.492   0.846   1.322 -0.3045  0.8444 -0.6138
   18MOL   O90616920   7.364   0.807   1.269 -0.5090 -0.5713 -0.3844
   18MOL   C90716921   7.253   0.855   1.320 -0.5364  0.2239  0.4977
   18MOL   O90816922   7.243   0.949   1.392 -0.2931  0.0728  0.0386
   18MOL   C90916923   7.136   0.773   1.273 -0.0884 -0.3394  0.4987
   18MOL   C91016924   7.006   0.823   1.286  0.0023 -0.1439  0.1048
   18MOL   C91116925   6.897   0.740   1.254  0.0289 -0.0795 -0.5243
   18MOL   C91216926   6.915   0.605   1.207  0.3313  0.4051  0.1828
   18MOL   C91316927   6.797   0.513   1.194 -0.3068 -0.5175  0.5682
   18MOL   O91416928   6.808   0.393   1.164 -0.3478  0.1137 -0.0888
   18MOL   O91516929   6.677   0.568   1.233 -0.2323 -0.0951  0.5556
   18MOL   C91616930   7.047   0.554   1.186  0.0354 -0.0544 -0.1494
   18MOL   C91716931   7.157   0.640   1.215 -0.0097  0.3080 -0.1791
   18MOL   H91816932   0.309   0.183   1.241  1.0062 -0.7739 -0.2563
   18MOL   H91916933   0.362   0.276   1.099 -2.5428  1.6908 -0.8593
   18MOL   H92016934   0.114   0.106   1.120 -1.0420  1.5820  1.3053
   18MOL   H92116935   0.167   0.214   0.986 -3.4390  0.9203  0.2770
   18MOL   H92216936   0.131   0.326   1.274  0.7692 -0.8728 -0.2507
   18MOL   H92316937   0.129   0.416   1.117 -1.7166 -0.1748 -0.3075
   18MOL   H92416938   7.892   0.217   1.183 -1.3148  1.5837 -0.2347
   18MOL   H92516939   7.906   0.335   1.056 -0.5509  0.3297  0.1205
   18MOL   H92616940   7.914   0.442   1.338 -0.1181 -0.7873 -0.9517
   18MOL   H92716941   7.844   0.522   1.200 -1.2214 -0.2699  0.6379
   18MOL   H92816942   7.651   0.355   1.217  0.0844 -2.9173  0.6695
   18MOL   H92916943   7.741   0.278   1.345  0.2494  0.6478  1.6849
   18MOL   H93016944   7.579   0.434   1.448  0.1598  0.4173 -0.2552
   18MOL   H93116945   7.722   0.507   1.478  0.7878 -0.4493 -0.3023
   18MOL   H93216946   7.668   0.659   1.260 -1.2930  0.6285 -0.8018
   18MOL   H93316947   7.510   0.570   1.268  1.1806 -1.0707 -1.2855
   18MOL   H93416948   7.628   0.769   1.462  0.0013 -0.2909 -0.4538
   18MOL   H93516949   7.472   0.684   1.483  2.6903 -3.0449  0.9304
   18MOL   H93616950   7.576   0.870   1.256  0.7770 -1.6238 -0.1696
   18MOL   H93716951   7.493   0.930   1.392 -1.6384  0.1162  0.3036
   18MOL   H93816952   6.981   0.927   1.300 -1.3896 -0.2952 -1.0588
   18MOL   H93916953   6.805   0.789   1.281  0.7788 -0.3454  2.6705
   18MOL   H94016954   7.063   0.453   1.150  2.4751  0.6673 -1.1643
   18MOL   H94116955   7.260   0.610   1.206 -0.1160 -0.5898  1.4800
   18MOL   H94216956   6.598   0.516   1.222  1.3442 -2.3592 -0.5101
   19MOL     O116957   7.219   6.215   1.859 -0.0914 -0.2279  0.3203
   19MOL     C216958   7.124   6.113   1.885 -0.3167  0.1764  0.3827
   19MOL     C316959   7.160   5.976   1.844  0.2521  0.3489  0.6149
   19MOL     C416960   7.173   5.961   1.689  0.0044  0.5452 -0.3120
   19MOL     C516961   7.046   5.905   1.632  0.7774  0.1158 -0.6944
   19MOL     C616962   7.054   5.887   1.485  0.0976 -0.3923 -0.7467
   19MOL     C716963   7.163   5.797   1.414  0.5375  1.0419 -0.5014
   19MOL     C816964   7.144   5.646   1.429 -0.0039 -0.2874  0.0469
   19MOL     C916965   7.210   5.595   1.554 -0.9660  0.2886  0.1301
   19MOL    C1016966   7.211   5.439   1.557 -0.0781  0.4489 -0.0412
   19MOL    C1116967   7.262   5.381   1.690 -0.7213 -0.0547  0.1442
   19MOL    O1216968   7.268   5.243   1.682  0.3873 -0.0392 -0.0181
   19MOL    C1316969   7.234   5.154   1.787 -0.2996 -0.5927  0.0235
   19MOL    O1416970   7.193   5.192   1.898 -0.6964 -0.0542  0.4438
   19MOL    C1516971   7.246   5.007   1.753 -0.5227  0.2553  0.0567
   19MOL    C1616972   7.286   4.959   1.621  0.2897  0.4539 -0.1115
   19MOL    C1716973   7.285   4.824   1.591 -0.1226  0.2784  0.0298
   19MOL    C1816974   7.255   4.722   1.684  0.7328 -0.1309  0.0796
   19MOL    C1916975   7.265   4.577   1.644 -0.2340  0.4652 -0.1096
   19MOL    O2016976   7.328   4.549   1.543 -0.2126  0.3226 -0.8814
   19MOL    O2116977   7.203   4.486   1.732  0.4672  0.5142 -0.2417
   19MOL    C2216978   7.216   4.768   1.811 -0.0505 -0.2103 -0.4184
   19MOL    C2316979   7.210   4.904   1.848 -0.3080 -0.1155  0.4199
   19MOL    H2416980   7.117   6.103   1.993  0.4260 -0.7564  0.3496
   19MOL    H2516981   7.024   6.140   1.852 -0.0452 -2.0522 -2.5033
   19MOL    H2616982   7.106   5.898   1.899  1.0978 -0.6360  0.0781
   19MOL    H2716983   7.262   5.959   1.878  0.8565 -1.5212 -1.9415
   19MOL    H2816984   7.194   6.059   1.648  0.7515  0.3601 -0.3871
   19MOL    H2916985   7.264   5.906   1.664  0.3681  0.4457  1.1473
   19MOL    H3016986   6.963   5.966   1.666  1.6084  1.1377 -0.4655
   19MOL    H3116987   7.017   5.808   1.672  0.4420  0.7548  0.6214
   19MOL    H3216988   6.956   5.859   1.445  0.3474  1.0412 -2.4070
   19MOL    H3316989   7.064   5.986   1.442  1.8442 -0.4936 -0.5972
   19MOL    H3416990   7.158   5.810   1.305  0.0970 -1.4357 -0.8008
   19MOL    H3516991   7.266   5.828   1.435  0.7085  0.2936 -0.2134
   19MOL    H3616992   7.038   5.620   1.430  0.3855 -2.0603 -1.0233
   19MOL    H3716993   7.195   5.607   1.341  3.4735  3.9584  0.0140
   19MOL    H3816994   7.315   5.625   1.550  0.7795 -5.4915 -1.8501
   19MOL    H3916995   7.162   5.628   1.646 -2.4151 -0.4529 -0.3340
   19MOL    H4016996   7.261   5.402   1.468  0.6289  0.5548  0.3053
   19MOL    H4116997   7.106   5.412   1.542  0.7917 -2.8737 -0.5939
   19MOL    H4216998   7.199   5.413   1.773 -3.8703 -0.3802 -2.0511
   19MOL    H4316999   7.360   5.421   1.717 -1.0933  0.3044  0.9967
   19MOL    H4417000   7.324   5.036   1.555 -0.4204  0.7283 -0.2017
   19MOL    H4517001   7.305   4.798   1.488  0.5312 -0.3130  0.3051
   19MOL    H4617002   7.205   4.696   1.890 -2.6143  0.4616 -0.1162
   19MOL    H4717003   7.184   4.927   1.950 -2.6433  0.8995 -0.3666
   19MOL    H4817004   7.227   6.229   1.766 -1.6290  1.5660  0.4333
   19MOL    O4917005   7.189   4.360   1.680 -0.3810 -0.1217 -0.2798
   19MOL    C5017006   7.231   4.258   1.770 -0.4566  1.0960 -0.0545
   19MOL    C5117007   7.373   4.271   1.826 -0.0253 -0.7117  0.4732
   19MOL    C5217008   7.478   4.331   1.734 -0.3148  0.2039  0.0833
   19MOL    C5317009   7.614   4.259   1.748 -0.5174  0.2638  0.1649
   19MOL    C5417010   7.724   4.328   1.678 -0.1709  0.2101  0.6917
   19MOL    C5517011   7.862   4.285   1.723 -0.1651 -0.7830  0.6047
   19MOL    C5617012   7.967   4.369   1.658 -0.4086  0.5390  0.0929
   19MOL    C5717013   0.134   4.313   1.681  0.6233 -0.7829  0.1304
   19MOL    C5817014   0.172   4.277   1.826 -0.0359  1.3664 -0.0117
   19MOL    C5917015   0.322   4.251   1.832 -0.2270  0.2458  0.3465
   19MOL    O6017016   0.367   4.241   1.968  0.0306 -0.4401  0.0372
   19MOL    C6117017   0.392   4.355   2.043  0.0641 -0.3240  0.7661
   19MOL    O6217018   0.378   4.463   1.985  0.0643  0.2864  0.0691
   19MOL    C6317019   0.438   4.326   2.182  0.5093 -0.8990 -0.1540
   19MOL    C6417020   0.397   4.204   2.243 -0.4162  0.6246 -0.2798
   19MOL    C6517021   0.420   4.189   2.378 -0.1803  0.9153  0.2329
   19MOL    C6617022   0.474   4.292   2.458  0.4511 -0.9062  0.0766
   19MOL    C6717023   0.493   4.275   2.603 -0.0575  0.9119 -0.3518
   19MOL    O6817024   0.480   4.168   2.663 -0.4855  0.0161  0.2270
   19MOL    O6917025   0.543   4.393   2.662  0.0014  0.0758 -0.4121
   19MOL    C7017026   0.514   4.412   2.395 -0.0327 -0.1589 -0.4228
   19MOL    C7117027   0.496   4.423   2.256  0.2673  0.2815  0.7506
   19MOL    H7217028   7.158   4.239   1.849 -0.1909 -1.3534 -0.3349
   19MOL    H7317029   7.219   4.157   1.730 -0.4165  0.0395  2.4886
   19MOL    H7417030   7.405   4.167   1.838  0.9361 -0.6457 -1.3581
   19MOL    H7517031   7.380   4.323   1.922  0.5000 -1.0224  0.6108
   19MOL    H7617032   7.444   4.337   1.631  0.2003 -0.6592 -0.1422
   19MOL    H7717033   7.504   4.433   1.765  0.7136 -0.2112  0.6312
   19MOL    H7817034   7.595   4.158   1.713 -0.1528  0.5030 -0.7317
   19MOL    H7917035   7.640   4.253   1.854  0.5000  1.7122  0.0209
   19MOL    H8017036   7.713   4.308   1.572 -1.6539  0.3224  0.8126
   19MOL    H8117037   7.729   4.435   1.700  0.4389  0.3938 -0.3372
   19MOL    H8217038   7.866   4.298   1.832  0.5699 -1.2072  0.6340
   19MOL    H8317039   7.879   4.181   1.696  3.6115  0.5555 -2.6346
   19MOL    H8417040   7.951   4.369   1.550  3.0304 -2.1852 -0.5397
   19MOL    H8517041   7.964   4.473   1.691 -2.9966  0.1967  1.0721
   19MOL    H8617042   0.143   4.224   1.619 -0.0897 -0.7430 -0.0377
   19MOL    H8717043   0.206   4.388   1.647 -1.1295  0.6591 -0.4426
   19MOL    H8817044   0.119   4.189   1.861 -1.2258  0.3718 -3.9779
   19MOL    H8917045   0.162   4.372   1.879 -2.7381  0.7335  0.6837
   19MOL    H9017046   0.380   4.331   1.787  0.8465 -0.5257  0.3353
   19MOL    H9117047   0.349   4.164   1.773  0.0961  1.5353 -1.4412
   19MOL    H9217048   0.351   4.119   2.196  0.9164 -2.8407  4.3073
   19MOL    H9317049   0.379   4.105   2.433  2.4029  0.9370  2.2766
   19MOL    H9417050   0.547   4.497   2.453  0.7926 -0.0391 -1.0613
   19MOL    H9517051   0.532   4.510   2.203 -0.2245  0.3181  0.4744
   19MOL    O9617052   0.576   4.376   2.805 -0.8989 -0.2937  0.1768
   19MOL    C9717053   0.716   4.352   2.817 -0.6429 -0.6549 -0.1464
   19MOL    C9817054   0.768   4.373   2.958 -0.2823  0.7531 -0.6027
   19MOL    C9917055   0.919   4.362   2.976 -0.4946 -0.0178  0.1694
   19MOL   C10017056   0.962   4.401   3.122 -0.5164  0.3952  0.0070
   19MOL   C10117057   1.106   4.366   3.153 -0.1744  1.0378 -0.6784
   19MOL   C10217058   1.206   4.446   3.071 -0.0832  0.2184  1.0401
   19MOL   C10317059   1.341   4.461   3.140  0.3226 -0.0772  0.1358
   19MOL   C10417060   1.453   4.519   3.051  0.0989 -0.4658 -0.2522
   19MOL   C10517061   1.598   4.519   3.111  0.3911  0.1169 -1.4416
   19MOL   C10617062   1.704   4.561   3.011  0.9522  0.2371  0.1592
   19MOL   O10717063   1.721   4.452   2.922  0.2726  0.1471 -0.0505
   19MOL   C10817064   1.743   4.480   2.789  0.3639 -0.0756 -0.4195
   19MOL   O10917065   1.744   4.591   2.739  0.7742  0.0618  0.5833
   19MOL   C11017066   1.746   4.355   2.708 -0.4966  0.3350 -1.1144
   19MOL   C11117067   1.733   4.226   2.765 -0.0002  0.6790 -0.8831
   19MOL   C11217068   1.754   4.108   2.686  0.0215  0.3256 -0.4504
   19MOL   C11317069   1.784   4.112   2.550  0.4928 -0.0373 -0.1788
   19MOL   C11417070   1.798   3.980   2.480  0.2571  0.3674  0.5205
   19MOL   O11517071   1.794   3.871   2.534 -0.2425  0.5644 -0.3953
   19MOL   O11617072   1.795   3.993   2.346  0.1623 -0.2785 -0.6527
   19MOL   C11717073   1.786   4.240   2.486  0.4707  0.1273 -0.1280
   19MOL   C11817074   1.769   4.357   2.568  0.1012 -1.0027  0.0140
   19MOL   H11917075   0.744   4.255   2.777 -0.8169  0.2463 -2.5436
   19MOL   H12017076   0.779   4.413   2.752 -0.3448 -0.8528 -0.0439
   19MOL   H12117077   0.717   4.318   3.037  4.3869  1.0130  2.8277
   19MOL   H12217078   0.747   4.479   2.973  0.5492  0.6764  1.1533
   19MOL   H12317079   0.949   4.258   2.962 -0.6876  0.1530 -1.6344
   19MOL   H12417080   0.969   4.421   2.899  0.2414 -2.0209 -0.9229
   19MOL   H12517081   0.909   4.347   3.202  1.9929 -0.2797  1.2566
   19MOL   H12617082   0.930   4.505   3.131 -0.4264  0.3767  0.5308
   19MOL   H12717083   1.120   4.393   3.258 -4.4496 -1.6658  0.7415
   19MOL   H12817084   1.123   4.259   3.158  0.6998  1.0639 -2.8499
   19MOL   H12917085   1.229   4.395   2.978  2.0690 -0.7632  2.0543
   19MOL   H13017086   1.158   4.542   3.056  0.1463  0.2416  0.4582
   19MOL   H13117087   1.337   4.510   3.238  2.7955 -0.2165  0.3401
   19MOL   H13217088   1.363   4.359   3.169  2.1234 -0.4069 -2.2538
   19MOL   H13317089   1.448   4.456   2.963  1.0496  1.5063 -1.7648
   19MOL   H13417090   1.430   4.621   3.019  2.7388  0.8549  1.8528
   19MOL   H13517091   1.630   4.434   3.171  0.0686 -0.4286 -2.0339
   19MOL   H13617092   1.609   4.602   3.181  0.9408 -0.5298 -0.7489
   19MOL   H13717093   1.802   4.591   3.048  0.2309  3.0456 -0.0936
   19MOL   H13817094   1.662   4.649   2.963  1.0509 -0.5514 -1.3986
   19MOL   H13917095   1.706   4.221   2.869 -2.6910  1.2705 -1.5286
   19MOL   H14017096   1.752   4.011   2.734 -0.6711  1.2849  1.5290
   19MOL   H14117097   1.817   4.268   2.386 -2.2783  2.1954 -0.4683
   19MOL   H14217098   1.771   4.454   2.520  0.6161 -0.3671  1.3069
   19MOL   O14317099   1.816   3.861   2.281  0.3234 -0.2147  0.3397
   19MOL   C14417100   1.942   3.861   2.216 -0.0582  0.1982  0.1076
   19MOL   C14517101   1.974   3.737   2.140  0.5958 -0.2519  0.3385
   19MOL   C14617102   1.858   3.686   2.044 -0.2226 -0.4733 -0.3086
   19MOL   C14717103   1.749   3.608   2.119  0.4741 -0.8897  0.9527
   19MOL   C14817104   1.635   3.542   2.042 -0.1090 -0.6878 -0.2532
   19MOL   C14917105   1.572   3.626   1.924 -0.1308 -0.2542 -0.3225
   19MOL   C15017106   1.428   3.588   1.903  1.1948 -0.0215 -0.2163
   19MOL   C15117107   1.352   3.682   1.813 -0.7987 -1.0849  0.3318
   19MOL   C15217108   1.192   3.670   1.811  0.2622  0.5471 -0.4631
   19MOL   C15317109   1.122   3.770   1.724 -0.4301  0.1892  0.1818
   19MOL   O15417110   1.123   3.899   1.792  0.1512 -0.4884  0.3122
   19MOL   C15517111   1.074   4.006   1.729  0.9016  0.5064  0.7909
   19MOL   O15617112   1.012   4.006   1.625 -0.3244 -0.4742  0.2688
   19MOL   C15717113   1.108   4.134   1.796 -0.3494  0.1260 -0.6876
   19MOL   C15817114   1.192   4.133   1.912 -0.0171  0.8963 -0.0513
   19MOL   C15917115   1.246   4.254   1.967  0.9258  0.2205 -0.0427
   19MOL   C16017116   1.227   4.375   1.892 -0.3141  0.5196  0.4757
   19MOL   C16117117   1.290   4.504   1.936  0.0834  0.1851  0.1038
   19MOL   O16217118   1.326   4.589   1.857 -0.4374  0.0321 -0.2052
   19MOL   O16317119   1.311   4.495   2.065 -0.3782  0.4028  0.1151
   19MOL   C16417120   1.158   4.371   1.770  0.1552 -0.2700 -0.3983
   19MOL   C16517121   1.100   4.252   1.724  0.1991  0.6455 -0.1526
   19MOL   H16617122   1.937   3.941   2.142  3.1655 -0.1049 -0.5104
   19MOL   H16717123   2.019   3.884   2.289 -2.0018  2.4650  1.5029
   19MOL   H16817124   1.995   3.650   2.204  1.5215  1.1022  1.9126
   19MOL   H16917125   2.069   3.749   2.088  1.2601 -0.1352  1.5641
   19MOL   H17017126   1.813   3.776   2.002 -0.4316  0.5343  2.0286
   19MOL   H17117127   1.887   3.622   1.960 -0.2328 -2.8225  1.4380
   19MOL   H17217128   1.696   3.673   2.189 -2.3765 -1.4757 -0.6025
   19MOL   H17317129   1.784   3.528   2.184 -0.9893  0.2139  3.1671
   19MOL   H17417130   1.684   3.456   1.997  1.8695  0.5725 -0.5934
   19MOL   H17517131   1.552   3.512   2.107 -1.1254 -1.6627 -1.9721
   19MOL   H17617132   1.583   3.733   1.939 -1.9117  0.6431 -4.6280
   19MOL   H17717133   1.625   3.603   1.832  1.4419  1.6181  0.0970
   19MOL   H17817134   1.412   3.486   1.869  1.8263 -0.3564  0.4685
   19MOL   H17917135   1.382   3.586   2.002 -1.7329 -1.3522 -1.5479
   19MOL   H18017136   1.378   3.784   1.844 -2.0425  0.3674 -3.1479
   19MOL   H18117137   1.389   3.674   1.711  1.2919  2.8023  0.6971
   19MOL   H18217138   1.169   3.691   1.915  0.9860 -0.9665  0.0081
   19MOL   H18317139   1.171   3.566   1.787 -0.3614  0.7907 -0.9752
   19MOL   H18417140   1.014   3.755   1.715 -0.2587 -0.1769 -1.2340
   19MOL   H18517141   1.167   3.776   1.625  0.2718 -0.7721  0.4363
   19MOL   H18617142   1.205   4.046   1.975  1.0204  1.6556  0.8084
   19MOL   H18717143   1.300   4.256   2.061  1.0947  0.2758 -0.1396
   19MOL   H18817144   1.156   4.460   1.709  0.2505 -0.4976 -0.7346
   19MOL   H18917145   1.056   4.252   1.625 -1.3708  0.1401  0.5232
   19MOL   O19017146   1.394   4.614   2.118 -0.4241  0.0561 -0.0457
   19MOL   C19117147   1.312   4.706   2.184  0.1040  0.1065 -0.1053
   19MOL   C19217148   1.402   4.829   2.220 -0.7023  0.7258 -0.0474
   19MOL   C19317149   1.331   4.957   2.273 -0.1900 -0.5542 -0.8774
   19MOL   C19417150   1.375   5.004   2.412  0.1371  0.1586 -0.2069
   19MOL   C19517151   1.305   5.132   2.452  0.2996  0.7114 -0.3685
   19MOL   C19617152   1.370   5.191   2.581 -0.0050  0.0927  0.3065
   19MOL   C19717153   1.288   5.299   2.652  0.5872  0.4864  0.2037
   19MOL   C19817154   1.255   5.419   2.572 -0.5459  0.2109 -0.0205
   19MOL   C19917155   1.196   5.530   2.660 -0.2409  1.0068 -0.0401
   19MOL   C20017156   1.143   5.647   2.573 -0.1434 -0.0660  0.3933
   19MOL   O20117157   1.110   5.760   2.653  0.0447 -0.5297  0.2454
   19MOL   C20217158   1.005   5.752   2.735 -0.3317  0.5103 -0.0303
   19MOL   O20317159   0.928   5.657   2.737  0.1453 -0.2069  0.9898
   19MOL   C20417160   0.993   5.877   2.808  0.1394 -0.5048 -0.0091
   19MOL   C20517161   1.096   5.975   2.800  0.0211  0.5644 -0.5417
   19MOL   C20617162   1.079   6.093   2.872 -0.7572  0.5146 -0.8432
   19MOL   C20717163   0.969   6.122   2.950  0.1907 -0.4030 -0.0628
   19MOL   C20817164   0.965   6.255   3.019 -0.0680 -0.3584 -0.2769
   19MOL   O20917165   1.055   6.335   3.008 -0.0122 -0.0301 -0.3818
   19MOL   O21017166   0.850   6.272   3.101 -0.3176 -0.3985 -0.0439
   19MOL   C21117167   0.871   6.024   2.964  0.0590 -0.4243  0.0816
   19MOL   C21217168   0.886   5.895   2.898  0.7054 -0.4313 -0.0578
   19MOL   H21317169   1.225   4.750   2.134 -0.5262 -0.3412  0.5881
   19MOL   H21417170   1.275   4.663   2.277  3.2247  0.0332  1.1627
   19MOL   H21517171   1.451   4.869   2.131  1.2584  1.5859  1.3798
   19MOL   H21617172   1.482   4.802   2.289  0.3241 -0.5737 -1.7140
   19MOL   H21717173   1.333   5.040   2.202  0.4117 -1.2068 -1.6341
   19MOL   H21817174   1.223   4.954   2.284 -0.0500 -0.2411  0.7272
   19MOL   H21917175   1.483   5.016   2.415  0.2915 -1.3364  1.2350
   19MOL   H22017176   1.365   4.925   2.488  0.1505  0.5462  0.1991
   19MOL   H22117177   1.319   5.210   2.377 -0.3358 -0.0412 -1.2813
   19MOL   H22217178   1.202   5.107   2.476  1.1377 -2.6986 -0.0807
   19MOL   H22317179   1.385   5.104   2.645 -0.5721 -2.1190 -2.4854
   19MOL   H22417180   1.468   5.229   2.550 -1.4156  3.1330 -0.6012
   19MOL   H22517181   1.195   5.251   2.683 -0.5928  0.7805 -2.7607
   19MOL   H22617182   1.344   5.329   2.741 -0.9267  1.1019  0.9746
   19MOL   H22717183   1.344   5.459   2.522  0.1068  0.5862  1.4119
   19MOL   H22817184   1.177   5.397   2.500 -0.5233 -0.1517  0.0635
   19MOL   H22917185   1.282   5.559   2.720  0.8953 -1.6112 -0.3259
   19MOL   H23017186   1.115   5.490   2.721  0.1295 -1.4234 -1.0551
   19MOL   H23117187   1.064   5.601   2.513 -1.3320 -0.5536  2.2925
   19MOL   H23217188   1.230   5.675   2.513  0.9564  0.6893  2.3253
   19MOL   H23317189   1.187   5.961   2.744  0.9617 -0.4516  1.1770
   19MOL   H23417190   1.158   6.166   2.872 -0.5820  0.3238 -0.6746
   19MOL   H23517191   0.785   6.038   3.028 -1.7894 -2.4523 -1.8499
   19MOL   H23617192   0.808   5.820   2.897  1.0139 -0.7587  0.1387
   19MOL   O23717193   0.819   6.416   3.154  0.0700  0.2296 -0.1546
   19MOL   C23817194   0.838   6.420   3.293 -0.3539 -0.5585 -0.1924
   19MOL   C23917195   0.705   6.372   3.358  0.0116  0.5334  0.8265
   19MOL   C24017196   0.716   6.374   3.509  0.3177 -0.7624  0.9072
   19MOL   C24117197   0.580   6.349   3.570 -0.0217 -0.3701 -0.6222
   19MOL   C24217198   0.577   6.357   3.733  0.0590  0.3086 -0.1210
   19MOL   C24317199   0.665   6.243   3.792 -0.3062 -0.1049  0.9315
   19MOL   C24417200   0.681   6.266   3.953  0.3612 -0.1803  0.0546
   19MOL   C24517201   0.722   6.142   4.041  0.4860  0.2259  0.3331
   19MOL   C24617202   0.876   6.144   4.071  0.4940 -0.3801 -0.3833
   19MOL   C24717203   0.973   6.142   3.955 -0.1237  0.0958  0.5903
   19MOL   O24817204   0.955   6.023   3.874  0.3173 -0.1452 -0.3682
   19MOL   C24917205   1.025   6.006   3.761  0.3667 -0.7979  0.1481
   19MOL   O25017206   1.124   6.069   3.721  0.1578 -0.2080 -0.4726
   19MOL   C25117207   0.969   5.888   3.689 -0.2462  0.5295  0.4412
   19MOL   C25217208   1.053   5.826   3.591 -0.8082 -0.2772  0.0959
   19MOL   C25317209   1.001   5.713   3.527  0.7866  0.5336 -0.1063
   19MOL   C25417210   0.871   5.662   3.553  0.4777  0.0869  0.5630
   19MOL   C25517211   0.822   5.545   3.480 -0.0349  0.0142  0.6392
   19MOL   O25617212   0.886   5.499   3.389 -0.1976 -0.1869 -0.3653
   19MOL   O25717213   0.704   5.499   3.521 -0.0975  0.0501 -0.2254
   19MOL   C25817214   0.790   5.729   3.648  0.8919 -0.0214 -0.1517
   19MOL   C25917215   0.837   5.847   3.708 -0.4187  0.0346  0.3987
   19MOL   H26017216   0.928   6.372   3.332 -0.5693  0.0785  1.1395
   19MOL   H26117217   0.861   6.523   3.322  0.0206 -1.2737  2.1902
   19MOL   H26217218   0.676   6.275   3.318  1.5435  1.5210 -2.8310
   19MOL   H26317219   0.638   6.453   3.331 -1.9885 -1.0656  0.8283
   19MOL   H26417220   0.794   6.301   3.531  1.8033 -0.0688 -1.7844
   19MOL   H26517221   0.764   6.469   3.535  3.9503 -1.8663 -1.3740
   19MOL   H26617222   0.538   6.254   3.537  0.9985 -1.2775  0.6701
   19MOL   H26717223   0.507   6.426   3.546  0.2421  0.4302  1.0604
   19MOL   H26817224   0.611   6.458   3.755 -0.2498  0.8979 -2.2558
   19MOL   H26917225   0.474   6.363   3.767 -0.3020 -0.3308 -1.0680
   19MOL   H27017226   0.623   6.147   3.764 -0.2031  0.9018 -2.8461
   19MOL   H27117227   0.764   6.242   3.747 -0.8121 -0.2227 -0.1887
   19MOL   H27217228   0.753   6.348   3.956 -0.1194  0.2793 -0.9389
   19MOL   H27317229   0.591   6.303   4.001  0.7386  2.8996 -1.4806
   19MOL   H27417230   0.677   6.134   4.140 -1.1382 -0.1817 -0.4178
   19MOL   H27517231   0.692   6.053   3.985 -0.8523  1.7140 -1.4055
   19MOL   H27617232   0.905   6.055   4.127  0.6034 -0.1666 -0.0995
   19MOL   H27717233   0.891   6.232   4.134 -0.3509  0.9049 -1.9566
   19MOL   H27817234   1.069   6.119   4.000 -0.7253 -2.6816  0.5574
   19MOL   H27917235   0.976   6.226   3.885  1.2316 -0.4064  0.0239
   19MOL   H28017236   1.149   5.871   3.569 -0.4851 -0.0919  1.8473
   19MOL   H28117237   1.065   5.677   3.448  1.6701 -0.0872  0.8862
   19MOL   H28217238   0.688   5.699   3.664  0.2532  1.4777 -1.2502
   19MOL   H28317239   0.770   5.884   3.784 -0.5829 -2.0371  1.3181
   19MOL   O28417240   0.663   5.366   3.462 -0.3337  0.2222 -0.3926
   19MOL   C28517241   0.576   5.391   3.359  0.4599  0.2905  0.3303
   19MOL   C28617242   0.549   5.256   3.289  0.2874 -0.1774  0.8294
   19MOL   C28717243   0.431   5.269   3.188 -0.4076  0.5508  0.6286
   19MOL   C28817244   0.308   5.203   3.239  0.4434 -0.3198 -0.0050
   19MOL   C28917245   0.201   5.184   3.123  1.0304  0.4572  0.1789
   19MOL   C29017246   0.079   5.107   3.178  0.0137 -0.0032  0.4153
   19MOL   C29117247   0.105   4.957   3.179  0.1486 -0.0388 -0.3302
   19MOL   C29217248   7.959   4.888   3.235  0.2623  0.6302 -0.3680
   19MOL   C29317249   0.010   4.734   3.247  0.2268 -0.8560  0.2757
   19MOL   C29417250   7.868   4.656   3.300 -0.0743 -0.6579  0.5662
   19MOL   O29517251   7.907   4.519   3.304 -0.5035  1.1096 -0.0985
   19MOL   C29617252   7.958   4.465   3.414  0.0608  0.3950  0.3269
   19MOL   O29717253   0.007   4.518   3.516  0.7445  0.2674  0.1161
   19MOL   C29817254   0.013   4.319   3.382  0.3339 -0.2914 -0.4337
   19MOL   C29917255   0.106   4.243   3.465 -0.1081  0.0537  0.5094
   19MOL   C30017256   0.135   4.112   3.442 -0.4691  0.1596  0.4729
   19MOL   C30117257   0.075   4.037   3.334 -0.6899 -0.9866 -0.8146
   19MOL   C30217258   0.108   3.897   3.302 -0.5347  0.2066 -0.4794
   19MOL   O30317259   0.053   3.821   3.224 -0.6025 -0.4690  0.2599
   19MOL   O30417260   0.218   3.857   3.360  0.5534 -0.2231 -0.0830
   19MOL   C30517261   7.955   4.111   3.259  0.1039 -0.3623  0.3097
   19MOL   C30617262   7.926   4.244   3.285  0.6384 -0.0246 -0.0327
   19MOL   H30717263   0.488   5.429   3.411 -0.1201  1.8238 -1.7305
   19MOL   H30817264   0.616   5.462   3.287  0.1727 -0.8732 -0.9959
   19MOL   H30917265   0.523   5.177   3.360  1.0737 -0.6942  0.5476
   19MOL   H31017266   0.643   5.239   3.237  0.6469  1.6184  0.8402
   19MOL   H31117267   0.418   5.370   3.149 -0.7087 -0.6265 -2.4972
   19MOL   H31217268   0.461   5.199   3.110  0.1492  2.3092 -0.7675
   19MOL   H31317269   0.267   5.259   3.323  1.1962  0.3919 -0.0896
   19MOL   H31417270   0.336   5.107   3.281 -0.9753 -0.8154 -0.1882
   19MOL   H31517271   0.155   5.279   3.099 -1.3960 -0.5349  0.8224
   19MOL   H31617272   0.238   5.139   3.031 -3.5857 -0.1213 -1.4745
   19MOL   H31717273   0.047   5.137   3.277  0.1147 -2.4766  1.2289
   19MOL   H31817274   7.970   5.119   3.113 -0.7594 -0.8198  1.2874
   19MOL   H31917275   0.114   4.913   3.080 -0.1070 -0.7016 -0.0613
   19MOL   H32017276   0.194   4.931   3.236 -1.5831 -1.3023  1.8695
   19MOL   H32117277   7.933   4.921   3.335  0.3752 -0.0832 -0.1029
   19MOL   H32217278   7.871   4.892   3.170  1.2056  0.1383 -1.7213
   19MOL   H32317279   0.103   4.714   3.300  0.7636  0.5141 -0.1149
   19MOL   H32417280   0.038   4.695   3.149  1.2100 -1.7612  0.9162
   19MOL   H32517281   7.776   4.675   3.244 -0.3309  3.8344  2.2472
   19MOL   H32617282   7.840   4.690   3.400 -0.0613 -0.2915  0.4481
   19MOL   H32717283   0.166   4.292   3.541 -0.6018  2.3855 -0.5702
   19MOL   H32817284   0.196   4.057   3.512  0.4871  0.2553 -0.2846
   19MOL   H32917285   7.905   4.063   3.177  1.6119  0.5737 -1.1902
   19MOL   H33017286   7.841   4.281   3.230  1.0527 -0.3946 -0.9333
   19MOL   O33117287   0.274   3.722   3.321  0.2514  0.5963  0.3769
   19MOL   C33217288   0.362   3.755   3.215 -1.1099 -0.4364  0.4830
   19MOL   C33317289   0.431   3.621   3.189  0.2599 -0.6003  0.0707
   19MOL   C33417290   0.499   3.621   3.047 -0.2394  0.5328 -0.0853
   19MOL   C33517291   0.574   3.490   3.025  0.0179  0.0645  0.1555
   19MOL   C33617292   0.667   3.506   2.906  0.2388  0.1315  0.4033
   19MOL   C33717293   0.591   3.494   2.772  0.1547 -0.1070 -0.1464
   19MOL   C33817294   0.682   3.486   2.651  0.2315  0.0942  0.5115
   19MOL   C33917295   0.714   3.344   2.607  0.5730  1.1219  0.2544
   19MOL   C34017296   0.815   3.320   2.499  0.3635 -0.7114  0.0756
   19MOL   C34117297   0.816   3.180   2.429 -0.1851 -0.8924 -1.1410
   19MOL   O34217298   0.924   3.164   2.337 -0.1677 -0.0453 -0.2818
   19MOL   C34317299   0.914   3.211   2.216  0.2736 -0.2645  0.0781
   19MOL   O34417300   0.819   3.279   2.172  0.1535 -0.2057 -0.4899
   19MOL   C34517301   1.032   3.183   2.136 -0.8411  0.6674  0.1721
   19MOL   C34617302   1.068   3.268   2.033  0.2141 -0.1363  0.7376
   19MOL   C34717303   1.188   3.258   1.968  0.6450 -0.0465  0.2538
   19MOL   C34817304   1.285   3.159   2.002 -0.4584  0.5062  0.4835
   19MOL   C34917305   1.410   3.152   1.925 -0.0417  0.5861 -0.0438
   19MOL   O35017306   1.446   3.223   1.829  0.1925  0.0066  0.1363
   19MOL   O35117307   1.497   3.056   1.973  0.1452 -0.1937 -0.9711
   19MOL   C35217308   1.254   3.074   2.110 -0.7793 -0.2513  0.4861
   19MOL   C35317309   1.124   3.087   2.172 -0.1525 -0.0871  0.0386
   19MOL   H35417310   0.303   3.792   3.131 -0.2272 -2.0887 -0.8644
   19MOL   H35517311   0.431   3.834   3.245 -0.7446 -0.4548 -0.3144
   19MOL   H35617312   0.363   3.536   3.195  0.8917 -1.1979 -1.0104
   19MOL   H35717313   0.508   3.600   3.263  1.1554  1.6784 -0.1725
   19MOL   H35817314   0.429   3.626   2.963  0.3852 -1.3463 -0.7270
   19MOL   H35917315   0.568   3.703   3.067  2.1358 -1.3125 -0.4455
   19MOL   H36017316   0.504   3.408   3.014 -0.3451  0.0339  2.3819
   19MOL   H36117317   0.642   3.463   3.107  1.0694 -0.0041 -0.7198
   19MOL   H36217318   0.726   3.596   2.921 -2.0656  1.6286  0.8744
   19MOL   H36317319   0.738   3.424   2.908  0.1537  0.0022 -1.5417
   19MOL   H36417320   0.510   3.421   2.775  1.7243 -1.8393  0.9684
   19MOL   H36517321   0.525   3.580   2.757 -1.4675 -1.5339 -1.5081
   19MOL   H36617322   0.629   3.541   2.574  1.2603 -0.3137 -0.4980
   19MOL   H36717323   0.776   3.539   2.668  0.7582 -0.2324 -1.3272
   19MOL   H36817324   0.743   3.292   2.698 -0.6732 -1.8456 -0.9795
   19MOL   H36917325   0.614   3.317   2.574  0.2069  0.2217  2.0115
   19MOL   H37017326   0.914   3.349   2.534  0.1943  0.5111 -0.4484
   19MOL   H37117327   0.798   3.390   2.418  0.8174  1.4101  1.7727
   19MOL   H37217328   0.717   3.157   2.388 -1.2397 -0.7222  1.2405
   19MOL   H37317329   0.823   3.110   2.512 -0.6847 -0.5828 -0.8330
   19MOL   H37417330   1.001   3.341   1.990  0.2632 -1.4911 -1.7366
   19MOL   H37517331   1.201   3.328   1.886 -1.6793 -0.5831 -0.5991
   19MOL   H37617332   1.324   3.001   2.146 -1.3145 -0.9314  0.1521
   19MOL   H37717333   1.092   3.018   2.248 -0.0094  1.4296  1.4896
   19MOL   O37817334   1.642   3.089   1.934  0.6518 -0.1356 -0.0323
   19MOL   C37917335   1.682   3.010   1.820  0.6310 -0.7181 -0.5716
   19MOL   C38017336   1.669   2.860   1.859 -0.3681 -0.1257 -0.0636
   19MOL   C38117337   1.716   2.781   1.737 -0.3825 -0.3239  0.1263
   19MOL   C38217338   1.719   2.627   1.756  0.0672 -0.3345  0.1417
   19MOL   C38317339   1.579   2.562   1.765  0.0380 -0.1146  0.7959
   19MOL   C38417340   1.510   2.568   1.630 -0.3279  0.5039  0.2132
   19MOL   C38517341   1.374   2.495   1.641  0.3449  0.1370 -0.2725
   19MOL   C38617342   1.308   2.486   1.508 -0.6147 -0.6087 -0.2458
   19MOL   C38717343   1.179   2.417   1.525  0.0509 -0.3578 -0.7118
   19MOL   C38817344   1.081   2.403   1.410  0.5733  0.2976  0.3759
   19MOL   O38917345   1.024   2.527   1.364 -0.2944 -0.2805  0.6922
   19MOL   C39017346   0.941   2.530   1.262 -0.0499  0.7191 -0.4648
   19MOL   O39117347   0.918   2.433   1.190  0.7730  0.2089 -0.4313
   19MOL   C39217348   0.880   2.665   1.227 -0.1913  1.4581  0.2223
   19MOL   C39317349   0.812   2.681   1.104  0.5197  0.4134  0.0718
   19MOL   C39417350   0.752   2.808   1.067 -0.7093  0.3097  0.3792
   19MOL   C39517351   0.757   2.913   1.160  0.0342  0.3233 -0.7211
   19MOL   C39617352   0.695   3.045   1.139 -0.1389 -0.9642  0.5411
   19MOL   O39717353   0.709   3.144   1.211 -0.0390 -0.1595 -0.3919
   19MOL   O39817354   0.618   3.041   1.025 -0.2698 -0.0740 -0.0350
   19MOL   C39917355   0.821   2.897   1.289 -0.0830  0.5788  0.1482
   19MOL   C40017356   0.882   2.771   1.315 -0.0373  0.3976 -0.7887
   19MOL   H40117357   1.619   3.032   1.734 -1.1401  0.2195  0.9344
   19MOL   H40217358   1.788   3.022   1.800  0.2832  0.5256 -1.7659
   19MOL   H40317359   1.577   2.823   1.905  1.8862 -3.8311  1.6844
   19MOL   H40417360   1.726   2.843   1.950  0.2570  2.3727  0.0462
   19MOL   H40517361   1.663   2.814   1.647  1.3051 -0.6136 -0.9985
   19MOL   H40617362   1.815   2.818   1.711 -0.6222 -1.2315 -2.2095
   19MOL   H40717363   1.776   2.596   1.843 -0.8608 -0.7217  0.6168
   19MOL   H40817364   1.766   2.584   1.667 -1.3324 -4.4749  1.3040
   19MOL   H40917365   1.596   2.459   1.796 -1.0327 -0.5410 -0.0045
   19MOL   H41017366   1.520   2.613   1.840 -1.3814 -0.5207 -0.0325
   19MOL   H41117367   1.500   2.669   1.593  0.2136 -0.8398 -3.8612
   19MOL   H41217368   1.581   2.527   1.558 -0.6232  1.5451 -0.6727
   19MOL   H41317369   1.386   2.398   1.688  1.8589  0.2315 -0.4389
   19MOL   H41417370   1.303   2.539   1.711  0.2276 -1.3119  0.5461
   19MOL   H41517371   1.296   2.588   1.472 -1.1109 -0.0924  1.3133
   19MOL   H41617372   1.370   2.426   1.442 -0.5902  0.0155 -0.7862
   19MOL   H41717373   1.135   2.470   1.609  1.1748 -2.0905  0.9999
   19MOL   H41817374   1.196   2.313   1.550  2.1602  0.4923  1.5632
   19MOL   H41917375   1.000   2.339   1.445  1.0688 -0.9342 -0.7305
   19MOL   H42017376   1.140   2.358   1.331  0.5419 -0.0978  0.5782
   19MOL   H42117377   0.814   2.593   1.042  3.0057 -0.2191  1.0149
   19MOL   H42217378   0.712   2.820   0.967  2.2359  1.4851 -0.7126
   19MOL   H42317379   0.821   2.982   1.357  1.1075  1.2284 -0.6424
   19MOL   H42417380   0.936   2.760   1.408 -0.7892  1.4210 -0.2299
   19MOL   O42517381   0.531   3.170   1.003  0.2145 -0.0786  0.8691
   19MOL   C42617382   0.403   3.144   1.056 -0.3828  0.3508 -0.0157
   19MOL   C42717383   0.328   3.031   0.994 -0.0886 -0.3280 -0.2148
   19MOL   C42817384   0.283   3.065   0.848  0.0369  0.0200  0.3840
   19MOL   C42917385   0.206   2.956   0.786  0.0745 -0.2285  0.4064
   19MOL   C43017386   0.210   2.973   0.629  0.1941  0.0196 -0.0201
   19MOL   C43117387   0.166   2.845   0.563  0.1184 -0.1669 -0.9238
   19MOL   C43217388   0.014   2.811   0.581 -0.7321  0.3847 -0.0322
   19MOL   C43317389   7.959   2.678   0.504  0.3614 -0.2063  0.4921
   19MOL   C43417390   7.817   2.627   0.502  0.2508  1.1574  0.0216
   19MOL   C43517391   7.804   2.507   0.406  0.3127 -0.1589  0.1992
   19MOL   O43617392   7.670   2.460   0.389  0.6602  0.4970 -0.2062
   19MOL   C43717393   7.630   2.411   0.268  0.1666 -0.0405  0.4574
   19MOL   O43817394   7.692   2.418   0.165 -0.2311  0.0146  0.1821
   19MOL   C43917395   7.498   2.344   0.287 -0.3847  0.5624 -0.3611
   19MOL   C44017396   7.419   2.345   0.405  0.4428 -0.3371  0.0267
   19MOL   C44117397   7.291   2.285   0.420  0.4497  0.0874 -0.1769
   19MOL   C44217398   7.239   2.203   0.310 -0.4248 -0.8979 -0.1322
   19MOL   C44317399   7.115   2.122   0.316  0.1493  0.2719 -0.6473
   19MOL   O44417400   7.078   2.036   0.232  0.1788 -0.0830 -0.4678
   19MOL   O44517401   7.044   2.151   0.426  0.2735  0.0412 -0.0151
   19MOL   C44617402   7.318   2.208   0.189  0.1645  0.2721  0.5327
   19MOL   C44717403   7.445   2.273   0.175  0.1366  0.5926 -0.4637
   19MOL   H44817404   0.398   3.119   1.162 -1.6705 -2.3371 -0.6697
   19MOL   H44917405   0.343   3.235   1.052  0.9227  1.2805  1.1313
   19MOL   H45017406   0.244   3.005   1.058 -1.2937  2.1415 -0.7281
   19MOL   H45117407   0.390   2.942   0.982 -2.4827 -1.8887 -1.3876
   19MOL   H45217408   0.209   3.145   0.853  0.9981  0.8938  0.8018
   19MOL   H45317409   0.373   3.097   0.795  0.5015 -0.0342  1.1447
   19MOL   H45417410   0.104   2.946   0.823  0.5065 -0.5854  1.5201
   19MOL   H45517411   0.249   2.864   0.826 -1.3159 -1.2292 -0.3506
   19MOL   H45617412   0.147   3.058   0.604  0.8076  0.0563 -1.4812
   19MOL   H45717413   0.313   2.994   0.604 -0.0090  1.2790  0.1816
   19MOL   H45817414   0.197   2.833   0.459  1.8203  1.5506 -0.6463
   19MOL   H45917415   0.230   2.765   0.600 -1.7353 -1.3230 -0.1678
   19MOL   H46017416   0.004   2.791   0.688 -1.1080  0.3859 -0.0665
   19MOL   H46117417   7.927   2.893   0.551 -0.2729 -0.3409 -3.1344
   19MOL   H46217418   0.009   2.687   0.399  0.5703  0.3149  0.5902
   19MOL   H46317419   0.050   2.606   0.546 -1.1451 -1.7787  0.3458
   19MOL   H46417420   7.759   2.703   0.449 -0.3929  0.4512 -0.2923
   19MOL   H46517421   7.777   2.616   0.603 -1.0599 -1.1363 -0.7027
   19MOL   H46617422   7.873   2.430   0.442 -2.0913 -2.6850 -0.3811
   19MOL   H46717423   7.846   2.537   0.310  1.7905 -0.9018  0.6042
   19MOL   H46817424   7.452   2.402   0.490  0.5485  2.7156 -1.9869
   19MOL   H46917425   7.232   2.307   0.508  1.8877 -1.9143  1.3350
   19MOL   H47017426   7.287   2.159   0.098 -0.9571 -0.3225  1.2255
   19MOL   H47117427   7.499   2.276   0.082  1.3696 -0.2318  0.2158
   19MOL   O47217428   6.897   2.111   0.411  0.2729 -0.2008  1.1292
   19MOL   C47317429   6.823   2.213   0.343 -0.1475  0.0099  0.3713
   19MOL   C47417430   6.740   2.289   0.448  0.7294 -0.3675 -0.1523
   19MOL   C47517431   6.697   2.426   0.395 -0.8153 -0.0239 -0.2343
   19MOL   C47617432   6.817   2.513   0.355 -0.2064 -0.1194 -0.6713
   19MOL   C47717433   6.941   2.516   0.458 -0.3397 -0.3781  0.2498
   19MOL   C47817434   7.046   2.619   0.417 -0.5583 -0.7732 -0.8648
   19MOL   C47917435   7.165   2.625   0.508  0.0509 -0.2844 -0.1653
   19MOL   C48017436   7.267   2.733   0.465  0.0452  0.4599 -0.1786
   19MOL   C48117437   7.368   2.752   0.575  0.5168  0.0164 -0.1322
   19MOL   C48217438   7.464   2.864   0.534 -0.0659 -0.2453 -0.7530
   19MOL   O48317439   7.534   2.910   0.649  0.3696  0.1772  0.3318
   19MOL   C48417440   7.633   3.000   0.637  0.0524  0.4922  0.0378
   19MOL   O48517441   7.682   3.048   0.535  0.2828  0.3952  0.5029
   19MOL   C48617442   7.683   3.030   0.775  0.3310 -0.4335 -0.7247
   19MOL   C48717443   7.797   3.113   0.781 -0.1467 -0.3778 -0.0063
   19MOL   C48817444   7.852   3.148   0.904 -0.2103 -0.0485 -0.1182
   19MOL   C48917445   7.793   3.097   1.021 -0.4619  0.1671  0.7200
   19MOL   C49017446   7.860   3.135   1.153  0.6910  1.0955  0.2581
   19MOL   O49117447   7.976   3.172   1.169 -0.7142  0.0689 -0.1420
   19MOL   O49217448   7.783   3.110   1.259  0.5057 -0.5271  0.8347
   19MOL   C49317449   7.670   3.020   1.019 -0.2552  0.1650  0.0931
   19MOL   C49417450   7.610   2.995   0.892  0.5348  0.6949 -0.2276
   19MOL   H49517451   6.885   2.273   0.276  2.1319 -0.7487  1.7416
   19MOL   H49617452   6.755   2.159   0.277  0.1694  0.5165 -0.3887
   19MOL   H49717453   6.794   2.303   0.541 -1.0315  2.7520  0.4812
   19MOL   H49817454   6.646   2.238   0.468  1.4783 -1.9833 -0.6650
   19MOL   H49917455   6.622   2.436   0.317  0.3413  3.1499 -0.9995
   19MOL   H50017456   6.649   2.466   0.484 -1.2483 -1.8840  0.4036
   19MOL   H50117457   6.776   2.614   0.350  0.1121  0.1043  1.0410
   19MOL   H50217458   6.860   2.485   0.259  1.7211  1.8153 -0.3905
   19MOL   H50317459   6.905   2.537   0.558  2.2079 -1.3772  1.4167
   19MOL   H50417460   6.994   2.420   0.461  0.5791  0.1406  0.7511
   19MOL   H50517461   7.081   2.592   0.317  1.8419 -1.0756  0.0153
   19MOL   H50617462   6.993   2.713   0.402  0.0467 -0.4347 -0.8868
   19MOL   H50717463   7.136   2.651   0.610  1.2490  1.2419 -0.2019
   19MOL   H50817464   7.206   2.524   0.501 -1.7524 -1.1028  0.6062
   19MOL   H50917465   7.316   2.697   0.374 -0.9890 -0.6719 -0.3021
   19MOL   H51017466   7.209   2.822   0.444 -3.4244 -1.6428  0.1043
   19MOL   H51117467   7.421   2.662   0.607 -1.2952 -1.1666 -0.4042
   19MOL   H51217468   7.313   2.786   0.663 -1.2595 -0.2158 -1.1333
   19MOL   H51317469   7.417   2.952   0.489  0.8032  0.1046 -0.9682
   19MOL   H51417470   7.530   2.821   0.459  1.7702  0.0325  0.6643
   19MOL   H51517471   7.840   3.144   0.687 -1.5460 -1.8460 -1.1767
   19MOL   H51617472   7.929   3.224   0.904 -1.1395  0.9147 -1.1975
   19MOL   H51717473   7.602   2.994   1.099 -0.7718  0.4728 -0.2437
   19MOL   H51817474   7.519   2.937   0.886  0.2475  1.0011  1.1118
   19MOL   O51917475   7.845   3.118   1.394 -0.5175  0.0038  0.3404
   19MOL   C52017476   7.792   3.237   1.456  0.2977 -0.0019 -0.2095
   19MOL   C52117477   7.841   3.226   1.598 -0.0285 -0.1645 -0.5821
   19MOL   C52217478   0.015   3.252   1.613  0.1428  0.0601 -0.3754
   19MOL   C52317479   0.074   3.253   1.751 -0.9689  0.6416  0.1766
   19MOL   C52417480   0.009   3.348   1.850  0.0173 -0.6303  0.4458
   19MOL   C52517481   0.066   3.340   1.991  0.1748  0.4011  0.9202
   19MOL   C52617482   7.940   3.350   2.097  0.1412 -0.4027  0.2351
   19MOL   C52717483   7.912   3.500   2.120 -0.0311  0.1697  0.0259
   19MOL   C52817484   7.855   3.533   2.259  0.4447  0.1233  0.5571
   19MOL   C52917485   7.815   3.679   2.276 -0.3724 -0.0308  0.0400
   19MOL   O53017486   7.760   3.692   2.402 -0.0075 -0.0667 -0.0964
   19MOL   C53117487   7.798   3.792   2.483  0.9778  0.4346  0.3969
   19MOL   O53217488   7.856   3.889   2.440  0.0986  0.2820  0.1766
   19MOL   C53317489   7.765   3.770   2.632  0.1634  0.2136 -0.0579
   19MOL   C53417490   7.679   3.666   2.684 -0.0943 -0.1204  0.5996
   19MOL   C53517491   7.658   3.649   2.827 -0.5580 -0.1071  0.3644
   19MOL   C53617492   7.720   3.730   2.918 -0.2559  0.2733  0.4817
   19MOL   C53717493   7.706   3.717   3.067  0.8823 -0.0634  0.5400
   19MOL   O53817494   7.739   3.812   3.142  0.1755 -0.2573  0.1263
   19MOL   O53917495   7.640   3.610   3.107 -0.2270 -0.1487  0.0391
   19MOL   C54017496   7.800   3.838   2.861 -0.6766 -0.6392 -0.1027
   19MOL   C54117497   7.827   3.850   2.730 -0.4488  0.0841  0.2315
   19MOL   H54217498   7.813   3.333   1.409 -1.0872  0.7614  0.7082
   19MOL   H54317499   7.683   3.233   1.464  0.4809  0.0359  2.6670
   19MOL   H54417500   7.822   3.128   1.641 -0.9563  0.7107  1.0337
   19MOL   H54517501   7.787   3.294   1.663 -1.3850 -1.4778 -0.3193
   19MOL   H54617502   0.070   3.188   1.544 -0.0034  1.7990 -2.1353
   19MOL   H54717503   0.019   3.353   1.572 -3.3688  0.7506  0.7741
   19MOL   H54817504   0.178   3.284   1.736 -0.9127  0.5432  0.3642
   19MOL   H54917505   0.072   3.150   1.785 -1.5844  1.1059  1.5562
   19MOL   H55017506   7.968   3.450   1.819 -0.1269 -0.7548  0.1282
   19MOL   H55117507   7.887   3.305   1.856 -0.6589  0.9159  0.4492
   19MOL   H55217508   0.115   3.245   2.013  1.7880  1.1183  0.4808
   19MOL   H55317509   0.139   3.420   2.004  1.8471 -0.8270 -0.7140
   19MOL   H55417510   7.848   3.303   2.061 -0.4532  0.7128  0.2707
   19MOL   H55517511   7.977   3.303   2.188  1.1899  0.3429  0.1978
   19MOL   H55617512   0.024   3.559   2.101  0.2072 -0.1010  0.2852
   19MOL   H55717513   7.840   3.525   2.043 -2.9656  1.2170  2.9807
   19MOL   H55817514   7.928   3.496   2.330  0.2748  0.8042  1.0935
   19MOL   H55917515   7.770   3.467   2.278 -1.2995  2.1256 -0.0506
   19MOL   H56017516   7.745   3.721   2.204 -1.7643  0.4030  1.5957
   19MOL   H56117517   7.900   3.747   2.271 -1.9062  2.0455  1.4109
   19MOL   H56217518   7.626   3.601   2.616  1.3953 -1.7279  0.9331
   19MOL   H56317519   7.592   3.568   2.852 -0.5032 -0.7280 -1.4330
   19MOL   H56417520   7.846   3.900   2.936 -0.7779 -0.8200  0.1110
   19MOL   H56517521   7.900   3.924   2.700  1.4171 -1.8666 -0.0930
   19MOL   O56617522   7.596   3.611   3.248  0.4580  0.3350 -0.3249
   19MOL   C56717523   7.457   3.649   3.239  0.0046  0.6948 -0.3670
   19MOL   C56817524   7.389   3.650   3.373 -0.0667  0.4741  0.4630
   19MOL   C56917525   7.355   3.514   3.448 -0.5635  0.0577  0.1516
   19MOL   C57017526   7.252   3.518   3.569 -0.0502  0.4934  0.2482
   19MOL   C57117527   7.233   3.384   3.640 -0.3107 -0.3608 -0.1374
   19MOL   C57217528   7.129   3.405   3.747  0.7845  0.1847  0.1787
   19MOL   C57317529   7.180   3.415   3.886  0.0440 -0.0844 -0.3954
   19MOL   C57417530   7.067   3.387   3.989 -0.5964 -0.2328 -0.0782
   19MOL   C57517531   6.972   3.504   4.033  0.6187  0.5936  0.1467
   19MOL   C57617532   6.870   3.543   3.921 -0.1200 -0.6772  0.1613
   19MOL   O57717533   6.811   3.426   3.871 -0.5147 -0.7068 -0.0746
   19MOL   C57817534   6.675   3.393   3.901  0.6296  0.4165  0.4546
   19MOL   O57917535   6.593   3.467   3.964  0.0224 -0.2983 -0.5722
   19MOL   C58017536   6.639   3.262   3.835  0.6848 -0.4779 -0.6308
   19MOL   C58117537   6.730   3.172   3.777  0.1421  0.1097 -0.2082
   19MOL   C58217538   6.683   3.049   3.724 -0.3311 -0.2829 -0.6325
   19MOL   C58317539   6.550   3.014   3.731  0.1250  0.3068  0.6118
   19MOL   C58417540   6.489   2.885   3.674 -0.4096  0.2947 -0.0237
   19MOL   O58517541   6.376   2.852   3.709  0.6086  0.4923 -1.1226
   19MOL   O58617542   6.563   2.826   3.581  0.0514 -0.4431  0.2972
   19MOL   C58717543   6.466   3.101   3.789  0.3101  0.0627  0.1451
   19MOL   C58817544   6.507   3.216   3.854 -0.3969  0.1115  0.5133
   19MOL   H58917545   7.444   3.753   3.208  0.7100  0.6124 -0.9529
   19MOL   H59017546   7.399   3.580   3.178  1.9755  2.3388 -4.3202
   19MOL   H59117547   7.301   3.714   3.368  0.0615  0.9569  3.3061
   19MOL   H59217548   7.450   3.704   3.446 -2.2271  0.8958  2.0294
   19MOL   H59317549   7.297   3.452   3.379  1.2332 -0.7685 -0.6256
   19MOL   H59417550   7.440   3.453   3.478 -0.1572  0.1853 -0.7272
   19MOL   H59517551   7.156   3.536   3.520  0.8683 -2.7242 -2.9450
   19MOL   H59617552   7.291   3.590   3.641 -1.1891  1.5017 -0.1195
   19MOL   H59717553   7.211   3.303   3.570 -1.4769 -0.7176  0.6296
   19MOL   H59817554   7.327   3.370   3.692  0.0117  1.9916 -0.0181
   19MOL   H59917555   7.081   3.502   3.732  2.3690  1.0734  0.7150
   19MOL   H60017556   7.046   3.335   3.736  1.8222 -1.2683  1.3200
   19MOL   H60117557   7.250   3.334   3.909  1.6567  0.9560 -1.4757
   19MOL   H60217558   7.237   3.505   3.907  0.9718 -0.3254 -1.8144
   19MOL   H60317559   7.015   3.300   3.948 -3.3636  0.9602  0.8061
   19MOL   H60417560   7.112   3.346   4.080  0.8380 -1.7782 -1.4522
   19MOL   H60517561   7.015   3.595   4.074  3.5647  0.6543 -2.8285
   19MOL   H60617562   6.908   3.460   4.110 -1.1810  0.5810 -1.3193
   19MOL   H60717563   6.942   3.586   3.851 -0.1682  2.1491  1.7762
   19MOL   H60817564   6.796   3.614   3.957  2.0580  1.4570  0.5274
   19MOL   H60917565   6.835   3.189   3.756 -0.0092  0.7942 -0.4070
   19MOL   H61017566   6.751   2.983   3.671 -0.1104  0.2499 -1.0214
   19MOL   H61117567   6.361   3.079   3.791  0.1040  0.9903 -0.2562
   19MOL   H61217568   6.430   3.279   3.894  0.0166  0.6587  0.4564
   19MOL   O61317569   6.490   2.723   3.503 -0.4674  0.1828  0.3899
   19MOL   C61417570   6.463   2.768   3.375 -0.0801  0.5122  1.3317
   19MOL   C61517571   6.427   2.635   3.292  0.2485  0.1373  0.1544
   19MOL   C61617572   6.318   2.547   3.352  0.7918  0.2886  0.8856
   19MOL   C61717573   6.255   2.439   3.257 -0.7365  0.2248 -0.3569
   19MOL   C61817574   6.137   2.370   3.321  0.2055  0.5243  0.7537
   19MOL   C61917575   6.029   2.463   3.380  0.4017  0.5094  0.1216
   19MOL   C62017576   5.898   2.389   3.411 -0.2145  0.2113  0.2363
   19MOL   C62117577   5.785   2.492   3.444  0.2028 -0.3980  0.0991
   19MOL   C62217578   5.826   2.579   3.563 -0.0354 -0.1245 -0.4603
   19MOL   C62317579   5.700   2.651   3.624 -0.3829  0.4252  0.0343
   19MOL   O62417580   5.639   2.722   3.525 -0.5351  0.1264  0.6714
   19MOL   C62517581   5.526   2.797   3.556  0.2992  0.3012  0.2802
   19MOL   O62617582   5.441   2.767   3.641 -0.1967 -0.2993  0.0935
   19MOL   C62717583   5.504   2.916   3.461  0.0660  0.3025  0.1736
   19MOL   C62817584   5.585   2.949   3.355 -0.5394  0.2805 -0.0672
   19MOL   C62917585   5.562   3.063   3.283 -0.2807 -0.8387 -0.0307
   19MOL   C63017586   5.458   3.154   3.311  0.0877  0.3090  0.7697
   19MOL   C63117587   5.436   3.280   3.227  0.1028  0.8895 -0.2915
   19MOL   O63217588   5.509   3.304   3.133 -0.3920 -0.2752 -0.2254
   19MOL   O63317589   5.324   3.345   3.258 -0.3006  0.5572 -0.5921
   19MOL   C63417590   5.374   3.123   3.415 -0.6257 -0.2065 -0.5388
   19MOL   C63517591   5.390   2.999   3.478  0.3874 -0.1316 -0.0034
   19MOL   H63617592   6.383   2.840   3.360  0.4616  0.3604 -2.7674
   19MOL   H63717593   6.556   2.814   3.343 -0.2246  0.0895  0.2720
   19MOL   H63817594   6.510   2.566   3.279 -2.1100 -2.6886 -0.6242
   19MOL   H63917595   6.402   2.662   3.189 -0.4485  1.7128  0.7263
   19MOL   H64017596   6.346   2.501   3.446  0.2310 -0.1432  0.8402
   19MOL   H64117597   6.239   2.622   3.363  2.0794  2.2919 -2.6852
   19MOL   H64217598   6.322   2.366   3.211 -1.2284  1.3879 -3.0102
   19MOL   H64317599   6.231   2.499   3.169  2.4184  0.7694 -0.9226
   19MOL   H64417600   6.093   2.302   3.249 -0.6256  1.5773  0.2510
   19MOL   H64517601   6.169   2.298   3.396  1.4053  0.0707 -0.1768
   19MOL   H64617602   6.068   2.516   3.467 -0.3602 -0.8092  1.2751
   19MOL   H64717603   6.013   2.541   3.305 -1.0592  0.3944  0.3046
   19MOL   H64817604   5.886   2.307   3.340 -3.0643  1.7224 -1.1263
   19MOL   H64917605   5.919   2.330   3.500  1.5113 -0.0865 -0.3574
   19MOL   H65017606   5.743   2.537   3.354  2.4482 -1.6333 -1.6135
   19MOL   H65117607   5.699   2.433   3.476 -0.9169  0.9303 -0.3945
   19MOL   H65217608   5.908   2.650   3.551 -0.5803  0.2702 -1.9639
   19MOL   H65317609   5.858   2.508   3.639 -1.8164  0.3023  0.7136
   19MOL   H65417610   5.727   2.708   3.713 -2.9632 -2.0670  2.5517
   19MOL   H65517611   5.637   2.564   3.646  1.6156 -1.2630 -0.6626
   19MOL   H65617612   5.669   2.891   3.321  2.5281  2.2077  3.8081
   19MOL   H65717613   5.644   3.083   3.216  1.5131 -0.3297  2.2633
   19MOL   H65817614   5.286   3.182   3.438  0.5819  1.6200 -0.4945
   19MOL   H65917615   5.315   2.971   3.550  0.9228 -0.1713  0.5367
   19MOL   O66017616   5.308   3.468   3.177  0.2148 -0.1877  0.1787
   19MOL   C66117617   5.221   3.438   3.069  0.2949  0.0840  0.5725
   19MOL   C66217618   5.176   3.577   3.019 -0.7192  0.7389  0.1931
   19MOL   C66317619   5.073   3.566   2.907 -0.0319 -0.8095  0.5734
   19MOL   C66417620   5.063   3.689   2.817 -0.0047  0.5437  0.3541
   19MOL   C66517621   4.942   3.688   2.728 -0.6647  0.2318 -0.0572
   19MOL   C66617622   4.933   3.810   2.628  0.1329  0.8665 -0.2984
   19MOL   C66717623   4.944   3.945   2.693  0.2706 -0.4747  0.4013
   19MOL   C66817624   4.943   4.066   2.593  0.0719  0.7637  0.5772
   19MOL   C66917625   4.938   4.206   2.660 -0.3286  0.1104  0.2462
   19MOL   C67017626   4.972   4.318   2.557 -0.0013 -0.2996  0.1319
   19MOL   O67117627   4.944   4.443   2.612  0.5004  0.2310 -0.9392
   19MOL   C67217628   4.821   4.496   2.623  0.1431 -0.0003 -0.3727
   19MOL   O67317629   4.730   4.436   2.567 -0.1242  0.0796  0.5999
   19MOL   C67417630   4.804   4.627   2.693  0.8162  0.1059 -0.0357
   19MOL   C67517631   4.671   4.666   2.719 -0.4436 -0.6160  0.0441
   19MOL   C67617632   4.642   4.799   2.775  0.5600  0.5699 -0.6346
   19MOL   C67717633   4.746   4.890   2.802 -0.4469 -0.2089 -0.1928
   19MOL   C67817634   4.718   5.030   2.843 -0.2901 -0.2835  0.3895
   19MOL   O67917635   4.808   5.113   2.869  0.1201 -0.1574 -0.4877
   19MOL   O68017636   4.593   5.055   2.841  0.1998 -0.2566 -0.2134
   19MOL   C68117637   4.877   4.849   2.773  0.5001 -0.5506 -0.2444
   19MOL   C68217638   4.908   4.718   2.724  0.1435 -0.7089  0.2334
   19MOL   H68317639   5.264   3.375   2.991 -0.2188  0.4527 -0.0096
   19MOL   H68417640   5.138   3.376   3.101  0.3461 -0.1652  0.2284
   19MOL   H68517641   5.260   3.640   2.991  0.2099  0.1813  1.6729
   19MOL   H68617642   5.120   3.636   3.092 -0.1541  0.9869  0.4285
   19MOL   H68717643   5.110   3.486   2.843  0.4153 -0.6076  0.5753
   19MOL   H68817644   4.981   3.524   2.948  0.7636 -2.6799  0.4663
   19MOL   H68917645   5.152   3.690   2.755 -0.4939 -0.9480 -0.3786
   19MOL   H69017646   5.063   3.776   2.884 -2.8550  3.7425 -3.5566
   19MOL   H69117647   4.972   3.599   2.673 -0.0231 -0.6925  1.7367
   19MOL   H69217648   4.846   3.669   2.776 -0.6771  0.3699 -0.0281
   19MOL   H69317649   5.015   3.806   2.557 -0.2926 -0.2889 -0.7365
   19MOL   H69417650   4.842   3.801   2.569  0.6401 -1.2473 -0.8110
   19MOL   H69517651   4.861   3.958   2.762  1.5118  1.7420  1.5220
   19MOL   H69617652   5.035   3.952   2.754  1.0310  3.3482 -1.0524
   19MOL   H69717653   5.038   4.059   2.539  0.4352  1.1339  1.1664
   19MOL   H69817654   4.858   4.055   2.526  1.4694 -1.6526 -0.8709
   19MOL   H69917655   5.027   4.217   2.721  0.1541  1.5272 -0.6882
   19MOL   H70017656   4.855   4.228   2.727 -1.0637  0.6100 -0.8095
   19MOL   H70117657   4.915   4.320   2.464 -0.3497  0.0345  0.3507
   19MOL   H70217658   5.074   4.310   2.520 -0.6360 -4.0184 -1.1012
   19MOL   H70317659   4.584   4.606   2.697 -0.8379 -0.0452  0.0431
   19MOL   H70417660   4.539   4.826   2.791  0.4615 -1.4856  2.7848
   19MOL   H70517661   4.962   4.912   2.794  1.0051 -1.6063  0.9567
   19MOL   H70617662   5.005   4.681   2.694  0.0030  0.4920 -1.8136
   19MOL   O70717663   4.554   5.206   2.845  0.0589 -0.1042  0.3436
   19MOL   C70817664   4.498   5.233   2.974  0.0345 -0.7758  0.1957
   19MOL   C70917665   4.349   5.293   2.951 -0.3520 -0.1980 -0.0017
   19MOL   C71017666   4.290   5.365   3.083 -0.4067 -0.6085  0.7507
   19MOL   C71117667   4.158   5.449   3.059 -0.3347  0.0002  0.2421
   19MOL   C71217668   4.108   5.512   3.192 -0.5650  0.2829 -0.2190
   19MOL   C71317669   3.964   5.554   3.164 -1.4897 -0.3338  0.0973
   19MOL   C71417670   3.897   5.629   3.276 -0.3378 -0.8170  0.0141
   19MOL   C71517671   3.747   5.662   3.249 -0.4118 -0.0442 -0.0392
   19MOL   C71617672   3.690   5.731   3.369  0.5527 -0.3530 -0.2119
   19MOL   C71717673   3.751   5.867   3.407 -0.5273 -0.2498  0.3677
   19MOL   O71817674   3.698   5.981   3.333  0.3138 -0.1341 -0.2269
   19MOL   C71917675   3.757   6.023   3.216 -0.6366  0.5431  0.5633
   19MOL   O72017676   3.855   5.968   3.166 -0.4897  0.3720  0.5520
   19MOL   C72117677   3.695   6.148   3.164  0.3149 -0.8799 -0.2402
   19MOL   C72217678   3.587   6.203   3.236  0.2809  0.4534  0.0923
   19MOL   C72317679   3.530   6.322   3.194  0.4983 -0.9265  0.3931
   19MOL   C72417680   3.589   6.394   3.087  0.2268  0.2520 -0.3299
   19MOL   C72517681   3.539   6.523   3.045 -0.1053 -0.1208  0.1964
   19MOL   O72617682   3.467   6.599   3.105  0.0656  0.4302  0.2332
   19MOL   O72717683   3.582   6.558   2.918  0.6963 -0.1281 -0.0778
   19MOL   C72817684   3.689   6.332   3.016  0.3973 -0.2070 -0.7314
   19MOL   C72917685   3.750   6.209   3.051  0.3869 -0.4455  1.0502
   19MOL   H73017686   4.498   5.142   3.034  0.5252  0.7578  2.5821
   19MOL   H73117687   4.554   5.300   3.039  1.0196 -1.8375  0.4749
   19MOL   H73217688   4.287   5.221   2.897  0.5399 -0.2861 -0.9319
   19MOL   H73317689   4.367   5.379   2.887  1.9897 -1.1223 -0.6456
   19MOL   H73417690   4.260   5.283   3.148  0.2146 -0.8950  0.6726
   19MOL   H73517691   4.359   5.434   3.131  0.6626 -1.4834  0.4840
   19MOL   H73617692   4.091   5.375   3.015  1.3695 -1.0024 -0.7485
   19MOL   H73717693   4.163   5.526   2.982 -2.6219  2.5376  2.5410
   19MOL   H73817694   4.104   5.458   3.286  1.9212  0.2857 -0.0865
   19MOL   H73917695   4.168   5.601   3.210  0.7956 -0.8593  1.0113
   19MOL   H74017696   3.971   5.609   3.070 -3.0867  0.3132  0.3341
   19MOL   H74117697   3.907   5.465   3.137 -0.2995 -0.7275 -1.1490
   19MOL   H74217698   3.911   5.571   3.367 -0.2620 -0.2889  0.3377
   19MOL   H74317699   3.949   5.724   3.290 -0.5871 -0.6595 -0.1198
   19MOL   H74417700   3.718   5.723   3.163  0.5463  1.3453  0.5928
   19MOL   H74517701   3.692   5.571   3.229 -0.5265 -0.0330  0.2353
   19MOL   H74617702   3.720   5.670   3.454 -0.4432 -1.8499 -0.9200
   19MOL   H74717703   3.582   5.745   3.364  0.3121 -0.7934  2.9509
   19MOL   H74817704   3.859   5.870   3.416 -0.5471 -0.7689  0.8437
   19MOL   H74917705   3.716   5.871   3.510 -1.0058  0.5641  0.1783
   19MOL   H75017706   3.537   6.148   3.314  1.9031 -3.3006 -1.4026
   19MOL   H75117707   3.443   6.370   3.236 -1.0640 -2.5298 -0.9138
   19MOL   H75217708   3.738   6.374   2.930 -0.8373  1.0901 -0.8119
   19MOL   H75317709   3.831   6.165   2.994  0.1757  1.9561 -1.2702
   19MOL   O75417710   3.518   6.685   2.869 -0.7213 -0.7605  0.4433
   19MOL   C75517711   3.621   6.781   2.859  1.1425 -0.4805 -0.2073
   19MOL   C75617712   3.559   6.924   2.891  0.5635 -0.2697  0.4426
   19MOL   C75717713   3.519   6.951   3.038 -0.4585 -0.7082 -0.2612
   19MOL   C75817714   3.487   7.097   3.065 -0.1590 -0.7122 -0.2161
   19MOL   C75917715   3.472   7.128   3.214  0.2335  0.6754 -0.5015
   19MOL   C76017716   3.339   7.091   3.280 -0.5634 -0.3549  0.2432
   19MOL   C76117717   3.330   7.138   3.424  0.4842  0.1218  1.0170
   19MOL   C76217718   3.200   7.089   3.489  0.3350  0.6819  0.2773
   19MOL   C76317719   3.197   7.094   3.639 -0.0496 -0.1006 -0.1685
   19MOL   C76417720   3.054   7.065   3.694 -0.0909 -0.3091  0.4450
   19MOL   O76517721   3.015   6.931   3.676 -0.4907  0.6731  0.5998
   19MOL   C76617722   2.972   6.858   3.779  0.2596  0.3555  0.5307
   19MOL   O76717723   3.015   6.873   3.896  0.3378 -0.1988  0.7896
   19MOL   C76817724   2.895   6.741   3.738  0.0522  0.7851  0.0301
   19MOL   C76917725   2.848   6.722   3.604 -0.7880  0.0860  0.1303
   19MOL   C77017726   2.773   6.608   3.575 -0.0375  0.6005 -0.0422
   19MOL   C77117727   2.725   6.513   3.673  0.1818 -1.0093 -0.7573
   19MOL   C77217728   2.616   6.422   3.647  0.4940  0.7285  0.5388
   19MOL   O77317729   2.550   6.419   3.536 -0.3365  0.3604  0.1201
   19MOL   O77417730   2.584   6.344   3.744 -0.1614  0.1569  0.1319
   19MOL   C77517731   2.777   6.536   3.805 -0.4786  0.3184 -0.4243
   19MOL   C77617732   2.852   6.648   3.840  0.4738 -0.2198 -0.1618
   19MOL   H77717733   3.693   6.767   2.941 -1.0063  0.5402  1.9214
   19MOL   H77817734   3.672   6.778   2.763  0.9754 -0.9046 -0.2816
   19MOL   H77917735   3.470   6.934   2.829 -0.4670 -2.7827  1.4600
   19MOL   H78017736   3.626   7.006   2.862 -0.3038 -0.4255 -2.1427
   19MOL   H78117737   3.435   6.893   3.077  1.5362 -3.1540  0.5902
   19MOL   H78217738   3.607   6.924   3.097  0.8607  2.4523 -0.6667
   19MOL   H78317739   3.404   7.138   3.008  2.2487  3.7094 -0.7801
   19MOL   H78417740   3.564   7.164   3.027  0.5066 -0.7616  0.9861
   19MOL   H78517741   3.562   7.094   3.265 -0.9943 -1.1124  0.5066
   19MOL   H78617742   3.470   7.237   3.214  0.6177  0.6835 -0.6909
   19MOL   H78717743   3.256   7.135   3.224  0.2393 -0.9413 -1.4348
   19MOL   H78817744   3.320   6.989   3.248 -0.7977  0.1864 -1.4420
   19MOL   H78917745   3.415   7.111   3.488  0.1588  0.8356  1.7602
   19MOL   H79017746   3.317   7.246   3.430 -0.9462 -0.0455  1.0370
   19MOL   H79117747   3.116   7.144   3.444 -0.6137  0.3440  1.5873
   19MOL   H79217748   3.197   6.983   3.467  1.9653  0.4007  1.3190
   19MOL   H79317749   3.228   7.190   3.680  1.5596 -1.6459  2.4699
   19MOL   H79417750   3.268   7.020   3.677 -1.2057 -1.2431 -0.1978
   19MOL   H79517751   2.982   7.117   3.630  1.7616 -0.8888 -2.2319
   19MOL   H79617752   3.042   7.094   3.798  1.5422 -0.8435  0.7868
   19MOL   H79717753   2.894   6.779   3.524  3.6566 -1.0310  1.8031
   19MOL   H79817754   2.741   6.592   3.473 -1.1838  0.0228  0.3960
   19MOL   H79917755   2.750   6.466   3.882 -2.4084  0.9546 -0.5005
   19MOL   H80017756   2.886   6.664   3.941  3.5763 -1.1791 -1.0070
   19MOL   O80117757   2.462   6.255   3.718 -0.3540 -0.2984 -0.4027
   19MOL   C80217758   2.504   6.127   3.685 -0.4552  0.1100 -0.0033
   19MOL   C80317759   2.394   6.061   3.596  0.4705  0.3852  0.1952
   19MOL   C80417760   2.373   6.133   3.455  0.0368 -0.2113 -0.1401
   19MOL   C80517761   2.491   6.101   3.364 -0.0792  0.3609 -0.0999
   19MOL   C80617762   2.486   6.176   3.234  0.5448  0.3148  0.0641
   19MOL   C80717763   2.594   6.131   3.132  0.3098  0.1611 -0.4572
   19MOL   C80817764   2.590   6.201   2.996  0.0501  0.3513  0.6399
   19MOL   C80917765   2.693   6.157   2.892 -0.0209 -0.2293  0.3753
   19MOL   C81017766   2.673   6.238   2.760  0.5129 -0.4066 -0.1930
   19MOL   C81117767   2.560   6.189   2.666 -0.1002 -0.6420 -0.2196
   19MOL   O81217768   2.438   6.198   2.739 -0.1524 -0.6218 -0.3603
   19MOL   C81317769   2.319   6.202   2.681 -0.1823 -0.4558  0.6967
   19MOL   O81417770   2.306   6.225   2.561 -0.0067  0.1997 -0.1917
   19MOL   C81517771   2.208   6.199   2.775 -0.0449 -0.4424  0.0274
   19MOL   C81617772   2.094   6.275   2.755 -0.4686  0.8970  0.6040
   19MOL   C81717773   1.993   6.268   2.854 -0.1637 -0.1392  0.0821
   19MOL   C81817774   2.002   6.194   2.971 -0.4924 -0.0836 -0.1768
   19MOL   C81917775   1.885   6.195   3.058  0.2172 -0.7043  0.4254
   19MOL   O82017776   1.777   6.243   3.023  0.3157  0.2242  0.4635
   19MOL   O82117777   1.902   6.139   3.176 -0.1210  0.0720 -0.1707
   19MOL   C82217778   2.124   6.131   2.994 -0.0143 -0.3648 -0.5869
   19MOL   C82317779   2.222   6.129   2.896 -0.5960  0.4643  0.0932
   19MOL   H82417780   2.600   6.131   3.633 -0.9971 -0.7110 -1.0865
   19MOL   H82517781   2.519   6.067   3.775  0.2763 -0.3341 -0.4155
   19MOL   H82617782   2.305   6.084   3.653 -0.9239  1.8253 -2.4918
   19MOL   H82717783   2.395   5.952   3.586 -1.3090  0.4138 -0.4461
   19MOL   H82817784   2.285   6.090   3.407  0.7050 -2.5198  0.6125
   19MOL   H82917785   2.351   6.237   3.479 -1.9890 -0.7428  0.3797
   19MOL   H83017786   2.496   5.994   3.345 -0.2206  0.2116  0.6815
   19MOL   H83117787   2.581   6.132   3.416 -0.2853  1.7273 -0.5193
   19MOL   H83217788   2.382   6.170   3.202  0.8308  0.5832 -0.9308
   19MOL   H83317789   2.493   6.284   3.248  0.9998  0.3131 -0.1716
   19MOL   H83417790   2.693   6.152   3.172  0.0795  0.3061  0.0365
   19MOL   H83517791   2.578   6.027   3.104 -0.6358  0.2331 -0.2151
   19MOL   H83617792   2.486   6.196   2.964  1.0482 -0.7300 -2.6763
   19MOL   H83717793   2.611   6.306   3.016 -0.9489  0.5363  0.7194
   19MOL   H83817794   2.793   6.173   2.933  0.2749 -1.0661  0.0071
   19MOL   H83917795   2.677   6.053   2.862  1.3556  0.1333 -1.6899
   19MOL   H84017796   2.766   6.231   2.703 -0.1662  0.3108 -1.4142
   19MOL   H84117797   2.668   6.346   2.775  2.6334 -0.2954 -0.0531
   19MOL   H84217798   2.570   6.091   2.619  0.3447 -0.5149 -0.4035
   19MOL   H84317799   2.552   6.264   2.587 -1.0594  1.3889  1.7532
   19MOL   H84417800   2.078   6.329   2.664  0.6695  1.4419  0.7273
   19MOL   H84517801   1.899   6.317   2.834  0.3510  0.4710 -0.8536
   19MOL   H84617802   2.141   6.073   3.084 -0.3738 -0.3720 -0.5249
   19MOL   H84717803   2.307   6.070   2.927 -2.8371 -2.7462  0.3452
   19MOL   O84817804   1.778   6.132   3.265  0.3086 -0.7799 -0.3740
   19MOL   C84917805   1.776   6.246   3.348 -0.4056  0.0767 -0.2320
   19MOL   C85017806   1.872   6.225   3.469  0.2614 -0.9409  0.4183
   19MOL   C85117807   1.833   6.099   3.557 -0.2279  0.1756  0.1175
   19MOL   C85217808   1.965   6.047   3.626  0.2796  0.2013 -1.0538
   19MOL   C85317809   1.923   5.923   3.717  0.4137  0.0678  0.0697
   19MOL   C85417810   2.033   5.849   3.778  0.0183 -0.9157  0.4482
   19MOL   C85517811   1.979   5.745   3.883  0.2525  0.2087  0.5915
   19MOL   C85617812   2.094   5.685   3.958 -0.0497  0.7346 -0.1516
   19MOL   C85717813   2.065   5.574   4.062 -0.0049  0.2469  0.6403
   19MOL   C85817814   2.185   5.497   4.123  0.9843  0.4146 -0.3624
   19MOL   O85917815   2.250   5.587   4.198 -0.9739  0.0806  0.4847
   19MOL   C86017816   2.346   5.543   4.283  0.0433  0.2395 -0.2446
   19MOL   O86117817   2.374   5.425   4.306  0.3410  0.2531 -0.0925
   19MOL   C86217818   2.404   5.657   4.360  0.7019 -0.3904  1.1928
   19MOL   C86317819   2.525   5.632   4.426 -0.8300  0.1627 -0.4483
   19MOL   C86417820   2.588   5.725   4.507 -0.2875 -0.2599 -0.0660
   19MOL   C86517821   2.537   5.855   4.519 -0.0877  0.4862 -0.1400
   19MOL   C86617822   2.596   5.960   4.602  0.2829  0.4084 -0.7011
   19MOL   O86717823   2.704   5.948   4.658  0.4949  0.2395  0.6657
   19MOL   O86817824   2.519   6.076   4.617  0.1482  0.1287  0.2764
   19MOL   C86917825   2.427   5.887   4.437  0.8256  0.3328  0.2154
   19MOL   C87017826   2.365   5.794   4.352  0.5022  0.7746 -0.1720
   19MOL   H87117827   1.819   6.327   3.288  1.7730 -1.7566 -1.2266
   19MOL   H87217828   1.679   6.275   3.389 -0.0068  1.4941 -0.2558
   19MOL   H87317829   1.867   6.322   3.520 -1.9460 -1.1803  0.7067
   19MOL   H87417830   1.973   6.222   3.428  0.7354 -1.5193  1.5827
   19MOL   H87517831   1.760   6.135   3.629  0.5007  2.4224 -0.2262
   19MOL   H87617832   1.801   6.008   3.507 -0.1691 -0.1731  0.7084
   19MOL   H87717833   2.006   6.134   3.678 -1.5723  2.4268 -3.2123
   19MOL   H87817834   2.034   6.018   3.547  2.2080 -0.8810  0.9884
   19MOL   H87917835   1.850   5.954   3.792 -0.9965 -0.2289 -1.1585
   19MOL   H88017836   1.859   5.858   3.656  0.4767 -0.7994  0.9282
   19MOL   H88117837   2.102   5.812   3.703 -0.9604  1.5691 -1.7448
   19MOL   H88217838   2.086   5.928   3.831 -0.6061 -0.8351  0.9637
   19MOL   H88317839   1.904   5.780   3.955  0.1704 -0.2803  0.7468
   19MOL   H88417840   1.936   5.665   3.823  0.6488 -1.1699  2.1163
   19MOL   H88517841   2.166   5.646   3.885  0.9708  0.2447  1.0932
   19MOL   H88617842   2.151   5.766   4.003 -0.4205 -0.6930  2.9738
   19MOL   H88717843   1.995   5.502   4.021 -0.3082  0.3786  0.9274
   19MOL   H88817844   2.007   5.603   4.150 -0.4616  0.2298  0.3445
   19MOL   H88917845   2.257   5.460   4.050 -0.1746 -0.5882 -1.0205
   19MOL   H89017846   2.144   5.415   4.181 -0.0793  0.8234 -0.5310
   19MOL   H89117847   2.565   5.532   4.422 -1.1808  0.0893 -2.7684
   19MOL   H89217848   2.675   5.702   4.567  0.0942 -0.7788 -0.8171
   19MOL   H89317849   2.380   5.985   4.435 -1.8421 -0.9217 -0.5749
   19MOL   H89417850   2.282   5.833   4.296  1.0204  0.3135 -1.2770
   19MOL   O89517851   2.543   6.145   4.749  0.0835 -0.8116 -0.1521
   19MOL   C89617852   2.637   6.256   4.735 -0.6306  0.2354  0.4206
   19MOL   C89717853   2.578   6.374   4.669  0.1976 -0.1599 -0.5766
   19MOL   C89817854   2.674   6.471   4.592 -0.4099 -0.1833 -0.0544
   19MOL   C89917855   2.797   6.509   4.679  0.1390  0.3548 -0.6038
   19MOL   C90017856   2.890   6.617   4.613 -0.1776  0.1364 -0.3417
   19MOL   C90117857   2.951   6.590   4.477  0.2368 -0.2718 -0.7770
   19MOL   C90217858   3.074   6.501   4.498  0.1356 -0.3499 -0.3496
   19MOL   C90317859   3.142   6.482   4.364 -0.4090 -0.3137 -0.4178
   19MOL   C90417860   3.252   6.379   4.377  0.5072 -0.1261  0.6478
   19MOL   C90517861   3.326   6.356   4.247  0.0572  0.0411 -0.8621
   19MOL   O90617862   3.411   6.242   4.266  0.1073  0.0141 -0.4188
   19MOL   C90717863   3.377   6.125   4.214 -0.3441 -0.3735  0.2643
   19MOL   O90817864   3.268   6.102   4.163  0.8789  0.2328  0.3411
   19MOL   C90917865   3.488   6.027   4.222  0.0531  0.8055 -0.3603
   19MOL   C91017866   3.609   6.056   4.292  0.5981 -0.0602 -0.8197
   19MOL   C91117867   3.713   5.963   4.289  0.7220  0.3303  0.0514
   19MOL   C91217868   3.699   5.845   4.220  0.0262 -0.0989  0.7264
   19MOL   C91317869   3.807   5.740   4.207  0.3028 -0.3330 -0.4119
   19MOL   O91417870   3.804   5.636   4.142  0.4336  0.5543 -0.4602
   19MOL   O91517871   3.922   5.774   4.271  0.3075  0.6397 -0.0581
   19MOL   C91617872   3.581   5.816   4.149  0.4839  0.1305  0.5018
   19MOL   C91717873   3.477   5.902   4.149  0.3440  0.7208  0.2038
   19MOL   H91817874   2.670   6.280   4.836  0.5295 -3.7567  1.0931
   19MOL   H91917875   2.729   6.225   4.685 -1.0814 -0.9026  0.2745
   19MOL   H92017876   2.535   6.431   4.751  2.4116  1.5675 -0.5819
   19MOL   H92117877   2.488   6.352   4.610 -1.1529 -0.2389  1.4639
   19MOL   H92217878   2.695   6.419   4.499  1.3390 -0.8033  0.6664
   19MOL   H92317879   2.610   6.557   4.571  0.6284  0.1296 -2.1154
   19MOL   H92417880   2.851   6.416   4.695  1.4230  1.5480  2.2905
   19MOL   H92517881   2.756   6.537   4.776 -2.2684 -0.7706 -1.2592
   19MOL   H92617882   2.826   6.704   4.605  1.3700  1.1690 -2.0654
   19MOL   H92717883   2.968   6.649   4.682 -1.2874  0.6093  0.6967
   19MOL   H92817884   2.885   6.542   4.405 -0.0160 -0.3087 -0.5220
   19MOL   H92917885   2.978   6.689   4.440  1.3511  0.8234  2.7551
   19MOL   H93017886   3.142   6.537   4.575  0.1264 -1.8688  0.3923
   19MOL   H93117887   3.041   6.405   4.537  2.3240 -1.0441 -0.1468
   19MOL   H93217888   3.079   6.460   4.277 -1.8486  3.2232 -0.3571
   19MOL   H93317889   3.196   6.574   4.344 -0.4565 -0.4167 -1.0525
   19MOL   H93417890   3.201   6.284   4.397  1.8896 -1.3303 -1.3665
   19MOL   H93517891   3.320   6.392   4.461  0.1379  0.8564  0.8001
   19MOL   H93617892   3.385   6.443   4.220 -0.5837  0.8299  0.2445
   19MOL   H93717893   3.251   6.343   4.168  0.6575  1.4557 -1.6826
   19MOL   H93817894   3.615   6.152   4.340  1.6986 -0.6332  0.2250
   19MOL   H93917895   3.806   5.988   4.339  0.7878  3.4831 -1.5368
   19MOL   H94017896   3.566   5.721   4.100 -0.9015  0.3143  0.5393
   19MOL   H94117897   3.384   5.880   4.099  0.2137  0.4986  0.5401
   19MOL   H94217898   3.986   5.718   4.231 -1.7073 -0.7838 -1.4366
   20MOL     O117899   3.660   5.150   7.092  0.4438 -0.3277  0.0674
   20MOL     C217900   3.793   5.123   7.113  0.1996  0.0291  0.4968
   20MOL     C317901   3.838   5.168   7.249  0.5777 -0.4748 -0.2592
   20MOL     C417902   3.993   5.157   7.266 -0.5981  0.1576 -0.8718
   20MOL     C517903   4.044   5.191   7.407  0.2065  0.9031  0.5467
   20MOL     C617904   4.194   5.172   7.408  0.0991 -0.1277 -0.1007
   20MOL     C717905   4.247   5.166   7.550 -0.2360 -0.5976 -0.5050
   20MOL     C817906   4.397   5.137   7.556  0.4555  0.4188  0.5769
   20MOL     C917907   4.456   5.119   7.697  0.2536 -0.4787  0.2947
   20MOL    C1017908   4.604   5.082   7.669  0.0490 -0.2226  0.0717
   20MOL    C1117909   4.687   5.100   7.794  0.0076  0.2922  0.2884
   20MOL    O1217910   4.710   5.242   7.813  0.0447  0.1565 -0.1761
   20MOL    C1317911   4.829   5.288   7.817  0.2175  0.3585 -0.4793
   20MOL    O1417912   4.933   5.221   7.807  0.0103 -0.2147  0.1945
   20MOL    C1517913   4.842   5.438   7.835 -0.5346  0.1714  0.0583
   20MOL    C1617914   4.964   5.505   7.860  0.5848 -0.1426 -0.1247
   20MOL    C1717915   4.958   5.642   7.878 -0.1192 -0.5272  0.0526
   20MOL    C1817916   4.835   5.714   7.885 -0.5409  0.1805 -0.7641
   20MOL    C1917917   4.833   5.854   7.935  0.4474 -0.1928 -0.2971
   20MOL    O2017918   4.728   5.919   7.943 -0.2036 -0.1750 -0.0520
   20MOL    O2117919   4.952   5.912   7.962 -0.2378 -0.1037 -0.2887
   20MOL    C2217920   4.714   5.649   7.853  0.0177 -0.4198 -0.0405
   20MOL    C2317921   4.723   5.509   7.832  0.0491  0.1127  0.6833
   20MOL    H2417922   3.815   5.019   7.092 -1.0600  0.1196 -1.3821
   20MOL    H2517923   3.858   5.176   7.043 -0.3307  0.7285  0.5211
   20MOL    H2617924   3.787   5.103   7.320  1.2539  0.1219  0.7849
   20MOL    H2717925   3.816   5.274   7.260  0.2906 -0.7028  1.4398
   20MOL    H2817926   4.026   5.057   7.238  1.3466  0.5418 -0.0585
   20MOL    H2917927   4.033   5.233   7.200  2.2642  0.6114  1.2834
   20MOL    H3017928   3.998   5.131   7.486 -0.0162  0.0424 -0.2205
   20MOL    H3117929   4.023   5.296   7.428  0.2508  0.2780  4.0304
   20MOL    H3217930   4.221   5.080   7.358  1.3747  0.5032 -0.5871
   20MOL    H3317931   4.245   5.250   7.351 -0.0822 -0.2705 -0.4588
   20MOL    H3417932   4.235   5.261   7.602 -1.5851 -0.7423 -0.5496
   20MOL    H3517933   4.194   5.097   7.616  0.8380 -0.1672  0.8516
   20MOL    H3617934   4.423   5.057   7.487  0.5722  0.9119  0.0387
   20MOL    H3717935   4.449   5.223   7.512 -1.2903  1.3700  0.3301
   20MOL    H3817936   4.442   5.212   7.753 -1.1175 -0.7612  0.4433
   20MOL    H3917937   4.396   5.047   7.754  2.2323 -1.5025  1.1231
   20MOL    H4017938   4.649   5.136   7.585 -0.4706 -0.2535 -0.2272
   20MOL    H4117939   4.613   4.975   7.649 -0.5793  0.0412 -1.6545
   20MOL    H4217940   4.783   5.049   7.788 -0.6917 -1.0338  0.2336
   20MOL    H4317941   4.644   5.049   7.880 -0.1491 -1.6725 -0.9035
   20MOL    H4417942   5.058   5.454   7.851  0.1954 -0.9128  0.1356
   20MOL    H4517943   5.051   5.695   7.891 -0.5829  0.8832 -2.1288
   20MOL    H4617944   4.625   5.707   7.868  1.1546  1.0383  1.3223
   20MOL    H4717945   4.630   5.455   7.821  0.2182  0.0010 -0.2382
   20MOL    H4817946   3.649   5.239   7.063  3.0521 -0.7788 -2.4410
   20MOL    O4917947   4.953   6.064   0.002  0.2141 -0.7934 -0.2745
   20MOL    C5017948   4.933   6.098   0.141 -0.2044 -0.2095  0.5502
   20MOL    C5117949   4.926   6.248   0.134 -0.5685 -0.1251  0.1730
   20MOL    C5217950   4.823   6.310   0.039 -0.2859 -0.2316  0.0444
   20MOL    C5317951   4.817   6.459   0.032  0.0056 -0.1171 -0.4278
   20MOL    C5417952   4.710   6.517   7.917  0.5013  0.2875  0.7607
   20MOL    C5517953   4.568   6.478   7.960 -0.0920 -0.7042 -0.3902
   20MOL    C5617954   4.467   6.591   7.932 -1.1659  0.2759  0.3999
   20MOL    C5717955   4.327   6.525   7.947  0.5006  0.3889 -0.7599
   20MOL    C5817956   4.217   6.612   7.902  0.3325 -0.1912  0.4709
   20MOL    C5917957   4.193   6.728   0.021 -0.0527 -0.0569  0.6968
   20MOL    O6017958   4.061   6.777   0.042 -0.2159 -0.2443 -0.2419
   20MOL    C6117959   4.027   6.899   0.084 -0.3981  0.1630 -0.4936
   20MOL    O6217960   4.108   6.980   0.127  0.0590 -0.8714  0.1348
   20MOL    C6317961   3.885   6.930   0.070 -0.6512 -0.0171 -1.3203
   20MOL    C6417962   3.829   7.047   0.136 -0.5334 -0.4774  0.4805
   20MOL    C6517963   3.693   7.078   0.135  0.4490 -0.1631 -0.5275
   20MOL    C6617964   3.608   6.982   0.080  0.0127  0.3016 -0.0196
   20MOL    C6717965   3.457   6.999   0.091  0.0249 -0.3386  0.0424
   20MOL    O6817966   3.369   6.914   0.061  0.0792  0.1733 -0.3682
   20MOL    O6917967   3.417   7.124   0.139 -0.0002  0.2270 -0.1502
   20MOL    C7017968   3.659   6.870   0.015 -0.0583  0.0827  0.9727
   20MOL    C7117969   3.792   6.847   0.004 -0.3819 -0.4286  0.2016
   20MOL    H7217970   4.835   6.062   0.174 -0.5447 -1.5973 -1.8963
   20MOL    H7317971   5.008   6.067   0.214 -0.5243 -0.1926  0.8931
   20MOL    H7417972   5.028   6.281   0.113 -0.4835 -1.4020 -1.4762
   20MOL    H7517973   4.908   6.292   0.232  0.4338  2.0897 -0.6074
   20MOL    H7617974   4.822   6.272   7.915 -2.0601 -1.8909  0.6470
   20MOL    H7717975   4.725   6.272   0.070  0.4979 -0.8749  1.7665
   20MOL    H7817976   4.914   6.498   0.003  0.6492 -1.1886  0.2566
   20MOL    H7917977   4.788   6.504   0.127  0.9701  1.0479 -0.6715
   20MOL    H8017978   4.723   6.625   7.916 -0.5004  0.4450 -2.9942
   20MOL    H8117979   4.727   6.493   7.812  1.3339 -1.1385  1.2125
   20MOL    H8217980   4.536   6.381   7.923  0.4235 -0.0514 -2.6038
   20MOL    H8317981   4.570   6.463   0.090 -0.7648  1.0866 -0.1011
   20MOL    H8417982   4.475   6.677   0.021  1.1048 -0.2531  0.8503
   20MOL    H8517983   4.480   6.644   7.837  0.8718  1.9671  1.5743
   20MOL    H8617984   4.320   6.435   7.885 -1.5112  0.4176 -0.6048
   20MOL    H8717985   4.316   6.490   0.071 -0.0432  0.0778 -0.9226
   20MOL    H8817986   4.119   6.565   7.905  0.0342  0.4595  1.0593
   20MOL    H8917987   4.231   6.652   7.801 -0.3171 -1.0152  0.0544
   20MOL    H9017988   4.273   6.802   0.013  2.7356 -3.0482 -0.0935
   20MOL    H9117989   4.207   6.678   0.118  1.4346 -2.0706 -0.5207
   20MOL    H9217990   3.892   7.109   0.199  0.4255 -0.3786 -0.5573
   20MOL    H9317991   3.663   7.155   0.206 -0.3265 -0.9514  0.0119
   20MOL    H9417992   3.593   6.812   7.930  0.0062 -0.0033  0.9860
   20MOL    H9517993   3.818   6.762   7.921 -1.5930 -0.2207 -0.6239
   20MOL    O9617994   3.270   7.148   0.146  0.1191 -0.0987 -0.1050
   20MOL    C9717995   3.203   7.086   0.256 -0.1679 -0.2497  0.6067
   20MOL    C9817996   3.052   7.111   0.253 -0.8138 -0.0063  0.4171
   20MOL    C9917997   3.011   7.253   0.296 -0.2573  0.4518 -0.0528
   20MOL   C10017998   2.855   7.264   0.313  0.4282  0.5153 -0.1702
   20MOL   C10117999   2.800   7.399   0.360  0.0619  0.0771  0.6486
   20MOL   C10218000   2.876   7.438   0.493 -0.0242 -0.0956 -0.3495
   20MOL   C10318001   2.802   7.568   0.541  0.7618  0.3038  0.0742
   20MOL   C10418002   2.899   7.655   0.626 -0.5332 -0.1714 -0.0064
   20MOL   C10518003   3.024   7.712   0.546  0.4473 -0.4145 -0.3790
   20MOL   C10618004   3.084   7.830   0.617 -1.0212 -0.3076 -0.7927
   20MOL   O10718005   3.094   7.793   0.756 -0.0811  0.3909  0.0335
   20MOL   C10818006   3.013   7.861   0.854  0.0107  0.3286 -0.4397
   20MOL   O10918007   2.946   7.959   0.828 -0.0611 -0.0191  0.1029
   20MOL   C11018008   3.008   7.779   0.982 -0.1932 -0.0990  0.4598
   20MOL   C11118009   2.957   7.843   1.094  0.6038 -0.1596 -0.3437
   20MOL   C11218010   2.962   7.771   1.216  0.3631  0.0288  1.3235
   20MOL   C11318011   3.028   7.647   1.233  0.2019  0.1279 -0.4394
   20MOL   C11418012   3.049   7.578   1.362  0.3079  0.0738 -0.7487
   20MOL   O11518013   3.121   7.478   1.376  0.3548  0.5150 -0.2166
   20MOL   O11618014   2.981   7.637   1.463 -0.1545  0.6369  0.0333
   20MOL   C11718015   3.073   7.590   1.118 -0.0339 -0.1426  0.6389
   20MOL   C11818016   3.065   7.655   0.990 -0.8947 -0.5734  0.8928
   20MOL   H11918017   3.216   6.980   0.235 -1.7377  0.0070 -1.8296
   20MOL   H12018018   3.249   7.108   0.353  0.9988 -0.9527  0.2225
   20MOL   H12118019   3.007   7.037   0.319 -1.5090 -1.9062 -2.1219
   20MOL   H12218020   3.020   7.109   0.148  1.6449 -0.6782 -0.3463
   20MOL   H12318021   3.053   7.279   0.393 -4.0292  1.3982  1.4278
   20MOL   H12418022   3.060   7.330   0.237  1.7670 -0.1229  0.8551
   20MOL   H12518023   2.809   7.193   0.381 -0.4947  2.8441  1.6834
   20MOL   H12618024   2.804   7.247   0.218  2.1952 -0.4252 -0.9951
   20MOL   H12718025   2.830   7.470   0.283  1.8671 -0.0151  1.2337
   20MOL   H12818026   2.691   7.400   0.365  0.1104 -0.6320  2.2939
   20MOL   H12918027   2.844   7.364   0.566  1.5720 -0.9218 -0.4483
   20MOL   H13018028   2.984   7.451   0.498 -0.2865  2.0693  0.2986
   20MOL   H13118029   2.785   7.626   0.450  1.5170  1.4326  0.6400
   20MOL   H13218030   2.707   7.536   0.584 -0.5644  0.4154 -2.6706
   20MOL   H13318031   2.838   7.736   0.664  0.9620  0.5653  0.8500
   20MOL   H13418032   2.931   7.595   0.712 -2.3244 -1.7447 -0.3920
   20MOL   H13518033   2.985   7.737   0.448  0.1967 -2.5942 -0.8468
   20MOL   H13618034   3.098   7.633   0.552  0.4607 -0.4793 -1.3270
   20MOL   H13718035   3.028   7.923   0.602  1.4412  0.9815 -2.4141
   20MOL   H13818036   3.187   7.854   0.588 -0.7092 -1.5607 -0.7430
   20MOL   H13918037   2.917   7.944   1.093  1.6479  0.2585 -0.8208
   20MOL   H14018038   2.918   7.812   1.305 -0.7799  2.2669 -0.2368
   20MOL   H14118039   3.130   7.498   1.118  0.2894  0.0557  0.5050
   20MOL   H14218040   3.111   7.611   0.903 -1.1829  0.6918  0.0883
   20MOL   O14318041   2.993   7.560   1.596 -0.1091  0.3725  0.3545
   20MOL   C14418042   3.082   7.621   1.679  1.2142 -0.3839  0.2155
   20MOL   C14518043   3.079   7.550   1.808  1.4287  0.4571 -0.0662
   20MOL   C14618044   3.082   7.396   1.797 -0.6698 -0.2196  0.0374
   20MOL   C14718045   3.105   7.328   1.934  0.2086 -0.1171  0.2464
   20MOL   C14818046   2.992   7.347   2.035 -0.2358 -0.3495  0.1673
   20MOL   C14918047   3.001   7.247   2.143  0.1979 -0.1709  0.3985
   20MOL   C15018048   2.885   7.245   2.245  0.4108 -0.2066 -0.3134
   20MOL   C15118049   2.892   7.121   2.338  0.5880  0.1206 -0.2994
   20MOL   C15218050   2.765   7.096   2.430 -0.0735  0.4035 -0.1950
   20MOL   C15318051   2.642   7.053   2.353 -0.3005  0.6190 -0.2897
   20MOL   O15418052   2.534   7.039   2.447  0.2973 -0.0090 -0.5268
   20MOL   C15518053   2.412   7.001   2.408  0.7635 -0.4070  0.0779
   20MOL   O15618054   2.379   6.980   2.291  0.3118 -0.0192 -0.0661
   20MOL   C15718055   2.316   6.982   2.519 -0.5068  0.3936  0.1241
   20MOL   C15818056   2.179   6.975   2.489 -0.0452 -0.4479  0.5377
   20MOL   C15918057   2.079   6.958   2.591 -0.2211  0.3412 -0.1557
   20MOL   C16018058   2.124   6.943   2.722  0.6679 -0.1351  0.3647
   20MOL   C16118059   2.023   6.925   2.831  0.4364  0.7363 -0.1674
   20MOL   O16218060   1.897   6.925   2.815 -0.5956  0.3190  1.0057
   20MOL   O16318061   2.082   6.918   2.953  0.2776  0.4915 -0.0243
   20MOL   C16418062   2.268   6.941   2.752  0.0094 -0.4915  0.0907
   20MOL   C16518063   2.359   6.967   2.653  0.2493  0.3282  0.7675
   20MOL   H16618064   3.183   7.604   1.642  1.5170 -0.4347  1.0695
   20MOL   H16718065   3.064   7.727   1.696 -2.1212 -0.6794 -1.0174
   20MOL   H16818066   2.988   7.581   1.861  1.3782 -1.1548  0.8222
   20MOL   H16918067   3.173   7.579   1.855  1.4125  0.4454 -0.0266
   20MOL   H17018068   2.978   7.369   1.777 -1.0685  0.6536  0.8718
   20MOL   H17118069   3.151   7.361   1.720  1.6141  0.3085  1.7935
   20MOL   H17218070   3.202   7.349   1.979  1.8330 -1.1128 -2.6601
   20MOL   H17318071   3.108   7.221   1.912 -1.8287  0.2436 -2.0296
   20MOL   H17418072   2.992   7.444   2.085  1.3860  1.6546 -3.5208
   20MOL   H17518073   2.902   7.327   1.976  0.7316 -1.5016 -0.9401
   20MOL   H17618074   3.010   7.147   2.100 -0.5695  0.5159 -1.4134
   20MOL   H17718075   3.096   7.269   2.191  0.9019  3.0926 -2.3469
   20MOL   H17818076   2.890   7.334   2.308 -1.2976  0.3559 -0.9756
   20MOL   H17918077   2.789   7.240   2.194  0.3163 -1.4575 -0.0204
   20MOL   H18018078   2.907   7.031   2.278  0.6523 -0.2896  0.3267
   20MOL   H18118079   2.970   7.141   2.411  1.0546  1.7107 -1.2108
   20MOL   H18218080   2.755   7.183   2.496  0.0769 -0.0369  0.4103
   20MOL   H18318081   2.780   7.002   2.482 -2.2302  0.0189 -0.2455
   20MOL   H18418082   2.660   6.962   2.296  1.0246 -0.0663  1.1704
   20MOL   H18518083   2.620   7.124   2.274 -1.3479 -1.6667 -2.1199
   20MOL   H18618084   2.154   6.994   2.386  1.7390  1.7935  0.4860
   20MOL   H18718085   1.973   6.950   2.574 -0.6130  0.9712  1.8956
   20MOL   H18818086   2.303   6.915   2.851  1.4152 -0.3442 -0.3581
   20MOL   H18918087   2.466   6.966   2.667  0.7259  1.6644 -2.5013
   20MOL   O19018088   1.983   6.893   3.068  0.3120 -0.0581  0.0464
   20MOL   C19118089   1.968   7.017   3.124 -0.0500 -0.5149  0.8059
   20MOL   C19218090   1.884   7.020   3.252  0.1250  0.0701  0.3240
   20MOL   C19318091   1.961   6.952   3.369 -0.2756  0.6020 -1.0221
   20MOL   C19418092   1.889   6.946   3.506 -0.4393  0.4843 -0.7559
   20MOL   C19518093   1.962   6.868   3.616  0.5633  0.0447  0.6368
   20MOL   C19618094   1.889   6.821   3.740 -0.2303  0.1425  0.3985
   20MOL   C19718095   1.822   6.940   3.818 -0.5614  0.0553  0.3895
   20MOL   C19818096   1.920   7.060   3.855  0.6607 -0.1416  0.1821
   20MOL   C19918097   1.844   7.178   3.924 -0.2568 -0.0086  0.0109
   20MOL   C20018098   1.833   7.311   3.838  0.4871 -0.8429  0.0563
   20MOL   O20118099   1.949   7.390   3.854  0.4683 -0.0026  0.5991
   20MOL   C20218100   1.972   7.468   3.953  0.5876 -0.0501 -0.6171
   20MOL   O20318101   1.882   7.489   4.037 -0.3517 -0.0681  0.6631
   20MOL   C20418102   2.105   7.525   3.964  0.3415 -0.3656 -0.0331
   20MOL   C20518103   2.206   7.505   3.865  0.0952 -0.8302  0.1302
   20MOL   C20618104   2.334   7.565   3.872  0.0890 -0.3276  0.8292
   20MOL   C20718105   2.369   7.650   3.981 -1.0809 -0.4261  0.7489
   20MOL   C20818106   2.498   7.718   3.977  0.3593 -0.6931 -0.3561
   20MOL   O20918107   2.573   7.718   3.881 -0.6332  0.3316 -0.1374
   20MOL   O21018108   2.520   7.806   4.083  0.4000 -0.3031  0.0267
   20MOL   C21118109   2.272   7.668   4.078  0.4652 -0.3312  0.1018
   20MOL   C21218110   2.146   7.592   4.078  0.6441  0.2510  0.3441
   20MOL   H21318111   2.064   7.059   3.152  0.6624  0.1235 -2.4421
   20MOL   H21418112   1.923   7.090   3.057  2.6064  0.0441 -0.4193
   20MOL   H21518113   1.789   6.968   3.235 -0.8734  2.3541 -1.3123
   20MOL   H21618114   1.857   7.121   3.280 -0.3881  0.2723 -0.8621
   20MOL   H21718115   1.972   6.848   3.338  0.0258  1.0165 -2.3530
   20MOL   H21818116   2.064   6.978   3.390  0.2228 -0.7838 -1.6850
   20MOL   H21918117   1.794   6.896   3.486 -1.2138  1.1684  1.1306
   20MOL   H22018118   1.860   7.043   3.546 -2.1235 -0.0201 -0.7239
   20MOL   H22118119   2.004   6.774   3.580  0.8971  0.7627 -0.9318
   20MOL   H22218120   2.054   6.925   3.633  1.1777  0.0915 -2.4178
   20MOL   H22318121   1.811   6.752   3.706  0.6067 -0.9635  0.7078
   20MOL   H22418122   1.949   6.757   3.804  0.7755  1.7284  1.0804
   20MOL   H22518123   1.743   6.988   3.761  0.0326 -3.1275 -3.3320
   20MOL   H22618124   1.778   6.911   3.914  1.8937 -1.4207  1.1178
   20MOL   H22718125   2.002   7.021   3.916  0.5770 -0.3083  0.1869
   20MOL   H22818126   1.978   7.103   3.773 -0.7000 -1.8424 -1.7152
   20MOL   H22918127   1.905   7.197   4.013  0.3213 -0.3548 -0.3100
   20MOL   H23018128   1.750   7.143   3.968  0.0968  0.0057  0.7906
   20MOL   H23118129   1.746   7.369   3.868  1.7054  1.5048 -0.7965
   20MOL   H23218130   1.834   7.292   3.731  0.3048  3.6711 -0.8644
   20MOL   H23318131   2.194   7.443   3.777 -0.6938  1.2958 -1.2974
   20MOL   H23418132   2.405   7.540   3.794 -1.7425 -2.4556 -0.2518
   20MOL   H23518133   2.299   7.737   4.156  2.5452 -0.7424 -0.2163
   20MOL   H23618134   2.083   7.618   4.162 -2.4030 -0.2676 -1.6845
   20MOL   O23718135   2.659   7.863   4.088 -0.2913  0.1412 -0.1525
   20MOL   C23818136   2.662   0.002   4.008  0.1620  0.6999 -0.1732
   20MOL   C23918137   2.809   0.025   3.973 -0.3294  0.2935  0.9494
   20MOL   C24018138   2.848   0.146   3.888 -0.0793 -0.4404 -0.0506
   20MOL   C24118139   2.982   0.135   3.828 -0.9427 -0.3203  0.7797
   20MOL   C24218140   3.017   0.262   3.757 -0.1926  0.1697 -0.4216
   20MOL   C24318141   3.165   0.270   3.701  0.6466 -0.4773 -1.0158
   20MOL   C24418142   3.198   0.413   3.655 -0.8202 -0.1389  0.1980
   20MOL   C24518143   3.326   0.406   3.567  0.8456 -1.0202  0.3599
   20MOL   C24618144   3.388   0.541   3.544  0.3422 -0.4336 -0.0061
   20MOL   C24718145   3.481   0.545   3.429 -0.0730 -0.3757 -0.0951
   20MOL   O24818146   3.521   0.680   3.406 -0.1184  0.5084 -0.3931
   20MOL   C24918147   3.634   0.723   3.471 -0.1662 -0.6854  0.2487
   20MOL   O25018148   3.721   0.657   3.531 -0.3082  0.4255 -0.7858
   20MOL   C25118149   3.653   0.869   3.442  0.5872 -0.3373 -0.4716
   20MOL   C25218150   3.559   0.942   3.360 -0.3573  0.5906 -0.4371
   20MOL   C25318151   3.589   1.078   3.320 -0.2756  0.0131 -0.0729
   20MOL   C25418152   3.701   1.146   3.375  0.0110  0.8596  0.4301
   20MOL   C25518153   3.735   1.293   3.340 -0.1250  0.7367 -0.4523
   20MOL   O25618154   3.830   1.354   3.385 -0.2179  0.1926 -0.3768
   20MOL   O25718155   3.632   1.353   3.267 -0.3451  0.4651 -0.1371
   20MOL   C25818156   3.794   1.078   3.463  0.9058  0.0804  0.0907
   20MOL   C25918157   3.766   0.940   3.488  0.6358  0.0354 -0.5215
   20MOL   H26018158   2.610   7.977   3.912 -0.7930 -2.0864  0.4053
   20MOL   H26118159   2.632   0.087   4.069  1.5256  0.6082  0.6537
   20MOL   H26218160   2.839   7.913   3.920 -0.6460  0.3136  0.7316
   20MOL   H26318161   2.857   0.031   4.071 -1.8905 -0.5679  1.7919
   20MOL   H26418162   2.777   0.156   3.806 -1.4701 -0.2686  1.1461
   20MOL   H26518163   2.851   0.231   3.956  0.7550  0.6221 -1.3910
   20MOL   H26618164   2.982   0.059   3.749 -1.0141  0.7729 -0.2792
   20MOL   H26718165   3.065   0.105   3.892  0.6676 -3.1138 -2.4537
   20MOL   H26818166   2.937   0.295   3.691  0.0230  2.9016  0.6260
   20MOL   H26918167   3.019   0.337   3.836  1.5688  0.5195 -0.7730
   20MOL   H27018168   3.222   0.253   3.793 -1.9766 -0.1862  0.7137
   20MOL   H27118169   3.186   0.185   3.636 -1.6661 -0.7839 -1.3804
   20MOL   H27218170   3.116   0.458   3.599 -0.7128 -1.2617 -0.8949
   20MOL   H27318171   3.220   0.466   3.747 -1.9659  0.1223  0.3316
   20MOL   H27418172   3.400   0.352   3.625  0.2900 -0.6291  1.4514
   20MOL   H27518173   3.302   0.349   3.477 -0.2461 -2.3173  1.4581
   20MOL   H27618174   3.444   0.577   3.630 -0.1775 -0.3459  0.2977
   20MOL   H27718175   3.305   0.605   3.512  1.0914 -0.0211 -1.1733
   20MOL   H27818176   3.445   0.510   3.332 -0.2762 -1.5195  0.3963
   20MOL   H27918177   3.568   0.489   3.464  1.2095  0.7818 -1.3191
   20MOL   H28018178   3.468   0.894   3.328  0.6581 -0.9535 -1.0521
   20MOL   H28118179   3.533   1.126   3.241  0.7534  0.9653 -0.2332
   20MOL   H28218180   3.882   1.111   3.517  0.2782 -0.0489  1.1948
   20MOL   H28318181   3.847   0.888   3.536 -0.2293 -1.2993 -0.4701
   20MOL   O28418182   3.628   1.503   3.269 -0.2172  0.2698 -0.5843
   20MOL   C28518183   3.539   1.538   3.371  0.0511  0.8974 -0.3870
   20MOL   C28618184   3.393   1.501   3.328  0.5922 -0.7350  0.4118
   20MOL   C28718185   3.341   1.576   3.198  0.2195  0.3328  0.1626
   20MOL   C28818186   3.258   1.479   3.116 -0.0234  0.3733 -0.6031
   20MOL   C28918187   3.335   1.370   3.050  0.3407 -0.4276  0.1878
   20MOL   C29018188   3.247   1.260   2.988  0.4055 -0.0754 -0.0091
   20MOL   C29118189   3.343   1.154   2.918  0.2435 -0.2977 -0.1806
   20MOL   C29218190   3.268   1.049   2.832  0.0366 -0.2613 -0.1485
   20MOL   C29318191   3.185   1.100   2.716 -0.2891  0.0241  0.4859
   20MOL   C29418192   3.180   0.996   2.597  0.0711  0.1120 -0.3247
   20MOL   O29518193   3.111   0.877   2.632  0.2604  0.6745  1.2788
   20MOL   C29618194   2.982   0.892   2.660 -0.4610 -0.4437 -0.1810
   20MOL   O29718195   2.910   0.995   2.645 -0.0943  0.4148 -0.1303
   20MOL   C29818196   2.923   0.771   2.718 -0.2198  0.3089 -0.4846
   20MOL   C29918197   2.784   0.756   2.701  0.5007  0.1266 -0.4308
   20MOL   C30018198   2.724   0.636   2.754  0.3660 -0.5749 -0.2825
   20MOL   C30118199   2.792   0.533   2.813 -0.1872 -0.2860 -0.1979
   20MOL   C30218200   2.722   0.409   2.848 -0.3357 -1.1461  0.1593
   20MOL   O30318201   2.600   0.403   2.860 -0.6023 -0.2047  0.3137
   20MOL   O30418202   2.803   0.309   2.877 -0.1531 -0.1269  0.0154
   20MOL   C30518203   2.930   0.553   2.828  0.1104  0.3796 -0.7609
   20MOL   C30618204   2.991   0.672   2.789 -0.4598 -0.4297  0.5730
   20MOL   H30718205   3.576   1.479   3.455  1.8429  0.6664 -1.3348
   20MOL   H30818206   3.551   1.644   3.395  0.4725  0.7982 -0.1451
   20MOL   H30918207   3.318   1.506   3.407 -0.2656 -2.7557 -0.2287
   20MOL   H31018208   3.390   1.394   3.310 -2.1859 -0.4919 -0.9642
   20MOL   H31118209   3.276   1.656   3.234 -0.1468 -0.2949  0.9018
   20MOL   H31218210   3.432   1.608   3.146  0.2326  3.0774  1.7991
   20MOL   H31318211   3.201   1.527   3.036  0.2613 -0.4758 -1.3196
   20MOL   H31418212   3.188   1.433   3.185 -0.1641  0.4805 -0.6712
   20MOL   H31518213   3.402   1.417   2.978 -0.4967 -0.5283 -0.6716
   20MOL   H31618214   3.411   1.331   3.116  1.3307  1.5294  0.2519
   20MOL   H31718215   3.181   1.208   3.057 -0.8970  0.6336 -0.7187
   20MOL   H31818216   3.193   1.300   2.903  0.1164  1.3114  0.8024
   20MOL   H31918217   3.411   1.207   2.851  0.2490  0.0667  0.1115
   20MOL   H32018218   3.408   1.104   2.989  1.8572  0.1564 -1.3088
   20MOL   H32118219   3.350   0.993   2.787  0.4593  2.4939 -2.9346
   20MOL   H32218220   3.221   0.964   2.882 -0.0999  0.4443  0.9407
   20MOL   H32318221   3.225   1.194   2.676  0.5662  1.2447  4.0069
   20MOL   H32418222   3.088   1.133   2.752  0.6342  2.4190  0.8692
   20MOL   H32518223   3.281   0.966   2.571  0.4174  1.3616 -0.4880
   20MOL   H32618224   3.145   1.044   2.506 -0.8777  0.1255  0.0463
   20MOL   H32718225   2.724   0.825   2.643 -0.7555 -0.3299  0.3084
   20MOL   H32818226   2.620   0.626   2.727  1.0428 -3.5506 -1.9451
   20MOL   H32918227   2.996   0.474   2.859  1.1119  0.8679 -1.5907
   20MOL   H33018228   3.097   0.687   2.801 -0.8738  1.0239  2.6599
   20MOL   O33118229   2.743   0.185   2.928 -0.4685  0.4028  0.1820
   20MOL   C33218230   2.788   0.169   3.055  0.6291  0.3955  0.3596
   20MOL   C33318231   2.695   0.062   3.115 -0.0955 -0.7272  0.2076
   20MOL   C33418232   2.563   0.117   3.176  0.8892 -0.2327  0.1313
   20MOL   C33518233   2.471   0.219   3.105 -0.2192  0.2664 -0.5774
   20MOL   C33618234   2.322   0.211   3.150 -0.6455 -0.8281 -0.4364
   20MOL   C33718235   2.233   0.314   3.073  0.4407  0.7805 -0.9244
   20MOL   C33818236   2.085   0.279   3.066 -0.6560  0.0616 -0.1492
   20MOL   C33918237   1.998   0.380   2.983  0.1828  0.0339 -0.4550
   20MOL   C34018238   2.043   0.387   2.829  0.3904  0.0584  0.7030
   20MOL   C34118239   2.010   0.263   2.740 -0.3972  0.2834 -0.1590
   20MOL   O34218240   2.097   0.157   2.768 -0.1391 -0.6357  1.4885
   20MOL   C34318241   2.140   0.089   2.659  0.1654  0.9028  0.3577
   20MOL   O34418242   2.084   0.094   2.551 -0.0466  0.3445  0.0629
   20MOL   C34518243   2.252   7.973   2.690 -0.4969  0.0332 -0.4449
   20MOL   C34618244   2.292   7.968   2.826 -0.1256  0.1952  0.3535
   20MOL   C34718245   2.392   7.875   2.859  0.3739  1.1923 -0.6857
   20MOL   C34818246   2.444   7.788   2.760  0.2535 -0.3280  0.7919
   20MOL   C34918247   2.555   7.695   2.794  0.3961 -0.2314 -0.3838
   20MOL   O35018248   2.622   7.636   2.707  0.3593  0.1178  0.1860
   20MOL   O35118249   2.573   7.667   2.930  0.2983 -0.6139 -0.1034
   20MOL   C35218250   2.395   7.786   2.627 -0.0466 -0.6297  0.4806
   20MOL   C35318251   2.304   7.887   2.592  0.6272 -0.1597  0.3016
   20MOL   H35418252   2.893   0.145   3.046  0.8002  2.1467 -3.3899
   20MOL   H35518253   2.778   0.262   3.110 -0.6660 -0.2600  1.2648
   20MOL   H35618254   2.749   0.014   3.198 -1.3616 -2.1771  0.2264
   20MOL   H35718255   2.683   7.963   3.039  1.3393 -0.7513 -0.0111
   20MOL   H35818256   2.497   0.031   3.184  2.8315 -1.6355  1.5112
   20MOL   H35918257   2.588   0.160   3.274 -1.2224  3.0445 -0.6953
   20MOL   H36018258   2.470   0.209   2.997 -0.2520  1.3863 -0.6926
   20MOL   H36118259   2.516   0.318   3.119 -0.6444  0.3395  0.3463
   20MOL   H36218260   2.277   0.113   3.133 -0.0590 -1.1776 -0.0017
   20MOL   H36318261   2.308   0.225   3.257 -0.4732  1.6083 -0.7188
   20MOL   H36418262   2.246   0.408   3.127 -0.6818 -1.1934  3.0178
   20MOL   H36518263   2.283   0.329   2.978  1.0149 -1.3628 -0.9985
   20MOL   H36618264   2.079   0.176   3.029  0.4291 -0.4996  1.2153
   20MOL   H36718265   2.040   0.262   3.163  0.5821 -3.4518 -0.1148
   20MOL   H36818266   1.893   0.353   2.995  0.5631 -1.4158 -0.2856
   20MOL   H36918267   2.025   0.479   3.020 -0.2184  1.5325 -3.9581
   20MOL   H37018268   2.145   0.420   2.810  0.0127 -0.2309 -2.0468
   20MOL   H37118269   1.986   0.472   2.791  0.0088 -0.0541  1.0248
   20MOL   H37218270   2.010   0.298   2.637 -1.5337 -0.1047 -0.2913
   20MOL   H37318271   1.914   0.228   2.777  0.7713 -0.1656  2.6221
   20MOL   H37418272   2.261   0.052   2.909  0.1779  0.3170  0.3735
   20MOL   H37518273   2.419   7.861   2.962  1.1827  1.7222 -0.8224
   20MOL   H37618274   2.444   7.726   2.552  0.4846  0.6465 -0.2169
   20MOL   H37718275   2.286   7.906   2.488 -0.3186 -1.2840  0.2515
   20MOL   O37818276   2.672   7.561   2.952 -0.8556 -0.1967 -0.0195
   20MOL   C37918277   2.778   7.616   3.023 -0.4891 -0.2328  0.3182
   20MOL   C38018278   2.851   7.718   2.943  0.1551 -0.5681  0.1582
   20MOL   C38118279   2.977   7.771   3.025 -0.3654 -0.1425 -0.5980
   20MOL   C38218280   3.053   7.877   2.946  0.5030  0.2171  0.1865
   20MOL   C38318281   3.174   7.944   3.015 -0.0641 -0.3862  0.0928
   20MOL   C38418282   3.234   0.078   2.931  0.3720  0.9400 -0.3338
   20MOL   C38518283   3.371   0.116   2.977  0.6429  0.5835  0.0484
   20MOL   C38618284   3.430   0.228   2.889 -0.4254 -0.7019 -0.0786
   20MOL   C38718285   3.581   0.265   2.934 -0.6475  0.4282  0.6127
   20MOL   C38818286   3.587   0.355   3.058  0.0034  0.1735 -0.0799
   20MOL   O38918287   3.719   0.390   3.089 -0.2572 -0.6142  0.0332
   20MOL   C39018288   3.778   0.314   3.187  0.4942 -0.4246  0.1979
   20MOL   O39118289   3.712   0.237   3.260 -0.3007  1.1958  0.4980
   20MOL   C39218290   3.922   0.326   3.199 -1.0377  0.5839  0.1714
   20MOL   C39318291   3.983   0.236   3.286 -0.9718  0.1546 -0.7247
   20MOL   C39418292   4.129   0.242   3.301  0.0355 -0.4390 -0.7371
   20MOL   C39518293   4.209   0.335   3.227 -0.2788  0.1119 -0.5606
   20MOL   C39618294   4.355   0.348   3.252  0.5424 -0.2621  0.9234
   20MOL   O39718295   4.413   0.282   3.339 -0.3152 -0.0173  0.0480
   20MOL   O39818296   4.424   0.430   3.168  0.3171  0.4836  0.2862
   20MOL   C39918297   4.135   0.431   3.153  0.0233  0.3053 -0.1856
   20MOL   C40018298   3.995   0.427   3.137 -0.0681  0.1528  0.5871
   20MOL   H40118299   2.722   7.672   3.098 -0.8090 -0.4536  0.2463
   20MOL   H40218300   2.837   7.539   3.072  0.8900  1.7453  1.8270
   20MOL   H40318301   2.789   7.801   2.911  1.4030  0.6860  0.8907
   20MOL   H40418302   2.898   7.674   2.855  2.6423  1.9407  0.1500
   20MOL   H40518303   2.944   7.821   3.116 -2.4337 -2.2971 -0.1056
   20MOL   H40618304   3.051   7.700   3.063 -0.9496  0.7683  2.3583
   20MOL   H40718305   2.986   7.955   2.909  1.2788  0.5834 -0.4739
   20MOL   H40818306   3.084   7.836   2.850  0.5325 -1.0996  0.7512
   20MOL   H40918307   3.132   7.971   3.112 -3.4645  0.0016 -1.4350
   20MOL   H41018308   3.250   7.865   3.020  0.5548  0.3192  2.2460
   20MOL   H41118309   3.231   0.059   2.824  3.6826  0.9018 -0.4745
   20MOL   H41218310   3.163   0.160   2.946 -1.9682 -1.1291  0.2711
   20MOL   H41318311   3.366   0.161   3.076  1.3245  1.5345 -0.3386
   20MOL   H41418312   3.442   0.033   2.973  0.4287  0.4145 -0.2081
   20MOL   H41518313   3.420   0.204   2.784 -0.0322 -2.1024  0.1918
   20MOL   H41618314   3.369   0.318   2.895 -2.5608 -2.1170  0.1287
   20MOL   H41718315   3.643   0.317   2.862  1.1301 -1.0276  1.0424
   20MOL   H41818316   3.630   0.170   2.957 -1.7599 -0.4978 -0.7686
   20MOL   H41918317   3.526   0.311   3.137  0.8194  0.1054  0.5153
   20MOL   H42018318   3.538   0.446   3.025 -0.2182 -0.1046 -0.5167
   20MOL   H42118319   3.937   0.149   3.331 -1.2593  0.1290 -1.0699
   20MOL   H42218320   4.173   0.167   3.365  1.2221  1.1235  0.3106
   20MOL   H42318321   4.202   0.506   3.113  0.7757 -0.5553 -0.5705
   20MOL   H42418322   3.934   0.499   3.083  1.6811  0.3160 -1.2097
   20MOL   O42518323   4.557   0.456   3.212 -0.5614  0.1620 -0.3527
   20MOL   C42618324   4.556   0.590   3.254 -0.1911 -0.0608 -0.2474
   20MOL   C42718325   4.697   0.653   3.274  0.7631 -0.1364 -0.6455
   20MOL   C42818326   4.784   0.583   3.376 -0.4679  0.5920  0.3372
   20MOL   C42918327   4.927   0.640   3.392  0.1622 -0.3477  0.1951
   20MOL   C43018328   4.945   0.739   3.511 -0.4237 -0.1719  0.1157
   20MOL   C43118329   5.094   0.781   3.532 -0.1059 -0.6670  0.3860
   20MOL   C43218330   5.121   0.864   3.662  0.2369  0.0172 -0.4987
   20MOL   C43318331   5.075   1.007   3.651  0.2626 -0.3880 -0.3799
   20MOL   C43418332   5.131   1.088   3.765  1.0905  0.1581 -0.5878
   20MOL   C43518333   5.066   1.228   3.781 -0.4360 -0.0227  0.4929
   20MOL   O43618334   5.118   1.316   3.680 -0.1910  0.1407 -0.2483
   20MOL   C43718335   5.121   1.454   3.707  0.2380 -0.3266 -0.7496
   20MOL   O43818336   5.066   1.502   3.806 -0.4993  0.8687  0.1117
   20MOL   C43918337   5.200   1.534   3.603 -0.2406 -0.3886 -0.8002
   20MOL   C44018338   5.280   1.650   3.634 -0.0677 -0.0118  0.8743
   20MOL   C44118339   5.345   1.722   3.533  0.1185 -0.3834 -0.9330
   20MOL   C44218340   5.351   1.662   3.402 -0.8987 -0.0733 -0.2763
   20MOL   C44318341   5.429   1.728   3.292 -0.0566 -0.2236  0.0985
   20MOL   O44418342   5.412   1.708   3.173  0.6503  0.3972  0.2968
   20MOL   O44518343   5.512   1.819   3.338  0.5458  0.4338  0.2492
   20MOL   C44618344   5.292   1.541   3.374 -0.3203  0.2380  0.7474
   20MOL   C44718345   5.208   1.478   3.474 -0.4882  0.0227 -1.0792
   20MOL   H44818346   4.501   0.645   3.178  1.7527  2.0103 -0.2065
   20MOL   H44918347   4.507   0.591   3.352  0.7390 -1.6872  0.2557
   20MOL   H45018348   4.689   0.757   3.307 -1.6329 -0.0579 -1.3885
   20MOL   H45118349   4.753   0.648   3.181  0.7384 -0.9523 -0.6245
   20MOL   H45218350   4.727   0.575   3.468  1.0374  2.8491  1.5135
   20MOL   H45318351   4.804   0.480   3.345  0.3405  1.3872 -1.9266
   20MOL   H45418352   4.956   0.684   3.296 -0.7789  0.5361  0.3023
   20MOL   H45518353   4.983   0.547   3.399 -1.4594 -1.4484 -0.8721
   20MOL   H45618354   4.887   0.830   3.495  1.6362  1.3914  1.2997
   20MOL   H45718355   4.906   0.687   3.598  1.3753 -0.3150  0.8514
   20MOL   H45818356   5.152   0.689   3.546  0.6279 -0.3100 -0.3064
   20MOL   H45918357   5.131   0.829   3.442 -1.6474 -1.2567 -0.5849
   20MOL   H46018358   5.064   0.824   3.745  0.6738  1.4959  0.5456
   20MOL   H46118359   5.227   0.867   3.687  0.4599  0.7742 -1.4916
   20MOL   H46218360   5.099   1.039   3.550 -2.1204  1.3370 -0.4297
   20MOL   H46318361   4.966   0.997   3.656  0.6240 -3.5227  3.1660
   20MOL   H46418362   5.239   1.100   3.751  1.1966 -0.6667 -0.4672
   20MOL   H46518363   5.119   1.034   3.859 -0.3607 -2.2693 -2.1223
   20MOL   H46618364   5.088   1.276   3.876 -0.4623 -3.0659  2.0783
   20MOL   H46718365   4.957   1.225   3.776 -0.4478  1.2109 -0.1039
   20MOL   H46818366   5.281   1.672   3.740 -0.5356  0.0536  0.8679
   20MOL   H46918367   5.391   1.818   3.552  2.0622 -0.6390 -3.9621
   20MOL   H47018368   5.291   1.500   3.273 -0.0795  0.5060  0.6362
   20MOL   H47118369   5.154   1.391   3.439  1.5165 -0.6961 -2.4578
   20MOL   O47218370   5.610   1.873   3.234  0.2226 -0.3942 -0.0357
   20MOL   C47318371   5.735   1.813   3.254  0.5211  0.4999  0.0700
   20MOL   C47418372   5.823   1.857   3.132  0.9917 -0.3214 -0.8967
   20MOL   C47518373   5.850   2.012   3.149  0.3419 -0.5638 -0.6013
   20MOL   C47618374   5.926   2.069   3.028  0.2355  0.0551 -0.3226
   20MOL   C47718375   6.075   2.031   3.028  0.4130  0.1181 -0.0883
   20MOL   C47818376   6.158   2.099   2.919  0.1970  0.0724 -0.0879
   20MOL   C47918377   6.146   2.252   2.916  0.3522  0.8054 -0.3263
   20MOL   C48018378   6.265   2.318   2.845 -0.3450  0.2414 -0.1700
   20MOL   C48118379   6.287   2.283   2.694  0.7951 -0.0235 -0.0675
   20MOL   C48218380   6.183   2.350   2.601 -0.0564 -0.3095 -0.1371
   20MOL   O48318381   6.209   2.332   2.463  0.1019  0.2605 -0.1462
   20MOL   C48418382   6.139   2.417   2.386 -0.3695 -0.3718  0.2430
   20MOL   O48518383   6.081   2.518   2.429  0.0679  0.4137 -0.2581
   20MOL   C48618384   6.147   2.389   2.239  0.3256 -0.1544 -0.4120
   20MOL   C48718385   6.079   2.472   2.147  0.1373 -0.4984 -0.2307
   20MOL   C48818386   6.068   2.448   2.011  0.0983 -0.2724 -0.1348
   20MOL   C48918387   6.136   2.336   1.957  0.1949  0.2610  0.5160
   20MOL   C49018388   6.116   2.302   1.815  0.2360 -0.6139 -0.4384
   20MOL   O49118389   6.085   2.385   1.726 -0.4968 -0.2760  0.3094
   20MOL   O49218390   6.118   2.171   1.790  0.1110 -0.6274  0.1528
   20MOL   C49318391   6.211   2.256   2.048  1.0956  0.1325  0.0586
   20MOL   C49418392   6.218   2.284   2.184 -0.1236  0.2067  0.1905
   20MOL   H49518393   5.772   1.849   3.350 -0.1254  1.4590 -0.0283
   20MOL   H49618394   5.722   1.705   3.256  0.7789  0.4655 -0.1015
   20MOL   H49718395   5.778   1.845   3.034 -1.1295 -2.5068  0.2714
   20MOL   H49818396   5.918   1.804   3.127  0.0918 -2.4308  2.5720
   20MOL   H49918397   5.760   2.068   3.173  0.5917 -0.1538 -0.6038
   20MOL   H50018398   5.918   2.016   3.234  1.1381  0.0065 -1.2563
   20MOL   H50118399   5.912   2.176   3.039 -1.5190 -0.1364 -0.4644
   20MOL   H50218400   5.884   2.042   2.930  1.1284  2.3294 -1.3682
   20MOL   H50318401   6.107   2.059   3.128  0.3969  1.7210 -0.5208
   20MOL   H50418402   6.075   1.922   3.027  1.5607  0.1145 -0.3577
   20MOL   H50518403   6.261   2.066   2.927  1.2447  3.0755 -0.8454
   20MOL   H50618404   6.125   2.065   2.820 -3.2959  1.7800  0.4084
   20MOL   H50718405   6.055   2.273   2.860 -0.2834  0.1989  0.4674
   20MOL   H50818406   6.140   2.289   3.018  2.0143  0.8631 -0.2330
   20MOL   H50918407   6.268   2.425   2.868  1.6086 -0.0649  1.1537
   20MOL   H51018408   6.349   2.274   2.899 -0.3785  0.5564  0.1467
   20MOL   H51118409   6.289   2.174   2.695  0.0449 -0.0412  1.8370
   20MOL   H51218410   6.380   2.327   2.658  1.6735 -0.7403  1.2577
   20MOL   H51318411   6.185   2.454   2.634  1.0148 -0.2442 -0.3916
   20MOL   H51418412   6.085   2.316   2.633 -0.8342 -0.2952 -2.4573
   20MOL   H51518413   6.021   2.557   2.180 -1.0533 -0.0122 -3.4039
   20MOL   H51618414   6.012   2.512   1.945 -0.8906 -1.1814 -0.1807
   20MOL   H51718415   6.262   2.169   2.009  1.4118  1.2778 -2.1223
   20MOL   H51818416   6.270   2.217   2.251 -4.8387 -3.5290  0.3453
   20MOL   O51918417   6.083   2.131   1.650 -0.1119 -0.2764 -0.3166
   20MOL   C52018418   6.208   2.082   1.594  0.3745 -0.7696  0.0129
   20MOL   C52118419   6.311   2.192   1.559  0.1402 -0.3420 -0.2980
   20MOL   C52218420   6.279   2.288   1.449 -0.6739 -0.2184 -0.4913
   20MOL   C52318421   6.369   2.404   1.431 -0.0025 -0.2416  0.0900
   20MOL   C52418422   6.314   2.491   1.317 -0.3220 -0.4132  0.6694
   20MOL   C52518423   6.415   2.586   1.270  0.1203 -0.3916  0.0198
   20MOL   C52618424   6.354   2.698   1.179  0.1214 -0.9466 -0.0949
   20MOL   C52718425   6.454   2.797   1.132 -0.5918  0.4136 -0.0753
   20MOL   C52818426   6.407   2.927   1.059  0.2094 -0.7015 -0.9701
   20MOL   C52918427   6.522   3.015   1.009  0.3473  0.0272 -0.4775
   20MOL   O53018428   6.468   3.143   0.992  0.4147  0.7049 -0.2399
   20MOL   C53118429   6.562   3.237   0.964  0.9839  0.3634  1.1545
   20MOL   O53218430   6.680   3.216   0.933  0.1494 -0.0085 -0.0262
   20MOL   C53318431   6.510   3.374   0.973 -0.1139  0.5922  0.3020
   20MOL   C53418432   6.600   3.477   1.001 -0.0079  0.1037  0.5683
   20MOL   C53518433   6.558   3.610   1.017  0.3857 -0.2211  0.3744
   20MOL   C53618434   6.420   3.635   1.012  0.5857 -1.0499 -0.0411
   20MOL   C53718435   6.365   3.774   1.036 -0.2673 -0.5166  0.7883
   20MOL   O53818436   6.253   3.809   0.996  0.2016  0.1300  0.2128
   20MOL   O53918437   6.452   3.862   1.092  0.0991 -0.4344  0.0176
   20MOL   C54018438   6.325   3.534   0.976 -0.9119 -0.1010 -0.1828
   20MOL   C54118439   6.373   3.403   0.961  0.3695 -0.5265 -0.2832
   20MOL   H54218440   6.244   2.017   1.674 -1.0277  0.2029  1.4583
   20MOL   H54318441   6.198   2.025   1.502 -2.1497 -0.1936 -0.0973
   20MOL   H54418442   6.404   2.148   1.525  0.4650 -0.6861  1.0028
   20MOL   H54518443   6.332   2.241   1.654 -1.8334 -1.2392  0.6422
   20MOL   H54618444   6.270   2.233   1.355 -2.1520  0.2704 -0.6493
   20MOL   H54718445   6.185   2.337   1.476 -1.5559 -0.9403 -2.2068
   20MOL   H54818446   6.473   2.372   1.420  0.7715  1.7794  1.1162
   20MOL   H54918447   6.371   2.456   1.527 -1.9613 -1.5677  0.8610
   20MOL   H55018448   6.282   2.434   1.230  1.7150 -0.2879 -0.1952
   20MOL   H55118449   6.227   2.546   1.353  0.6303 -0.0777  2.5619
   20MOL   H55218450   6.462   2.621   1.363 -0.3129 -1.2340  0.5537
   20MOL   H55318451   6.493   2.539   1.211 -0.6253 -0.9418 -0.5282
   20MOL   H55418452   6.306   2.651   1.093 -0.5800 -1.3019  0.4837
   20MOL   H55518453   6.274   2.747   1.235  1.0934 -0.5519  0.9629
   20MOL   H55618454   6.515   2.828   1.217 -0.1761 -0.9815  0.1529
   20MOL   H55718455   6.529   2.745   1.072 -0.5242  1.0760 -0.5684
   20MOL   H55818456   6.353   2.980   1.138 -0.1936  0.7844 -2.2142
   20MOL   H55918457   6.340   2.912   0.975  0.0418  3.0526 -1.5647
   20MOL   H56018458   6.565   2.972   0.919  1.1448  0.8555 -0.4948
   20MOL   H56118459   6.608   3.013   1.075 -0.4989 -0.9920  0.6265
   20MOL   H56218460   6.703   3.449   1.018 -0.4572 -1.1602  1.3299
   20MOL   H56318461   6.631   3.683   1.047 -0.6717 -0.0410  2.5706
   20MOL   H56418462   6.222   3.566   0.967 -0.7740  0.6208  0.6690
   20MOL   H56518463   6.305   3.327   0.924 -0.9178  0.5372 -0.1398
   20MOL   O56618464   6.389   3.995   1.118  0.8440  0.0569  0.1312
   20MOL   C56718465   6.426   4.079   1.023 -0.1627 -0.1782  0.0449
   20MOL   C56818466   6.416   4.217   1.084  1.0254  0.1831 -0.6437
   20MOL   C56918467   6.384   4.331   0.983 -1.3841  0.2772 -0.5320
   20MOL   C57018468   6.513   4.387   0.907 -0.0294 -0.5626 -0.1623
   20MOL   C57118469   6.477   4.503   0.810 -0.4545  0.0105 -0.6277
   20MOL   C57218470   6.602   4.569   0.740  0.2975 -0.6823  0.6194
   20MOL   C57318471   6.692   4.661   0.825  0.7613 -0.0084 -0.3289
   20MOL   C57418472   6.772   4.767   0.747  0.1003 -0.1112 -0.3692
   20MOL   C57518473   6.885   4.845   0.817  0.8425  0.1583 -0.1828
   20MOL   C57618474   6.836   4.944   0.928  0.0426 -0.1554  0.4509
   20MOL   O57718475   6.743   4.888   1.016 -0.0813 -0.1220 -0.1119
   20MOL   C57818476   6.645   4.966   1.078  0.6520 -0.3255  0.0673
   20MOL   O57918477   6.643   5.091   1.068  0.2785  0.3337  0.2663
   20MOL   C58018478   6.525   4.893   1.142 -0.4759  0.6943  0.5022
   20MOL   C58118479   6.404   4.955   1.182 -0.0745 -0.4260 -0.4796
   20MOL   C58218480   6.295   4.882   1.226 -0.2262 -0.6686 -0.0791
   20MOL   C58318481   6.302   4.744   1.233  0.1231 -1.0917  0.1820
   20MOL   C58418482   6.191   4.660   1.283 -0.5435 -0.5804 -0.7873
   20MOL   O58518483   6.190   4.537   1.266  0.0280  0.1854  0.3984
   20MOL   O58618484   6.092   4.724   1.350  0.1853  0.2659 -0.0901
   20MOL   C58718485   6.420   4.679   1.186 -0.6783  0.2740 -0.1168
   20MOL   C58818486   6.535   4.753   1.143 -0.1066 -0.0704 -0.0065
   20MOL   H58918487   6.529   4.063   0.992 -0.4218  0.1956 -1.0234
   20MOL   H59018488   6.361   4.065   0.937 -1.1894 -2.1679  1.1230
   20MOL   H59118489   6.503   4.243   1.144 -1.0506 -0.5323  2.8014
   20MOL   H59218490   6.328   4.210   1.147  0.3680 -1.3727 -1.6907
   20MOL   H59318491   6.301   4.298   0.920 -1.6414 -0.6082  0.2528
   20MOL   H59418492   6.343   4.415   1.040 -0.8166  1.3082 -1.6357
   20MOL   H59518493   6.563   4.313   0.846 -2.4339 -1.5810 -0.9706
   20MOL   H59618494   6.591   4.432   0.968  0.1020  1.3180 -1.6799
   20MOL   H59718495   6.415   4.475   0.725 -0.5513  1.6374 -1.1141
   20MOL   H59818496   6.424   4.579   0.867 -0.0761  0.7573 -1.2624
   20MOL   H59918497   6.660   4.489   0.693 -1.2601 -0.6634 -1.3413
   20MOL   H60018498   6.564   4.619   0.652 -2.1683 -3.0798  0.2622
   20MOL   H60118499   6.626   4.716   0.891  0.7068  1.2373 -1.4036
   20MOL   H60218500   6.752   4.604   0.896 -0.7443  1.4301  2.1656
   20MOL   H60318501   6.812   4.709   0.665  2.2582 -0.3164  0.7872
   20MOL   H60418502   6.703   4.834   0.697  0.8306  0.1950 -0.9790
   20MOL   H60518503   6.942   4.898   0.741  2.5971 -3.2963 -1.3683
   20MOL   H60618504   6.944   4.766   0.862 -0.8386 -0.9763  0.0848
   20MOL   H60718505   6.790   5.028   0.876 -0.7018 -0.8318  0.0021
   20MOL   H60818506   6.916   4.985   0.989  0.3330  1.2414 -0.8255
   20MOL   H60918507   6.405   5.063   1.173  1.5908 -0.4068 -0.2351
   20MOL   H61018508   6.205   4.936   1.249  0.0733 -0.8270  1.5298
   20MOL   H61118509   6.435   4.572   1.189 -2.1092 -0.0394 -2.6531
   20MOL   H61218510   6.616   4.693   1.105 -1.2380 -2.0979  0.6837
   20MOL   O61318511   5.983   4.634   1.404 -0.1990  0.3502  0.0849
   20MOL   C61418512   6.019   4.591   1.534  0.3514  0.0882  0.5561
   20MOL   C61518513   6.012   4.702   1.635  0.0018 -0.1597  0.3491
   20MOL   C61618514   5.871   4.757   1.657  0.5401 -0.5477 -0.0155
   20MOL   C61718515   5.865   4.860   1.771 -0.2498  0.4609 -0.1019
   20MOL   C61818516   5.721   4.926   1.788 -0.2848 -0.9271  0.2638
   20MOL   C61918517   5.695   5.040   1.680  0.4353  0.1204  0.3359
   20MOL   C62018518   5.574   5.130   1.714  0.5124  0.1035 -0.0479
   20MOL   C62118519   5.433   5.066   1.705 -0.4343 -0.3928  0.3278
   20MOL   C62218520   5.396   5.008   1.570  0.6474  0.2641  0.9036
   20MOL   C62318521   5.261   4.937   1.571 -0.2338  0.0433  0.3877
   20MOL   O62418522   5.231   4.884   1.438 -0.3249  0.4463  0.0275
   20MOL   C62518523   5.112   4.820   1.409  0.1788  0.4330 -0.0176
   20MOL   O62618524   5.028   4.796   1.494  0.0609  0.3636  0.0179
   20MOL   C62718525   5.101   4.773   1.265 -0.2804  0.4011  0.3621
   20MOL   C62818526   4.981   4.710   1.224 -0.5076 -0.3407  0.3153
   20MOL   C62918527   4.962   4.667   1.089 -0.0497  0.1759 -0.3378
   20MOL   C63018528   5.058   4.686   0.991 -1.2322  0.4869  0.0814
   20MOL   C63118529   5.049   4.634   0.855  0.5891 -0.3563 -0.2395
   20MOL   O63218530   4.979   4.543   0.825  0.2924  0.4038  0.2045
   20MOL   O63318531   5.117   4.709   0.768  0.6175 -0.0018  0.0539
   20MOL   C63418532   5.178   4.750   1.035  0.4272 -0.3126  0.2360
   20MOL   C63518533   5.201   4.795   1.167 -0.8419  0.8678  0.0594
   20MOL   H63618534   5.939   4.520   1.557  1.3215 -1.7153 -1.3740
   20MOL   H63718535   6.115   4.540   1.528  1.2656  2.0187 -2.7778
   20MOL   H63818536   6.058   4.792   1.594 -3.4996  0.8928 -1.4406
   20MOL   H63918537   6.060   4.669   1.727 -0.9016 -0.1093  0.8353
   20MOL   H64018538   5.849   4.802   1.560 -2.1343 -1.3584  0.1814
   20MOL   H64118539   5.809   4.670   1.678 -1.0786  0.6838  0.4185
   20MOL   H64218540   5.943   4.933   1.751  0.3607  0.0230  0.6914
   20MOL   H64318541   5.900   4.806   1.858  0.3276 -0.7515 -1.0761
   20MOL   H64418542   5.642   4.853   1.772 -0.1523 -0.5919 -2.1869
   20MOL   H64518543   5.714   4.963   1.890 -0.5526 -2.1640  0.6979
   20MOL   H64618544   5.788   5.097   1.684  0.3638  0.1936  1.1885
   20MOL   H64718545   5.682   5.008   1.577  0.1558  1.9639 -0.2181
   20MOL   H64818546   5.593   5.177   1.811  0.9839 -2.3033  1.0851
   20MOL   H64918547   5.577   5.216   1.648  0.3495  0.5731  0.5519
   20MOL   H65018548   5.434   4.989   1.782  1.6657 -1.4828 -0.7484
   20MOL   H65118549   5.363   5.145   1.734 -1.9461 -1.8844  0.7832
   20MOL   H65218550   5.470   4.932   1.546 -0.0682  0.4968 -2.4064
   20MOL   H65318551   5.395   5.082   1.489  0.6926 -0.2415  0.4379
   20MOL   H65418552   5.181   4.999   1.612 -0.9071 -0.4384 -0.1780
   20MOL   H65518553   5.265   4.851   1.638  1.3069 -0.4868 -0.3643
   20MOL   H65618554   4.899   4.693   1.292  2.8995  0.4759  4.8760
   20MOL   H65718555   4.864   4.630   1.064 -0.8102  1.6006  0.5095
   20MOL   H65818556   5.265   4.747   0.971 -0.1345 -0.1822 -0.5478
   20MOL   H65918557   5.301   4.833   1.184  0.6135 -2.2856 -1.0895
   20MOL   O66018558   5.105   4.687   0.620  0.0409 -0.0623  0.1049
   20MOL   C66118559   5.222   4.608   0.588 -0.4151 -0.0042  0.6732
   20MOL   C66218560   5.230   4.571   0.437  0.0478 -0.0397 -0.5482
   20MOL   C66318561   5.290   4.676   0.347  0.1047  0.1226  0.0764
   20MOL   C66418562   5.284   4.633   0.200 -0.4485 -0.3541 -0.3919
   20MOL   C66518563   5.395   4.530   0.167  0.6973 -0.1229  0.4140
   20MOL   C66618564   5.369   4.448   0.039 -0.4654  0.2076  0.2362
   20MOL   C66718565   5.482   4.349   0.003 -0.0227  0.2032 -0.5635
   20MOL   C66818566   5.433   4.250   7.869 -0.0293 -0.6288 -0.2974
   20MOL   C66918567   5.541   4.147   7.824 -0.1522 -0.4303  0.4225
   20MOL   C67018568   5.632   4.202   7.722  0.2641  0.4663 -0.9146
   20MOL   O67118569   5.711   4.090   7.678 -0.7548  0.5850 -0.2294
   20MOL   C67218570   5.825   4.053   7.733  0.1816  0.3739  0.0519
   20MOL   O67318571   5.871   4.108   7.832  0.2262  0.2227 -0.0267
   20MOL   C67418572   5.900   3.954   7.646 -0.8150  0.0566 -0.9682
   20MOL   C67518573   5.855   3.893   7.527  1.0340 -0.8251  0.7167
   20MOL   C67618574   5.918   3.787   7.462  0.1742 -0.2689  0.3645
   20MOL   C67718575   6.039   3.732   7.522  0.6657 -0.3963 -0.1250
   20MOL   C67818576   6.119   3.624   7.449 -0.3547  0.2183  0.0942
   20MOL   O67918577   6.231   3.574   7.489 -0.1847  0.0637  0.0086
   20MOL   O68018578   6.068   3.596   7.331 -0.6465  0.3745  0.8951
   20MOL   C68118579   6.088   3.794   7.640 -0.0084  0.0851  0.5330
   20MOL   C68218580   6.019   3.900   7.702 -0.5355  1.1945  0.1062
   20MOL   H68318581   5.318   4.656   0.607  0.5631 -1.9750  0.8153
   20MOL   H68418582   5.216   4.523   0.655 -2.1603 -0.0653  0.4527
   20MOL   H68518583   5.131   4.546   0.397 -1.2117  1.4659  1.5309
   20MOL   H68618584   5.283   4.476   0.434  2.0109  1.0322 -0.1859
   20MOL   H68718585   5.225   4.763   0.358 -1.0611 -0.7939  0.5985
   20MOL   H68818586   5.393   4.692   0.379 -0.1237  0.3118  0.7323
   20MOL   H68918587   5.291   4.722   0.138 -0.7629  0.1953  0.3491
   20MOL   H69018588   5.183   4.606   0.168 -0.9815 -0.5965  1.4144
   20MOL   H69118589   5.487   4.587   0.153 -0.6790  1.9374 -0.4916
   20MOL   H69218590   5.419   4.463   0.250  0.3859 -0.4230  0.2623
   20MOL   H69318591   5.277   4.389   0.050 -1.8160  1.7698 -2.3454
   20MOL   H69418592   5.349   4.512   7.932  1.2801  0.7816  0.2507
   20MOL   H69518593   5.562   4.412   7.942  0.8833  0.4841  1.6533
   20MOL   H69618594   5.526   4.298   0.089  0.0201  0.2600 -0.5523
   20MOL   H69718595   5.350   4.195   7.913 -0.8213  1.2680  0.6628
   20MOL   H69818596   5.398   4.300   7.778 -0.8722 -2.2604 -0.8863
   20MOL   H69918597   5.496   4.060   7.777 -0.3763  0.1981 -0.5302
   20MOL   H70018598   5.595   4.109   7.911 -0.4578 -1.1042  0.3175
   20MOL   H70118599   5.701   4.272   7.770 -0.4564 -0.1786  1.0876
   20MOL   H70218600   5.582   4.253   7.639  0.5601  0.6149 -1.0041
   20MOL   H70318601   5.772   3.939   7.478  1.8132 -0.5431 -0.3553
   20MOL   H70418602   5.883   3.738   7.372 -1.9681 -1.4470  1.8015
   20MOL   H70518603   6.187   3.768   7.673  0.5708  0.9929 -0.4666
   20MOL   H70618604   6.055   3.932   7.798  1.4698  0.7181 -0.4643
   20MOL   O70718605   6.161   3.519   7.240  0.4187  0.2412 -0.0505
   20MOL   C70818606   6.228   3.617   7.165  0.6247 -0.1980 -0.7011
   20MOL   C70918607   6.290   3.551   7.043  0.1372  0.3722  0.0652
   20MOL   C71018608   6.391   3.643   6.978 -0.0130 -0.0595  0.3515
   20MOL   C71118609   6.433   3.591   6.847 -0.2646  0.1233 -0.0799
   20MOL   C71218610   6.516   3.691   6.759 -0.0543 -0.3537  0.0007
   20MOL   C71318611   6.567   3.641   6.623 -0.2797  0.2082  0.3778
   20MOL   C71418612   6.695   3.549   6.626  0.7206  0.3595  0.0699
   20MOL   C71518613   6.767   3.526   6.497  0.3259 -0.0792  0.0254
   20MOL   C71618614   6.852   3.394   6.497 -0.9883  0.0095  0.4828
   20MOL   C71718615   6.774   3.259   6.475 -0.9445  0.1246  0.2240
   20MOL   O71818616   6.677   3.242   6.576  0.2103  0.0728  0.1569
   20MOL   C71918617   6.542   3.243   6.543 -0.2253  0.0447  0.2041
   20MOL   O72018618   6.504   3.267   6.427 -0.0317 -0.1671  0.2098
   20MOL   C72118619   6.449   3.217   6.656 -0.4121  0.2016 -0.1227
   20MOL   C72218620   6.313   3.224   6.628  0.0540  0.4714 -0.0993
   20MOL   C72318621   6.220   3.192   6.727  0.2910  0.7588  0.6374
   20MOL   C72418622   6.264   3.168   6.859 -0.6738 -0.4189  0.0108
   20MOL   C72518623   6.162   3.147   6.967  0.4198 -0.1025  0.0888
   20MOL   O72618624   6.049   3.186   6.963 -0.1358  0.1335 -0.1119
   20MOL   O72718625   6.222   3.092   7.077 -0.8362  0.2150 -0.7338
   20MOL   C72818626   6.405   3.157   6.882  0.8494  0.3896  0.8364
   20MOL   C72918627   6.499   3.180   6.779  0.1703 -0.2125  0.2718
   20MOL   H73018628   6.160   3.699   7.139 -0.1313 -0.7848 -0.6002
   20MOL   H73118629   6.307   3.651   7.231  0.5041 -0.9995 -0.1439
   20MOL   H73218630   6.205   3.520   6.983 -0.7631 -0.7814  1.8685
   20MOL   H73318631   6.335   3.459   7.082  1.3111  1.4764  1.3770
   20MOL   H73418632   6.331   3.734   6.968 -0.4650 -0.3151  0.7503
   20MOL   H73518633   6.480   3.662   7.039 -0.9426  0.5048  1.5594
   20MOL   H73618634   6.343   3.566   6.790 -0.3408  0.0432  0.0760
   20MOL   H73718635   6.484   3.495   6.861  0.3873  0.0810 -2.4248
   20MOL   H73818636   6.443   3.771   6.744  0.7545  0.5654  0.9077
   20MOL   H73918637   6.598   3.734   6.815  0.0151 -0.6635  0.1404
   20MOL   H74018638   6.483   3.591   6.576 -1.2716  1.8426  0.3785
   20MOL   H74118639   6.579   3.732   6.565 -0.4386 -0.1375 -0.1999
   20MOL   H74218640   6.781   3.592   6.678  0.7158 -1.5179  1.6528
   20MOL   H74318641   6.674   3.459   6.683  1.3477  0.6271  0.7246
   20MOL   H74418642   6.701   3.519   6.411  0.9049 -0.3173 -0.4037
   20MOL   H74518643   6.830   3.608   6.461  0.4766  0.9331  2.5065
   20MOL   H74618644   6.890   3.388   6.599 -0.2521  0.9448  0.2743
   20MOL   H74718645   6.932   3.410   6.425  0.2589 -0.5451  1.7185
   20MOL   H74818646   6.847   3.180   6.491  0.5335  1.9902  3.0707
   20MOL   H74918647   6.732   3.265   6.374  0.9058  0.8255 -0.5245
   20MOL   H75018648   6.279   3.256   6.530 -1.0713  0.6151  0.3225
   20MOL   H75118649   6.116   3.203   6.700  0.1796 -0.6149  0.4776
   20MOL   H75218650   6.445   3.133   6.979  1.1034 -0.1404  0.6019
   20MOL   H75318651   6.600   3.188   6.815  0.1481  0.1641  0.2522
   20MOL   O75418652   6.116   3.071   7.188 -0.1364 -0.3830  0.0027
   20MOL   C75518653   6.139   3.169   7.287 -0.1233 -0.2541  0.4849
   20MOL   C75618654   6.039   3.144   7.398 -0.0151 -0.4482 -0.5567
   20MOL   C75718655   6.036   3.268   7.479  0.4682 -0.2322 -0.1224
   20MOL   C75818656   5.956   3.253   7.610 -0.3536 -0.0827  0.2959
   20MOL   C75918657   5.922   3.395   7.667 -0.2231 -0.4178  0.4062
   20MOL   C76018658   5.868   3.386   7.807 -0.4037  0.2415 -0.5249
   20MOL   C76118659   5.802   3.512   7.861  0.7008 -0.0382 -0.5112
   20MOL   C76218660   5.671   3.552   7.782 -0.1889 -0.1909 -0.0723
   20MOL   C76318661   5.627   3.694   7.802 -0.7317  0.4258  0.3416
   20MOL   C76418662   5.514   3.739   7.704 -0.3123  0.3726 -0.3960
   20MOL   O76518663   5.404   3.665   7.759 -0.2131 -0.0023 -0.1103
   20MOL   C76618664   5.279   3.691   7.717 -0.6701  0.1537  0.3566
   20MOL   O76718665   5.255   3.775   7.632  0.3827 -0.0739 -0.2299
   20MOL   C76818666   5.179   3.616   7.790  0.0176 -0.0413 -0.5899
   20MOL   C76918667   5.041   3.626   7.760 -0.4788 -0.7645  0.5923
   20MOL   C77018668   4.952   3.544   7.828  0.1300 -0.9568 -0.1151
   20MOL   C77118669   4.990   3.457   7.933 -0.0721 -0.1915  1.3401
   20MOL   C77218670   4.895   3.374   0.036 -0.7263 -0.4599  0.7842
   20MOL   O77318671   4.937   3.320   0.138 -0.1985  0.0082 -0.0176
   20MOL   O77418672   4.759   3.371   7.972 -0.1853  0.0207 -0.0319
   20MOL   C77518673   5.126   3.441   7.955  0.1856 -0.0798  0.0817
   20MOL   C77618674   5.217   3.514   7.875 -0.0789  0.4185  0.7509
   20MOL   H77718675   6.243   3.158   7.320 -0.8024 -0.8015  2.4824
   20MOL   H77818676   6.131   3.262   7.231  1.6026 -0.7274 -0.6327
   20MOL   H77918677   6.074   3.063   7.462 -1.4773 -1.4547 -1.0213
   20MOL   H78018678   5.939   3.111   7.370 -0.5569  0.5261  0.1725
   20MOL   H78118679   6.137   3.306   7.498 -0.3843  1.6454  0.8500
   20MOL   H78218680   5.992   3.348   7.420 -1.9111  0.0240  1.8921
   20MOL   H78318681   5.997   3.175   7.674  2.0871  1.2600  0.4217
   20MOL   H78418682   5.864   3.204   7.577  0.1998 -1.5557  0.8561
   20MOL   H78518683   6.017   3.447   7.684  2.1554 -4.3816 -0.0846
   20MOL   H78618684   5.866   3.461   7.600  2.0267  2.2559  1.0322
   20MOL   H78718685   5.802   3.300   7.807  2.0268 -1.6933  0.9895
   20MOL   H78818686   5.952   3.355   7.868 -0.5027  0.5889 -0.2078
   20MOL   H78918687   5.791   3.492   7.968  1.8503 -1.4603 -0.6477
   20MOL   H79018688   5.868   3.596   7.845 -0.7689  1.7117  2.1346
   20MOL   H79118689   5.681   3.543   7.674 -0.6152 -2.5230  0.0656
   20MOL   H79218690   5.587   3.492   7.817  0.1097  0.1330  1.2234
   20MOL   H79318691   5.718   3.751   7.791  0.6049 -1.4065  1.5289
   20MOL   H79418692   5.610   3.732   7.902 -2.9059 -1.5357  0.7631
   20MOL   H79518693   5.527   3.697   7.604 -3.5752 -2.7580  0.3743
   20MOL   H79618694   5.495   3.847   7.703  0.7779  0.5943  1.3231
   20MOL   H79718695   5.010   3.697   7.686  1.3003 -1.6478 -1.0497
   20MOL   H79818696   4.847   3.553   7.804  0.0026 -0.9165  0.4332
   20MOL   H79918697   5.162   3.355   0.032  0.4356 -0.2544 -0.3447
   20MOL   H80018698   5.322   3.491   7.889  0.3440  1.5791 -0.3582
   20MOL   O80118699   4.676   3.286   0.084 -0.5692  0.4957 -0.4874
   20MOL   C80218700   4.611   3.369   0.181  0.2329 -0.2069 -0.2945
   20MOL   C80318701   4.534   3.276   0.277 -0.6361 -0.0200  0.6691
   20MOL   C80418702   4.416   3.215   0.202  0.5651  0.1511 -0.8201
   20MOL   C80518703   4.337   3.116   0.288  0.0403  0.4502  0.3471
   20MOL   C80618704   4.213   3.064   0.220  0.3031  0.9065 -0.3924
   20MOL   C80718705   4.143   2.957   0.304 -0.1391  0.2260 -0.3876
   20MOL   C80818706   4.037   2.877   0.226 -0.1337 -0.0778 -0.0327
   20MOL   C80918707   3.913   2.961   0.207 -0.1448  0.0612  0.3968
   20MOL   C81018708   3.795   2.873   0.144 -0.0918  0.2172 -0.0408
   20MOL   C81118709   3.668   2.954   0.123 -1.0580  0.2423 -0.6444
   20MOL   O81218710   3.555   2.875   0.102  0.1613  0.0862  0.0857
   20MOL   C81318711   3.432   2.942   0.072  0.2921 -0.2254  0.0805
   20MOL   O81418712   3.431   3.061   0.060 -0.2524  0.1546  0.0659
   20MOL   C81518713   3.307   2.858   0.056  0.3390  0.6574  0.2754
   20MOL   C81618714   3.316   2.714   0.068  1.0891  0.1916  0.0773
   20MOL   C81718715   3.199   2.640   0.055 -0.0312  0.0862  0.1343
   20MOL   C81818716   3.077   2.703   0.014 -0.1316 -0.0284 -0.2510
   20MOL   C81918717   2.950   2.632   0.011  0.1119 -0.0401 -0.3324
   20MOL   O82018718   2.840   2.693   7.974  0.0892  0.6169 -0.6691
   20MOL   O82118719   2.965   2.503   0.021 -0.1994  0.5251  0.2957
   20MOL   C82218720   3.075   2.841   7.966 -0.3224 -0.1089  0.2317
   20MOL   C82318721   3.186   2.920   0.012  0.1825  0.1445  0.8341
   20MOL   H82418722   4.690   3.417   0.239 -0.2880  2.3655 -1.6216
   20MOL   H82518723   4.542   3.438   0.133 -1.7278 -0.3162  2.2621
   20MOL   H82618724   4.497   3.341   0.356  0.9118  2.9674 -0.9734
   20MOL   H82718725   4.593   3.198   0.324  1.2329  1.3132  0.5638
   20MOL   H82818726   4.345   3.290   0.168  1.1171  1.9509  1.8266
   20MOL   H82918727   4.452   3.176   0.106 -0.2517  1.6208 -1.7440
   20MOL   H83018728   4.303   3.165   0.379 -0.0080  0.6465  0.2229
   20MOL   H83118729   4.405   3.033   0.308 -0.4408  0.4456  2.0118
   20MOL   H83218730   4.144   3.146   0.200 -0.5263  0.4327  0.4846
   20MOL   H83318731   4.239   3.013   0.126  2.0930  0.0302  0.5487
   20MOL   H83418732   4.218   2.886   0.340  0.4880  1.1279  0.1113
   20MOL   H83518733   4.096   2.991   0.396 -0.5384 -0.9705 -0.1306
   20MOL   H83618734   4.069   2.849   0.126 -2.3799 -1.8635 -0.3069
   20MOL   H83718735   4.020   2.781   0.275  2.2001 -1.9550 -2.7719
   20MOL   H83818736   3.877   2.996   0.303  1.9480  1.7085  0.6020
   20MOL   H83918737   3.926   3.045   0.139 -0.2047 -0.8910 -0.8269
   20MOL   H84018738   3.783   2.793   0.217 -2.4735  0.2750 -0.3435
   20MOL   H84118739   3.805   2.825   0.047  0.7789 -1.0163  0.6518
   20MOL   H84218740   3.685   3.022   0.039  0.3149  1.4651  0.5820
   20MOL   H84318741   3.653   3.023   0.206  0.2423 -0.8386  0.5207
   20MOL   H84418742   3.401   2.659   0.106 -1.0402 -2.3042  1.3809
   20MOL   H84518743   3.210   2.533   0.071 -0.1178  0.1755  0.8044
   20MOL   H84618744   2.980   2.885   7.939 -1.5329 -1.8398  1.5447
   20MOL   H84718745   3.180   3.024   7.961  0.2143  0.0898  0.6262
   20MOL   O84818746   2.836   2.423   0.014  0.5963 -0.2857 -0.3125
   20MOL   C84918747   2.799   2.397   7.857 -0.7494 -0.1795  0.3855
   20MOL   C85018748   2.896   2.295   7.785  0.4054 -0.0950 -0.5994
   20MOL   C85118749   3.005   2.366   7.707  0.3637 -0.2677  0.0722
   20MOL   C85218750   3.129   2.283   7.685  0.4288 -0.4684 -0.4160
   20MOL   C85318751   3.231   2.361   7.595 -0.3133  0.8147 -0.2468
   20MOL   C85418752   3.300   2.472   7.682  0.2184  0.2546 -0.0111
   20MOL   C85518753   3.402   2.552   7.594 -0.0859  0.0563  0.0888
   20MOL   C85618754   3.466   2.668   7.679 -0.1622 -0.3051 -0.4791
   20MOL   C85718755   3.566   2.750   7.594  0.3899 -0.3640 -0.0995
   20MOL   C85818756   3.626   2.861   7.684  0.4665  0.5871 -0.4590
   20MOL   O85918757   3.717   2.937   7.608 -0.1480  0.1500  0.1845
   20MOL   C86018758   3.848   2.934   7.637 -0.3276  0.0081  0.2099
   20MOL   O86118759   3.888   2.893   7.743 -0.6409  0.2477 -0.4667
   20MOL   C86218760   3.937   2.984   7.530  0.5159 -0.2591  0.6637
   20MOL   C86318761   3.882   3.021   7.408  0.2499  0.4109  0.2502
   20MOL   C86418762   3.972   3.061   7.303  0.1891 -0.6609 -0.1135
   20MOL   C86518763   4.115   3.060   7.323 -0.0624  0.1907  0.0210
   20MOL   C86618764   4.216   3.088   7.205 -0.2631 -0.2655 -0.1249
   20MOL   O86718765   4.331   3.118   7.222 -0.7373 -0.3172 -0.0799
   20MOL   O86818766   4.163   3.070   7.084  0.0185 -0.0929  1.2137
   20MOL   C86918767   4.161   3.029   7.449 -0.7596 -0.7014  0.4331
   20MOL   C87018768   4.072   2.981   7.551 -0.3884  0.5165  0.1981
   20MOL   H87118769   2.707   2.338   7.862 -0.6443 -0.4045 -0.2671
   20MOL   H87218770   2.774   2.489   7.804 -1.2122 -1.1109 -1.0394
   20MOL   H87318771   2.840   2.233   7.716 -0.8001  0.5824 -0.2413
   20MOL   H87418772   2.939   2.236   7.866 -1.9396  2.3752  2.5934
   20MOL   H87518773   2.960   2.383   7.609  1.0086  0.2054 -0.1395
   20MOL   H87618774   3.019   2.462   7.756 -3.7729  0.5825 -0.2046
   20MOL   H87718775   3.085   2.193   7.642  0.7226 -0.9338  0.2500
   20MOL   H87818776   3.175   2.260   7.781 -0.8171  0.9385  0.5338
   20MOL   H87918777   3.310   2.292   7.564 -1.6411 -0.5167 -0.7524
   20MOL   H88018778   3.183   2.401   7.505 -0.0828  1.3799 -0.1231
   20MOL   H88118779   3.229   2.533   7.737 -0.1382 -1.6033  1.6152
   20MOL   H88218780   3.351   2.419   7.762 -0.6506 -0.7432 -0.1145
   20MOL   H88318781   3.467   2.476   7.551 -0.7862 -0.3149 -0.3201
   20MOL   H88418782   3.341   2.603   7.519  1.8879  1.3048 -0.7120
   20MOL   H88518783   3.383   2.724   7.721 -0.5203 -0.9588 -0.3211
   20MOL   H88618784   3.521   2.621   7.760  1.1191  0.9374 -0.6026
   20MOL   H88718785   3.509   2.794   7.512  1.6616 -0.6462 -1.1578
   20MOL   H88818786   3.649   2.690   7.557  1.3503  0.8278  0.0936
   20MOL   H88918787   3.653   2.818   7.780  3.1123 -0.5054 -1.6301
   20MOL   H89018788   3.548   2.934   7.707 -1.0391 -0.4190 -2.2184
   20MOL   H89118789   3.775   3.025   7.394  0.5150  2.3446 -1.3729
   20MOL   H89218790   3.917   3.084   7.213  1.5872 -0.2202 -0.8619
   20MOL   H89318791   4.266   3.017   7.470 -0.3693 -2.3417 -2.2844
   20MOL   H89418792   4.109   2.939   7.643  4.0543  0.7674 -1.3573
   20MOL   O89518793   4.270   3.060   6.967 -1.1829  0.1529 -0.1059
   20MOL   C89618794   4.266   3.176   6.888 -0.8455  0.3515 -0.6669
   20MOL   C89718795   4.132   3.187   6.809 -0.9265 -0.9153 -0.5022
   20MOL   C89818796   4.126   3.324   6.737 -0.5833 -0.2133  0.1615
   20MOL   C89918797   4.087   3.444   6.819  0.2759 -0.5644 -0.1252
   20MOL   C90018798   4.100   3.582   6.745  0.4195  0.1090 -0.1901
   20MOL   C90118799   4.047   3.696   6.830 -0.4328  0.1281 -0.1837
   20MOL   C90218800   4.137   3.732   6.944 -0.6038 -0.7479  0.0798
   20MOL   C90318801   4.071   3.819   7.059  0.2654 -0.9292 -0.4526
   20MOL   C90418802   4.172   3.892   7.148  0.2179  0.2428 -0.2594
   20MOL   C90518803   4.114   3.993   7.247  0.4233 -0.2040  0.2947
   20MOL   O90618804   4.046   4.092   7.165  0.0733 -0.9948 -0.2138
   20MOL   C90718805   3.926   4.144   7.214 -0.0833 -0.5677 -0.1116
   20MOL   O90818806   3.877   4.122   7.322 -0.8059  0.3853  0.5825
   20MOL   C90918807   3.857   4.230   7.112 -0.2628 -0.1922 -0.3405
   20MOL   C91018808   3.728   4.274   7.132  0.1564  0.3923 -0.1248
   20MOL   C91118809   3.668   4.364   7.046  0.1212  0.7552  0.0049
   20MOL   C91218810   3.737   4.401   6.925 -0.4835  0.5808  0.1842
   20MOL   C91318811   3.669   4.488   6.825  0.1578 -0.6906 -0.8555
   20MOL   O91418812   3.727   4.526   6.724  0.2845  0.5171 -0.6583
   20MOL   O91518813   3.544   4.514   6.858 -0.7628 -0.3756 -0.0173
   20MOL   C91618814   3.865   4.347   6.901  0.4067  0.2960  0.4484
   20MOL   C91718815   3.925   4.265   6.996  0.2303 -0.3852 -0.3850
   20MOL   H91818816   4.286   3.263   6.951 -1.2029  0.1871 -0.3248
   20MOL   H91918817   4.359   3.169   6.832  0.0398 -0.9557  0.9389
   20MOL   H92018818   4.039   3.187   6.867 -1.4259  2.0560 -1.1818
   20MOL   H92118819   4.122   3.100   6.745  0.8239 -2.6930  1.5683
   20MOL   H92218820   4.221   3.345   6.687 -0.9139  1.4638  0.1985
   20MOL   H92318821   4.048   3.311   6.663 -0.6579 -1.2585  0.4227
   20MOL   H92418822   4.161   3.441   6.900  0.8828  1.2244 -0.5876
   20MOL   H92518823   3.992   3.414   6.863 -1.1297  1.6079 -1.6012
   20MOL   H92618824   4.205   3.595   6.719  0.3055 -1.1432 -1.3317
   20MOL   H92718825   4.036   3.575   6.657  0.4939  1.9586 -0.4095
   20MOL   H92818826   4.020   3.786   6.774  0.9147  0.7341  0.1262
   20MOL   H92918827   3.947   3.666   6.861 -0.1296 -1.2598 -0.5417
   20MOL   H93018828   4.185   3.645   6.989  1.8931 -0.7944 -2.6000
   20MOL   H93118829   4.222   3.792   6.914 -0.1387 -0.7898  1.2836
   20MOL   H93218830   4.006   3.888   7.005  0.3802 -0.8160 -0.4471
   20MOL   H93318831   3.994   3.770   7.118 -0.2587  0.2079 -0.1852
   20MOL   H93418832   4.239   3.943   7.078  0.1806  0.0316 -0.4475
   20MOL   H93518833   4.236   3.817   7.194 -1.6604 -1.5104 -0.4856
   20MOL   H93618834   4.191   4.027   7.316 -0.4893  0.4336  1.0109
   20MOL   H93718835   4.035   3.953   7.310 -0.2504 -0.1397 -0.5005
   20MOL   H93818836   3.681   4.242   7.224  0.8143  1.5298  0.6186
   20MOL   H93918837   3.572   4.407   7.070 -0.3645  1.6963 -3.3017
   20MOL   H94018838   3.924   4.379   6.817  3.0722  0.2093  2.2437
   20MOL   H94118839   4.023   4.223   6.975 -0.5149 -2.7119  0.6315
   20MOL   H94218840   3.519   4.595   6.816 -1.5971 -1.3508 -1.4260
   21MOL     O118841   1.290   0.401   7.436  0.1062 -0.2795 -0.7516
   21MOL     C218842   1.300   0.542   7.433 -0.2016 -0.1743 -0.5778
   21MOL     C318843   1.393   0.592   7.544  0.1060  0.2176 -0.1811
   21MOL     C418844   1.527   0.525   7.533 -0.0555 -0.1000  0.7343
   21MOL     C518845   1.640   0.594   7.607 -0.9021  0.3699  0.2576
   21MOL     C618846   1.760   0.503   7.626 -0.1771 -0.0386  0.3084
   21MOL     C718847   1.863   0.583   7.707  0.3194  0.4357 -0.4718
   21MOL     C818848   2.008   0.526   7.722  0.2547 -0.3636 -0.4457
   21MOL     C918849   2.011   0.395   7.798  0.1329  0.0069 -0.4262
   21MOL    C1018850   2.151   0.320   7.789  0.0362 -0.0579  0.0972
   21MOL    C1118851   2.256   0.395   7.872 -0.6439 -0.0412  0.2133
   21MOL    O1218852   2.387   0.333   7.867  0.0275  0.0297  0.5773
   21MOL    C1318853   2.420   0.241   7.950  0.0949 -0.7777  0.1595
   21MOL    O1418854   2.347   0.210   0.074  0.2853  0.1261  0.3398
   21MOL    C1518855   2.548   0.180   7.917  0.2145  0.2261 -0.0962
   21MOL    C1618856   2.608   0.204   7.788  0.0798 -0.4050  1.0021
   21MOL    C1718857   2.730   0.143   7.752 -0.1218 -1.0072 -0.0826
   21MOL    C1818858   2.798   0.059   7.843 -0.2692 -0.2202  0.5842
   21MOL    C1918859   2.923   7.970   7.792 -0.2641 -0.1058  0.2389
   21MOL    O2018860   2.962   7.969   7.679  0.6293 -0.1638  0.6820
   21MOL    O2118861   2.993   7.909   7.891 -0.1218 -0.0395 -0.1937
   21MOL    C2218862   2.744   0.040   7.973  0.2973  0.1130  0.6676
   21MOL    C2318863   2.622   0.098   0.030  0.0735 -0.3299  0.0542
   21MOL    H2418864   1.339   0.585   7.341 -0.8712 -1.2631 -1.3924
   21MOL    H2518865   1.197   0.568   7.455  0.4853  1.1453  1.1565
   21MOL    H2618866   1.345   0.571   7.640 -0.5965 -2.5673 -1.0946
   21MOL    H2718867   1.394   0.701   7.540 -1.4369  0.3286  1.7391
   21MOL    H2818868   1.507   0.431   7.585 -1.1124  0.1393  0.7726
   21MOL    H2918869   1.559   0.486   7.436  0.4146  1.7839  0.1226
   21MOL    H3018870   1.612   0.640   7.702  0.1502  1.0837  0.2205
   21MOL    H3118871   1.676   0.679   7.550 -1.7356  0.0672 -0.7448
   21MOL    H3218872   1.738   0.410   7.678  1.0059 -0.1756  0.5802
   21MOL    H3318873   1.803   0.474   7.530 -2.6073 -1.1185 -0.5045
   21MOL    H3418874   1.882   0.674   7.651 -1.0812  0.6910 -0.5458
   21MOL    H3518875   1.831   0.621   7.804 -1.3281 -0.4200 -0.6658
   21MOL    H3618876   2.054   0.503   7.626  3.4745  1.9218  0.4699
   21MOL    H3718877   2.069   0.600   7.774 -0.8379  1.0609 -1.1370
   21MOL    H3818878   1.979   0.387   7.902  0.2455 -4.2797 -0.6653
   21MOL    H3918879   1.942   0.323   7.755 -0.0447  0.5557 -1.0724
   21MOL    H4018880   2.182   0.313   7.685 -0.8833 -0.3944 -0.1609
   21MOL    H4118881   2.144   0.220   7.834  1.7291 -0.6601 -0.9250
   21MOL    H4218882   2.237   0.406   0.001  2.5102  0.8317  0.7302
   21MOL    H4318883   2.265   0.493   7.825  0.2190  0.4613  1.4015
   21MOL    H4418884   2.562   0.265   7.712 -1.9762 -0.2960  2.3005
   21MOL    H4518885   2.779   0.163   7.658 -0.1508 -0.6648 -0.0255
   21MOL    H4618886   2.800   7.964   0.070  1.1855  0.7706  0.4856
   21MOL    H4718887   2.592   0.103   0.133  1.0827  1.6897  0.2714
   21MOL    H4818888   1.371   0.356   7.414  0.6290 -0.3211  1.1196
   21MOL    O4918889   3.128   7.863   7.840  0.1048  0.6555  0.2262
   21MOL    C5018890   3.165   7.738   7.892 -0.4207  0.1036  0.1620
   21MOL    C5118891   3.112   7.626   7.800 -0.2650 -0.5636 -0.8673
   21MOL    C5218892   3.180   7.613   7.665  0.7061  0.4241  0.3240
   21MOL    C5318893   3.086   7.552   7.561 -0.0797 -0.4696 -0.2379
   21MOL    C5418894   2.972   7.646   7.520 -0.8331  1.0739 -0.7735
   21MOL    C5518895   2.853   7.557   7.463  0.1803 -0.0798 -0.7857
   21MOL    C5618896   2.734   7.640   7.401 -0.0647 -0.4827  0.8734
   21MOL    C5718897   2.707   7.776   7.477  0.0684  0.6241 -0.1947
   21MOL    C5818898   2.584   7.851   7.407  0.2005 -0.0592 -0.6842
   21MOL    C5918899   2.553   0.012   7.474 -0.2750 -0.4890  0.3711
   21MOL    O6018900   2.441   0.072   7.421  0.2256  0.4584 -0.2066
   21MOL    C6118901   2.326   0.074   7.488 -0.1075 -0.4286 -0.3318
   21MOL    O6218902   2.310   0.030   7.601 -0.1369  0.0012  0.0768
   21MOL    C6318903   2.220   0.151   7.412  0.6456 -0.4931 -0.5046
   21MOL    C6418904   2.087   0.155   7.470 -0.0487 -0.5349 -0.2890
   21MOL    C6518905   1.988   0.243   7.416  0.0291  0.6024 -0.6663
   21MOL    C6618906   2.018   0.326   7.306  0.3246  0.4008  0.1385
   21MOL    C6718907   1.932   0.429   7.235  0.7278  0.2920  0.7539
   21MOL    O6818908   1.969   0.522   7.158 -0.1342 -0.4055  0.0444
   21MOL    O6918909   1.807   0.409   7.274 -0.6362 -0.2920 -0.0796
   21MOL    C7018910   2.142   0.313   7.240 -0.4436 -0.0018 -0.2394
   21MOL    C7118911   2.248   0.232   7.294  0.1169 -0.2356 -0.5358
   21MOL    H7218912   3.273   7.723   7.898 -0.4319 -0.8254 -1.7550
   21MOL    H7318913   3.127   7.723   0.015  0.1302  2.3638  0.7487
   21MOL    H7418914   3.006   7.651   7.795  0.0010  0.7684  0.1109
   21MOL    H7518915   3.109   7.528   7.849  0.4889 -0.3262 -0.3393
   21MOL    H7618916   3.215   7.711   7.632  0.6780 -0.1030 -1.3132
   21MOL    H7718917   3.269   7.552   7.677 -1.0822 -1.6350  3.7989
   21MOL    H7818918   3.047   7.459   7.601 -1.2142 -0.3040 -0.9229
   21MOL    H7918919   3.146   7.519   7.477 -0.9450  0.9859 -1.4613
   21MOL    H8018920   2.936   7.705   7.604 -0.7788  0.2837 -0.1789
   21MOL    H8118921   3.012   7.708   7.441  2.1561  0.6956  0.3884
   21MOL    H8218922   2.901   7.477   7.408  1.5909  0.1274  0.1018
   21MOL    H8318923   2.825   7.494   7.547  0.2725 -2.7334 -2.7029
   21MOL    H8418924   2.743   7.643   7.293  2.2006 -3.4027  0.9173
   21MOL    H8518925   2.649   7.574   7.416  0.4963 -1.0705  1.5426
   21MOL    H8618926   2.688   7.753   7.582 -1.5516  0.8211 -0.4286
   21MOL    H8718927   2.786   7.851   7.484  0.9896 -0.3614  0.1588
   21MOL    H8818928   2.495   7.790   7.396 -0.5195  1.4332 -3.7247
   21MOL    H8918929   2.614   7.873   7.304 -0.0559 -1.0358 -0.9679
   21MOL    H9018930   2.650   0.061   7.458 -0.6922  0.2581  0.1011
   21MOL    H9118931   2.541   0.018   7.583 -2.3601 -0.3852  0.1558
   21MOL    H9218932   2.070   0.093   7.557 -0.8323 -2.0676 -1.5222
   21MOL    H9318933   1.890   0.262   7.457  1.2027  0.1198  2.5759
   21MOL    H9418934   2.163   0.376   7.154  0.7558 -0.5792 -0.3844
   21MOL    H9518935   2.346   0.216   7.251 -0.5649 -0.8298 -1.9046
   21MOL    O9618936   1.710   0.517   7.228  0.1986  0.5752 -0.2667
   21MOL    C9718937   1.634   0.454   7.124  0.5995 -0.1058  0.3002
   21MOL    C9818938   1.518   0.534   7.069  0.8923  0.4164 -0.1237
   21MOL    C9918939   1.456   0.473   6.945  0.3167  0.2083 -0.3131
   21MOL   C10018940   1.324   0.557   6.897 -0.5628  0.1546 -1.1805
   21MOL   C10118941   1.202   0.512   6.985  0.7854  0.6603 -0.6908
   21MOL   C10218942   1.085   0.613   6.990  0.1800  0.3115  0.6759
   21MOL   C10318943   0.963   0.557   7.074  0.7399 -0.2842  0.4797
   21MOL   C10418944   0.989   0.524   7.224 -0.8572 -0.1172  0.4211
   21MOL   C10518945   0.856   0.492   7.293  0.7815 -0.3763  0.0197
   21MOL   C10618946   0.882   0.456   7.444 -0.3036 -0.6740  1.2860
   21MOL   O10718947   0.927   0.570   7.514  0.4517  0.7805 -0.0203
   21MOL   C10818948   0.850   0.671   7.559  0.0330 -0.3120 -0.0184
   21MOL   O10918949   0.736   0.687   7.518  0.5877  0.0004  0.1538
   21MOL   C11018950   0.909   0.755   7.665 -0.3193  0.3094  0.0076
   21MOL   C11118951   1.047   0.743   7.699  0.3736  0.5022 -0.6936
   21MOL   C11218952   1.109   0.819   7.807  0.1429  0.0499 -0.1582
   21MOL   C11318953   1.027   0.915   7.868  0.5383 -0.4401 -0.3222
   21MOL   C11418954   1.085   1.012   7.961 -0.1293  0.2612  0.0558
   21MOL   O11518955   1.196   1.010   0.035  0.0480 -0.1546  0.1683
   21MOL   O11618956   1.002   1.122   0.002 -0.0201 -0.2058  0.1816
   21MOL   C11718957   0.889   0.923   7.837  0.1092 -0.1899  0.4311
   21MOL   C11818958   0.831   0.847   7.736  0.2928  0.8275 -0.1317
   21MOL   H11918959   1.699   0.450   7.036 -1.3449  1.2604 -1.2309
   21MOL   H12018960   1.604   0.351   7.141 -0.8889  0.4391  1.0551
   21MOL   H12118961   1.553   0.634   7.047  1.8285  0.5239  1.7659
   21MOL   H12218962   1.438   0.547   7.142  2.3937  5.2589  0.8455
   21MOL   H12318963   1.519   0.481   6.857  1.6461  1.2275  0.7067
   21MOL   H12418964   1.421   0.370   6.952  2.9302 -0.7543 -0.6101
   21MOL   H12518965   1.303   0.535   6.792 -0.6495 -0.4193 -1.0491
   21MOL   H12618966   1.348   0.663   6.901  2.2541 -0.4272 -1.7386
   21MOL   H12718967   1.164   0.413   6.957 -0.4045  1.2851 -1.3200
   21MOL   H12818968   1.237   0.504   7.088 -1.6412  2.4248  0.3054
   21MOL   H12918969   1.102   0.702   7.052  1.0262  0.6773 -0.0657
   21MOL   H13018970   1.058   0.648   6.891 -0.4683 -2.2992 -0.0875
   21MOL   H13118971   0.883   0.630   7.067 -0.2970 -1.3791  0.7221
   21MOL   H13218972   0.935   0.475   7.007  0.6109  0.3385 -0.2310
   21MOL   H13318973   1.045   0.430   7.221  0.2521  0.5011  1.2624
   21MOL   H13418974   1.037   0.610   7.271  1.1011 -1.1778  0.4334
   21MOL   H13518975   0.808   0.405   7.246 -1.5078  0.0927  1.4014
   21MOL   H13618976   0.791   0.579   7.288  1.3814  0.1272  0.9461
   21MOL   H13718977   0.951   0.372   7.459  0.7443  0.0958  0.8579
   21MOL   H13818978   0.795   0.404   7.483  0.6634 -1.9088  1.8575
   21MOL   H13918979   1.110   0.676   7.641 -1.2946 -1.5150 -0.2437
   21MOL   H14018980   1.215   0.826   7.829  0.8635 -2.9600 -2.3230
   21MOL   H14118981   0.824   0.987   7.895  1.1468 -2.2536  4.0489
   21MOL   H14218982   0.727   0.848   7.705 -0.0985 -2.6426  0.8385
   21MOL   O14318983   1.039   1.214   0.116  0.4056 -0.5323  0.5383
   21MOL   C14418984   0.950   1.188   0.222  0.7334  0.0215  0.3783
   21MOL   C14518985   0.991   1.067   0.309  0.3889  0.1848  0.3341
   21MOL   C14618986   0.909   1.049   0.440  0.0977 -0.2846  0.1593
   21MOL   C14718987   0.940   0.928   0.534 -0.3364 -0.0276  0.3144
   21MOL   C14818988   0.890   0.796   0.475  0.2966 -0.0036 -0.1808
   21MOL   C14918989   0.885   0.685   0.590 -0.3190  0.1395 -0.3258
   21MOL   C15018990   0.749   0.644   0.642 -0.0399  0.1110 -0.4745
   21MOL   C15118991   0.747   0.552   0.761  0.0075 -0.0719  0.0600
   21MOL   C15218992   0.609   0.486   0.780 -0.3140  0.5954  0.2208
   21MOL   C15318993   0.599   0.422   0.918  0.1383 -0.1609 -0.1409
   21MOL   O15418994   0.602   0.536   1.013  0.0155 -0.4978  0.1944
   21MOL   C15518995   0.494   0.596   1.060  0.0118  0.1921  0.0893
   21MOL   O15618996   0.377   0.564   1.024  0.0099 -0.2182  0.6172
   21MOL   C15718997   0.526   0.708   1.148 -0.0696  0.3994  0.2093
   21MOL   C15818998   0.660   0.736   1.185 -0.4615  0.2420 -0.1068
   21MOL   C15918999   0.696   0.854   1.263  0.2593  0.2056  0.3118
   21MOL   C16019000   0.591   0.928   1.318  0.4683 -0.0793  0.2921
   21MOL   C16119001   0.620   1.049   1.405  0.0657  0.4328 -0.2162
   21MOL   O16219002   0.537   1.111   1.467  0.1087 -0.9948 -0.6562
   21MOL   O16319003   0.755   1.080   1.400  0.4351 -0.6243  0.2057
   21MOL   C16419004   0.455   0.899   1.286  0.2305 -0.3787 -0.0590
   21MOL   C16519005   0.424   0.794   1.195 -0.0743 -0.6576 -0.7440
   21MOL   H16619006   0.957   1.275   0.288 -0.8015  1.6545 -1.5465
   21MOL   H16719007   0.851   1.176   0.177  1.2175 -0.1996 -0.6376
   21MOL   H16819008   1.098   1.063   0.329  0.8225  1.4207 -1.5361
   21MOL   H16919009   0.973   0.975   0.254  1.8887  0.7007 -1.0676
   21MOL   H17019010   0.918   1.133   0.509  0.6031 -0.5539  0.4277
   21MOL   H17119011   0.801   1.038   0.425 -0.4594  2.3975  1.8869
   21MOL   H17219012   0.876   0.945   0.621  1.4083  0.4219  1.5215
   21MOL   H17319013   1.041   0.932   0.575 -0.2312 -2.6827  0.3878
   21MOL   H17419014   0.799   0.802   0.415 -0.5419 -3.2345  0.6416
   21MOL   H17519015   0.971   0.770   0.408  0.8552 -0.0508  0.5116
   21MOL   H17619016   0.942   0.604   0.545 -1.2439 -0.2380 -0.8495
   21MOL   H17719017   0.943   0.726   0.672  0.9772 -2.1835 -0.0266
   21MOL   H17819018   0.687   0.729   0.671 -0.6376 -1.8203  4.3667
   21MOL   H17919019   0.700   0.585   0.565  1.6056 -3.9843  1.5070
   21MOL   H18019020   0.831   0.482   0.762 -0.0899 -0.2234 -1.2755
   21MOL   H18119021   0.763   0.615   0.849 -0.2878 -0.4244  0.3670
   21MOL   H18219022   0.594   0.415   0.699 -3.1119  0.6957  0.5872
   21MOL   H18319023   0.524   0.554   0.779  0.3978  1.4693 -0.5510
   21MOL   H18419024   0.684   0.360   0.949 -0.9347 -1.5759  0.0071
   21MOL   H18519025   0.504   0.372   0.936  0.3157  0.0856  1.5900
   21MOL   H18619026   0.746   0.678   1.154 -0.7481  0.6696 -1.7711
   21MOL   H18719027   0.800   0.866   1.291 -0.1689  1.0288  1.6171
   21MOL   H18819028   0.374   0.956   1.329  0.1943  0.2096 -0.9134
   21MOL   H18919029   0.320   0.763   1.187 -0.7053  1.4027 -0.7370
   21MOL   O19019030   0.785   1.214   1.461  0.1660  0.2087  0.0532
   21MOL   C19119031   0.873   1.193   1.558 -0.0178 -0.0920 -0.0383
   21MOL   C19219032   0.800   1.140   1.681  0.0937  0.5889  0.0738
   21MOL   C19319033   0.873   1.155   1.815 -0.9989  0.1493 -0.6315
   21MOL   C19419034   0.812   1.086   1.939  0.2913  0.1337 -0.0396
   21MOL   C19519035   0.692   1.148   2.009 -0.1323  0.0544  0.0865
   21MOL   C19619036   0.715   1.276   2.089 -0.0403 -0.4442 -0.0988
   21MOL   C19719037   0.590   1.329   2.164  0.0630 -0.3044 -0.1919
   21MOL   C19819038   0.635   1.447   2.253  0.1755 -0.2204  0.4290
   21MOL   C19919039   0.507   1.512   2.301  0.1024 -0.1264 -0.4553
   21MOL   C20019040   0.533   1.640   2.383  0.5663 -0.7613  0.3459
   21MOL   O20119041   0.597   1.741   2.310 -0.4321 -0.4112  0.0609
   21MOL   C20219042   0.674   1.831   2.369 -0.3968  0.6446 -0.2323
   21MOL   O20319043   0.699   1.823   2.488  0.0293  0.3818 -0.2732
   21MOL   C20419044   0.733   1.934   2.280 -0.3131 -0.0128  0.0619
   21MOL   C20519045   0.697   1.944   2.140  0.5188  0.0502  0.2685
   21MOL   C20619046   0.740   2.052   2.062  0.3939  0.8132 -0.4958
   21MOL   C20719047   0.819   2.154   2.115 -0.0164  0.2176 -0.9389
   21MOL   C20819048   0.852   2.271   2.031  0.1330  0.6561  0.3438
   21MOL   O20919049   0.883   2.262   1.912 -0.2885  0.0170 -0.1074
   21MOL   O21019050   0.839   2.386   2.100  0.0400 -0.0191 -0.2699
   21MOL   C21119051   0.858   2.142   2.249  0.6415  0.1585  0.1418
   21MOL   C21219052   0.808   2.035   2.335 -0.2396 -0.5697  0.1353
   21MOL   H21319053   0.971   1.147   1.542  0.5270  0.9212  0.3490
   21MOL   H21419054   0.908   1.292   1.588 -0.8506  0.6684 -1.5191
   21MOL   H21519055   0.773   1.036   1.667 -0.2300  0.4960  1.2721
   21MOL   H21619056   0.714   1.207   1.689 -0.3463  0.2398 -1.5371
   21MOL   H21719057   0.973   1.121   1.791 -0.1633  0.5210  2.1139
   21MOL   H21819058   0.887   1.257   1.851 -0.5225 -0.6704  1.6275
   21MOL   H21919059   0.894   1.058   2.005  0.1765 -2.7957 -1.0711
   21MOL   H22019060   0.783   0.983   1.917  2.4527 -1.0048  2.1633
   21MOL   H22119061   0.621   1.165   1.928 -0.9972 -0.6833  0.6809
   21MOL   H22219062   0.649   1.091   2.091  1.5837 -1.0420  0.2435
   21MOL   H22319063   0.782   1.249   2.171  0.3295 -1.5344 -0.7593
   21MOL   H22419064   0.762   1.351   2.026 -0.9408 -0.8069 -1.2116
   21MOL   H22519065   0.513   1.344   2.088  0.2046  3.2760  0.2514
   21MOL   H22619066   0.543   1.258   2.232 -0.6704 -1.9575 -2.4072
   21MOL   H22719067   0.702   1.413   2.332 -0.3980 -0.6290  0.7438
   21MOL   H22819068   0.677   1.532   2.199 -2.2618  0.1464 -0.9467
   21MOL   H22919069   0.432   1.450   2.348  1.7131 -0.2950  1.9941
   21MOL   H23019070   0.449   1.547   2.216  2.4122  0.7896 -1.7012
   21MOL   H23119071   0.584   1.608   2.474  0.8703  2.9658  1.5578
   21MOL   H23219072   0.432   1.666   2.417  0.8369  1.4867 -0.5247
   21MOL   H23319073   0.628   1.874   2.094  1.3807 -2.1822  2.2732
   21MOL   H23419074   0.703   2.058   1.961 -0.5186  1.3819 -0.1304
   21MOL   H23519075   0.909   2.223   2.298 -1.8262  2.0325 -0.2574
   21MOL   H23619076   0.830   2.057   2.439  0.7214 -0.8636 -0.0010
   21MOL   O23719077   0.832   2.509   2.010  0.1192  0.1071 -0.0399
   21MOL   C23819078   0.962   2.569   2.011  0.0654  0.1907 -0.5781
   21MOL   C23919079   0.971   2.708   1.950  0.6128 -0.8376  0.2073
   21MOL   C24019080   0.986   2.695   1.791  0.0583  1.2133 -0.7161
   21MOL   C24119081   1.035   2.831   1.727  0.3023 -0.4192 -0.8315
   21MOL   C24219082   1.187   2.821   1.703 -0.5614 -0.4808 -0.5012
   21MOL   C24319083   1.242   2.952   1.636 -1.2667  0.5836  0.2023
   21MOL   C24419084   1.381   2.937   1.575  0.0436 -0.5864  0.2595
   21MOL   C24519085   1.422   3.061   1.488  0.3866 -0.4619 -0.3440
   21MOL   C24619086   1.564   3.053   1.431  0.2927  0.3466 -0.0169
   21MOL   C24719087   1.566   3.029   1.271  1.0597  0.7540  0.1999
   21MOL   O24819088   1.510   2.905   1.229  0.1296  0.1518 -0.1163
   21MOL   C24919089   1.581   2.794   1.248 -0.1912  1.6762  0.5328
   21MOL   O25019090   1.692   2.793   1.294 -0.6068  0.1781  0.6432
   21MOL   C25119091   1.505   2.669   1.216  0.9395 -0.6603  0.2757
   21MOL   C25219092   1.564   2.539   1.205 -0.5758 -0.5020  0.7010
   21MOL   C25319093   1.497   2.425   1.171  0.5086  0.1263  0.1830
   21MOL   C25419094   1.363   2.432   1.131  0.4214 -0.0411 -0.1571
   21MOL   C25519095   1.304   2.303   1.073 -0.2389 -0.5459 -0.1083
   21MOL   O25619096   1.348   2.189   1.091 -0.0928  0.2023  0.7062
   21MOL   O25719097   1.190   2.326   1.005  0.1435 -0.0026 -0.4362
   21MOL   C25819098   1.300   2.557   1.144 -0.2001  0.2417 -0.5631
   21MOL   C25919099   1.367   2.671   1.188 -0.2876  0.5577  0.2699
   21MOL   H26019100   0.999   2.559   2.113 -3.0756 -0.3875  0.5602
   21MOL   H26119101   1.034   2.499   1.968 -1.7680 -0.7231 -2.1991
   21MOL   H26219102   1.048   2.774   1.989 -1.0304  1.0180  0.4076
   21MOL   H26319103   0.876   2.760   1.966  1.7211  1.4488 -0.3639
   21MOL   H26419104   1.061   2.624   1.757 -1.3217  0.1032 -1.4346
   21MOL   H26519105   0.896   2.668   1.736 -1.6393  1.7900  1.6955
   21MOL   H26619106   1.013   2.914   1.793  1.9291 -0.7236  0.1175
   21MOL   H26719107   0.983   2.847   1.633 -0.5097  0.8963 -0.1636
   21MOL   H26819108   1.228   2.811   1.803  0.1207  1.7277 -0.5250
   21MOL   H26919109   1.230   2.734   1.653  1.5763  0.2739 -0.0132
   21MOL   H27019110   1.178   2.983   1.554 -0.5194 -0.3556 -0.7655
   21MOL   H27119111   1.242   3.027   1.715 -2.4724 -1.2768  2.0246
   21MOL   H27219112   1.457   2.922   1.651 -1.1194 -0.5287  1.4408
   21MOL   H27319113   1.387   2.849   1.511  0.0250 -0.4535  0.0725
   21MOL   H27419114   1.347   3.069   1.408 -0.2851  0.6148  0.3807
   21MOL   H27519115   1.409   3.143   1.558  1.5887  0.5466 -1.2763
   21MOL   H27619116   1.617   2.978   1.488  0.5981 -1.5335 -2.6543
   21MOL   H27719117   1.606   3.154   1.434 -0.4889  0.7087 -0.8365
   21MOL   H27819118   1.660   3.054   1.221  0.0784  1.7966 -1.1708
   21MOL   H27919119   1.491   3.100   1.236 -1.9049 -1.9246  0.9112
   21MOL   H28019120   1.670   2.536   1.226  0.1290  2.3978 -1.9558
   21MOL   H28119121   1.549   2.332   1.153 -0.1320 -0.4157  1.1137
   21MOL   H28219122   1.192   2.559   1.141 -0.2983 -3.4799 -1.8206
   21MOL   H28319123   1.309   2.761   1.201 -2.3647 -0.7186  0.0625
   21MOL   O28419124   1.107   2.205   0.976 -0.5442 -0.4420 -0.0601
   21MOL   C28519125   1.112   2.181   0.830 -1.0455  0.2472  0.4315
   21MOL   C28619126   1.023   2.283   0.768 -0.3400 -0.6400  0.4544
   21MOL   C28719127   0.876   2.289   0.809 -0.4583  0.1265  0.4719
   21MOL   C28819128   0.798   2.408   0.728  0.4519  0.1929 -0.1810
   21MOL   C28919129   0.656   2.428   0.768 -0.1441  0.9327 -0.0475
   21MOL   C29019130   0.585   2.535   0.698 -0.2830  0.0421 -0.5115
   21MOL   C29119131   0.593   2.676   0.757  0.1024  0.8479 -0.0590
   21MOL   C29219132   0.537   2.792   0.683  0.9515 -0.0631  0.2695
   21MOL   C29319133   0.646   2.875   0.612 -0.0051 -0.0211 -0.2850
   21MOL   C29419134   0.683   2.802   0.483 -0.4446 -0.8538 -0.5515
   21MOL   O29519135   0.782   2.872   0.410 -0.2861  0.0798  0.1208
   21MOL   C29619136   0.844   2.820   0.309 -0.0326 -0.7507 -0.5228
   21MOL   O29719137   0.835   2.704   0.277 -0.0873 -0.5077  0.2131
   21MOL   C29819138   0.932   2.912   0.238  0.2437 -0.7961  0.5015
   21MOL   C29919139   0.989   2.881   0.113  0.2691  0.1549 -0.0393
   21MOL   C30019140   1.066   2.984   0.043 -0.1108  0.4190  0.2761
   21MOL   C30119141   1.092   3.110   0.103  0.4655  0.2538 -0.6119
   21MOL   C30219142   1.188   3.203   0.034  0.0445  0.2334  0.1564
   21MOL   O30319143   1.229   3.306   0.087 -0.1622  0.3254  0.3046
   21MOL   O30419144   1.233   3.156   7.890  0.4042  0.6158  0.1669
   21MOL   C30519145   1.046   3.136   0.230 -0.4240  0.1261 -0.6476
   21MOL   C30619146   0.971   3.033   0.297  0.1472 -0.1905  0.1112
   21MOL   H30719147   1.217   2.186   0.802 -0.1117 -2.0751  3.2481
   21MOL   H30819148   1.091   2.076   0.809 -0.2873  0.4770 -1.5263
   21MOL   H30919149   1.044   2.269   0.662 -1.2943 -1.2271  0.3360
   21MOL   H31019150   1.057   2.381   0.800 -0.6382 -0.3437 -0.1135
   21MOL   H31119151   0.822   2.205   0.765 -0.9369  0.4171  0.5066
   21MOL   H31219152   0.852   2.285   0.915  0.4295  1.0619  0.7111
   21MOL   H31319153   0.812   2.381   0.623  1.1305 -1.1815  0.2464
   21MOL   H31419154   0.860   2.495   0.748 -0.8486  1.2550 -0.6838
   21MOL   H31519155   0.592   2.340   0.761  0.8151  0.2083  0.3359
   21MOL   H31619156   0.656   2.453   0.874  0.6695  1.3836 -0.1463
   21MOL   H31719157   0.616   2.528   0.594  0.6750  1.4992 -0.3348
   21MOL   H31819158   0.477   2.523   0.696 -0.1978 -1.6560  2.6006
   21MOL   H31919159   0.543   2.664   0.853 -2.0619  0.6620 -1.1640
   21MOL   H32019160   0.699   2.686   0.777  0.4186  0.7471 -1.6469
   21MOL   H32119161   0.461   2.764   0.610  0.4779 -0.8016  1.0339
   21MOL   H32219162   0.499   2.859   0.760  1.3451  0.9287 -0.3932
   21MOL   H32319163   0.732   2.885   0.678  1.8057 -1.9591 -2.2565
   21MOL   H32419164   0.608   2.970   0.576  0.0226 -0.0722 -0.4495
   21MOL   H32519165   0.589   2.793   0.428  0.2079 -0.0725 -1.8266
   21MOL   H32619166   0.720   2.701   0.502 -1.1724 -1.3856 -1.8614
   21MOL   H32719167   0.975   2.784   0.067 -0.1641  0.3267 -0.2720
   21MOL   H32819168   1.107   2.959   7.924 -1.9678  0.1242 -0.4430
   21MOL   H32919169   1.074   3.227   0.280  0.7250 -0.6795  0.2087
   21MOL   H33019170   0.940   3.049   0.399  0.2240 -0.3316  0.1568
   21MOL   O33119171   1.288   3.261   7.799  0.2971 -0.3929  0.2639
   21MOL   C33219172   1.427   3.230   7.784 -0.1204 -0.0411 -0.9168
   21MOL   C33319173   1.495   3.306   7.901  0.6418  0.7393  0.4924
   21MOL   C33419174   1.634   3.344   7.850 -0.0875 -0.0654 -0.1631
   21MOL   C33519175   1.703   3.444   7.946 -0.6841 -0.2393  0.5697
   21MOL   C33619176   1.851   3.467   7.896 -0.1591  0.1912  0.0197
   21MOL   C33719177   1.953   3.353   7.924 -0.0376  0.9213 -0.7164
   21MOL   C33819178   2.098   3.405   7.896 -0.2034  0.8241  0.0219
   21MOL   C33919179   2.206   3.314   7.936  0.0433  0.0272  0.3750
   21MOL   C34019180   2.344   3.358   7.884 -0.1337 -0.3556  0.3106
   21MOL   C34119181   2.434   3.409   0.022  0.3320 -0.5019 -0.1692
   21MOL   O34219182   2.365   3.525   0.080 -0.0731  0.0320 -0.4743
   21MOL   C34319183   2.443   3.606   0.159 -0.4689  0.0674 -0.3010
   21MOL   O34419184   2.564   3.580   0.181 -0.8439  0.3459 -0.6446
   21MOL   C34519185   2.363   3.723   0.208  0.3596  0.3664 -0.1549
   21MOL   C34619186   2.228   3.742   0.168  0.1970  0.0368  0.0528
   21MOL   C34719187   2.155   3.854   0.212 -0.4581 -0.4099 -0.3368
   21MOL   C34819188   2.222   3.943   0.299  0.2467  0.0768 -0.0040
   21MOL   C34919189   2.150   4.068   0.352  0.6881  0.0227  0.4682
   21MOL   O35019190   2.200   4.150   0.420 -0.0535 -0.2236  0.2211
   21MOL   O35119191   2.019   4.068   0.321 -0.1996 -0.3070 -0.5897
   21MOL   C35219192   2.357   3.929   0.343  0.1501  0.2388  0.2709
   21MOL   C35319193   2.428   3.821   0.288  0.2186 -0.1799  0.2523
   21MOL   H35419194   1.446   3.122   7.787 -2.0898 -0.3778  0.2873
   21MOL   H35519195   1.448   3.256   7.681 -0.2602  0.0493 -0.9227
   21MOL   H35619196   1.499   3.251   0.017  1.5406 -2.7284 -1.5218
   21MOL   H35719197   1.434   3.393   7.928 -1.6568 -0.6110 -0.1875
   21MOL   H35819198   1.706   3.263   7.847  1.6592  1.4525 -0.0349
   21MOL   H35919199   1.625   3.378   7.747  0.5901 -0.8396 -0.4876
   21MOL   H36019200   1.717   3.411   0.071  0.9300  2.2911  1.2107
   21MOL   H36119201   1.661   3.544   7.952  0.1391  0.2279 -1.1503
   21MOL   H36219202   1.858   3.488   7.789  0.4798  1.4548  0.3091
   21MOL   H36319203   1.891   3.553   7.950 -0.0779 -0.8362  1.6426
   21MOL   H36419204   1.943   3.326   0.051 -2.1494 -0.6814 -1.2907
   21MOL   H36519205   1.939   3.262   7.867 -1.5808  0.2043  0.7593
   21MOL   H36619206   2.102   3.415   7.787  1.1385 -2.8278 -0.3146
   21MOL   H36719207   2.116   3.498   7.951  1.0770  0.8937 -0.4945
   21MOL   H36819208   2.202   3.319   0.067 -2.4728 -0.6200  0.3482
   21MOL   H36919209   2.181   3.209   7.923 -2.4388  0.8132 -1.4823
   21MOL   H37019210   2.353   3.440   7.812  0.5159 -1.1590 -0.5469
   21MOL   H37119211   2.400   3.275   7.840  0.0164 -1.7750  3.0805
   21MOL   H37219212   2.533   3.438   7.964 -0.2363 -0.2866 -1.5427
   21MOL   H37319213   2.448   3.338   0.104 -1.7240  1.2761  1.7573
   21MOL   H37419214   2.179   3.672   0.103  0.1565  0.5542 -0.4788
   21MOL   H37519215   2.055   3.874   0.177 -0.5839 -3.1671 -1.6081
   21MOL   H37619216   2.404   3.983   0.424  1.9064 -0.9962  0.0923
   21MOL   H37719217   2.530   3.812   0.322 -0.5803  0.7282  2.9833
   21MOL   O37819218   1.936   4.162   0.396  0.4657  0.7661 -0.6220
   21MOL   C37919219   1.839   4.091   0.469  0.6266  0.1302 -0.2667
   21MOL   C38019220   1.910   4.017   0.587  0.7281  0.6342 -0.1435
   21MOL   C38119221   1.984   4.104   0.689  0.1501  0.6835  1.0968
   21MOL   C38219222   2.067   4.024   0.790 -0.1899  0.3200  0.3793
   21MOL   C38319223   2.202   4.092   0.819 -0.4787 -0.0601  0.8222
   21MOL   C38419224   2.180   4.217   0.905 -0.0362  0.1236 -0.5899
   21MOL   C38519225   2.307   4.308   0.901 -0.3454  0.1617 -0.3853
   21MOL   C38619226   2.327   4.398   1.023 -0.1661  0.1910 -0.1241
   21MOL   C38719227   2.462   4.481   0.995  0.2280 -0.2451  0.2432
   21MOL   C38819228   2.508   4.577   1.112  0.2576 -0.3691 -0.4154
   21MOL   O38919229   2.411   4.675   1.133 -0.4654  0.0320 -0.6855
   21MOL   C39019230   2.439   4.778   1.208  0.1847 -0.7114  0.2778
   21MOL   O39119231   2.556   4.802   1.248  0.6463  0.7933  0.4493
   21MOL   C39219232   2.316   4.862   1.240  0.1776  0.5738  0.7371
   21MOL   C39319233   2.328   4.980   1.319  0.8842  0.3935  0.6523
   21MOL   C39419234   2.212   5.064   1.341  0.4817  0.7833 -0.6830
   21MOL   C39519235   2.086   5.023   1.289 -0.1000 -1.1991 -0.1752
   21MOL   C39619236   1.969   5.111   1.312  1.0786 -0.1086 -0.4097
   21MOL   O39719237   1.986   5.228   1.359  0.3686 -0.4029  0.5209
   21MOL   O39819238   1.850   5.052   1.278  0.1731 -0.3030 -0.0037
   21MOL   C39919239   2.076   4.901   1.221  0.2840 -0.6352 -0.0042
   21MOL   C40019240   2.191   4.830   1.186  1.2435  0.4642  0.0570
   21MOL   H40119241   1.763   4.164   0.498  0.4717 -0.7379  1.5886
   21MOL   H40219242   1.792   4.023   0.398 -0.1675  0.9542 -0.5372
   21MOL   H40319243   1.977   3.937   0.555 -0.2086 -0.1709 -0.0937
   21MOL   H40419244   1.835   3.966   0.647  0.1130  0.8432 -0.7316
   21MOL   H40519245   2.056   4.167   0.636 -0.8660  0.3645 -0.6976
   21MOL   H40619246   1.915   4.167   0.745 -1.0582 -0.7652  1.2541
   21MOL   H40719247   2.085   3.917   0.774 -3.5402 -0.4664  1.4465
   21MOL   H40819248   2.018   4.018   0.887  1.6350 -0.4551  1.2993
   21MOL   H40919249   2.270   4.023   0.868 -1.7193 -2.2913 -0.5186
   21MOL   H41019250   2.242   4.116   0.721  1.2841 -1.6069  1.1350
   21MOL   H41119251   2.095   4.273   0.866  0.4160 -0.6606 -2.7922
   21MOL   H41219252   2.152   4.178   1.002  1.2132  0.9257  0.1093
   21MOL   H41319253   2.394   4.244   0.888 -0.5513 -0.1232 -0.3662
   21MOL   H41419254   2.303   4.370   0.812  0.1840 -2.0468 -1.9916
   21MOL   H41519255   2.246   4.466   1.048 -1.8207 -2.4051  1.7396
   21MOL   H41619256   2.342   4.337   1.111  0.0619  0.5068  0.0590
   21MOL   H41719257   2.449   4.533   0.901  0.6412 -0.3234  0.1437
   21MOL   H41819258   2.542   4.411   0.974  1.6855  2.0336 -1.9738
   21MOL   H41919259   2.604   4.621   1.086 -0.7966  1.7546 -0.8107
   21MOL   H42019260   2.511   4.521   1.206  1.1181 -3.5483 -2.2978
   21MOL   H42119261   2.420   5.020   1.359 -0.0089  0.2188  2.9837
   21MOL   H42219262   2.227   5.159   1.390 -1.0688 -0.0216  1.4167
   21MOL   H42319263   1.979   4.868   1.186 -0.2146  1.1114 -0.3237
   21MOL   H42419264   2.168   4.743   1.126 -1.2709  2.2175 -1.6521
   21MOL   O42519265   1.742   5.149   1.284 -0.8225  0.7226  0.0586
   21MOL   C42619266   1.718   5.185   1.147 -0.3654 -0.2420  0.5553
   21MOL   C42719267   1.612   5.297   1.134  0.4109 -0.5812  0.0199
   21MOL   C42819268   1.569   5.321   0.992 -0.4792  0.3303 -0.6237
   21MOL   C42919269   1.680   5.375   0.908  0.6699 -0.3975  0.2720
   21MOL   C43019270   1.637   5.422   0.770  0.3506  0.2762 -0.6331
   21MOL   C43119271   1.606   5.296   0.679 -0.2316  0.0528  0.8915
   21MOL   C43219272   1.565   5.344   0.533  0.0580  0.3238  0.2189
   21MOL   C43319273   1.429   5.403   0.528  0.9644 -0.2234  0.4008
   21MOL   C43419274   1.403   5.463   0.388  0.7911  0.9571 -0.4090
   21MOL   C43519275   1.291   5.560   0.398  0.5069 -0.2031 -0.1118
   21MOL   O43619276   1.288   5.631   0.268  0.1399 -0.0378 -0.7253
   21MOL   C43719277   1.178   5.694   0.227 -0.2011  0.2787 -0.0341
   21MOL   O43819278   1.074   5.670   0.281  0.4314  0.1735 -0.4658
   21MOL   C43919279   1.201   5.792   0.120 -0.9978 -0.6425  0.5067
   21MOL   C44019280   1.327   5.813   0.064 -0.8460  0.1469  0.2521
   21MOL   C44119281   1.346   5.886   7.920 -0.9632 -0.5603  0.2275
   21MOL   C44219282   1.240   5.960   7.869 -0.6099 -0.0240 -0.5540
   21MOL   C44319283   1.259   6.038   7.747 -0.4032 -0.0245  0.1241
   21MOL   O44419284   1.367   6.059   7.698 -0.3070 -0.3577 -0.1081
   21MOL   O44519285   1.151   6.100   7.705  0.1636 -0.0760 -0.2742
   21MOL   C44619286   1.115   5.960   7.937 -0.2503  0.4026  0.2674
   21MOL   C44719287   1.100   5.872   0.068 -0.8179 -0.4623  0.0838
   21MOL   H44819288   1.813   5.225   1.114 -0.1873 -0.0103  1.3289
   21MOL   H44919289   1.687   5.096   1.092 -0.1627  0.8792 -1.4042
   21MOL   H45019290   1.640   5.395   1.173  1.9419 -0.9572 -0.0873
   21MOL   H45119291   1.525   5.265   1.191  0.6867 -0.5141  0.4843
   21MOL   H45219292   1.537   5.228   0.946 -1.3313 -0.8673  2.3063
   21MOL   H45319293   1.492   5.398   0.993 -1.0556 -0.2489 -0.6633
   21MOL   H45419294   1.761   5.303   0.905  0.6187 -0.5475  2.0866
   21MOL   H45519295   1.727   5.462   0.954  0.0523  0.0435  0.0777
   21MOL   H45619296   1.550   5.484   0.791  0.5422  0.9425 -1.7381
   21MOL   H45719297   1.719   5.476   0.722 -0.4913  0.9915 -1.2773
   21MOL   H45819298   1.694   5.233   0.669  0.0772  0.8407 -1.7469
   21MOL   H45919299   1.528   5.234   0.723  0.5464 -0.7469  1.1538
   21MOL   H46019300   1.642   5.415   0.501 -0.7859  0.6975 -1.0024
   21MOL   H46119301   1.562   5.265   0.459 -0.6304  0.5423  0.0149
   21MOL   H46219302   1.354   5.332   0.561 -0.7598  0.5303 -1.7447
   21MOL   H46319303   1.422   5.484   0.601  1.5079 -0.1943  0.4240
   21MOL   H46419304   1.377   5.387   0.314  0.4480  0.2687  0.4203
   21MOL   H46519305   1.499   5.502   0.354  0.7131  1.6059  0.1060
   21MOL   H46619306   1.320   5.637   0.471  0.6720 -0.6411  0.2915
   21MOL   H46719307   1.199   5.506   0.419  0.7391 -0.1376  1.1625
   21MOL   H46819308   1.413   5.760   0.101 -0.0275 -0.0440 -1.8125
   21MOL   H46919309   1.442   5.883   7.870  0.1059 -1.5888  2.2569
   21MOL   H47019310   1.027   6.014   7.904 -0.2885 -0.0039 -0.3261
   21MOL   H47119311   1.000   5.868   0.109 -0.9437 -3.8761 -0.4745
   21MOL   O47219312   1.163   6.175   7.572 -0.2551 -0.6326 -0.2951
   21MOL   C47319313   1.158   6.309   7.613 -0.0695 -0.2995  0.5278
   21MOL   C47419314   1.159   6.389   7.483  0.2558 -0.0776 -0.0009
   21MOL   C47519315   1.292   6.370   7.411  0.0792  0.9134  0.2410
   21MOL   C47619316   1.337   6.488   7.323 -0.2305 -0.0757 -0.8179
   21MOL   C47719317   1.230   6.525   7.219  0.1641 -0.0979  0.0287
   21MOL   C47819318   1.281   6.647   7.128  0.1538  0.2824  0.7849
   21MOL   C47919319   1.415   6.606   7.061  0.7100 -0.4843  0.3487
   21MOL   C48019320   1.452   6.696   6.942  0.1617  0.4233 -1.0828
   21MOL   C48119321   1.583   6.665   6.878 -0.3312 -0.2194 -0.5463
   21MOL   C48219322   1.622   6.743   6.754 -0.3397 -0.2685  0.6727
   21MOL   O48319323   1.541   6.701   6.645 -0.1915  0.0285  0.0726
   21MOL   C48419324   1.562   6.736   6.518 -0.6810  0.4196  0.1625
   21MOL   O48519325   1.646   6.822   6.485  0.1801 -0.6024 -0.1129
   21MOL   C48619326   1.471   6.653   6.426  0.0807 -0.6472 -0.1016
   21MOL   C48719327   1.414   6.532   6.468  0.3234 -0.0662  0.6469
   21MOL   C48819328   1.326   6.463   6.386  0.2647  0.1424 -0.2211
   21MOL   C48919329   1.294   6.512   6.259 -0.0343  0.3962 -0.3093
   21MOL   C49019330   1.197   6.443   6.170  0.8889 -0.8180 -0.0840
   21MOL   O49119331   1.139   6.341   6.208  0.3843 -0.5781  0.1407
   21MOL   O49219332   1.184   6.509   6.052 -0.6223  0.0120  0.0875
   21MOL   C49319333   1.354   6.630   6.217 -0.3480 -0.3249 -0.2761
   21MOL   C49419334   1.453   6.702   6.296  0.1097 -0.3774 -0.9530
   21MOL   H49519335   1.072   6.330   7.676 -1.3434 -0.3125 -1.1683
   21MOL   H49619336   1.251   6.329   7.666 -0.5405  0.5430  1.0498
   21MOL   H49719337   1.126   6.490   7.506 -1.0089 -0.1330 -1.4418
   21MOL   H49819338   1.071   6.361   7.423  0.6576  0.0483 -0.6525
   21MOL   H49919339   1.370   6.343   7.483 -0.4025 -0.5650  0.2368
   21MOL   H50019340   1.284   6.275   7.359  0.7168  2.1187 -2.1180
   21MOL   H50119341   1.421   6.448   7.266 -1.4476 -2.4986 -0.9617
   21MOL   H50219342   1.381   6.562   7.390  1.1108  0.2191 -1.9933
   21MOL   H50319343   1.210   6.436   7.159  0.6798 -0.7784  0.8368
   21MOL   H50419344   1.141   6.554   7.275  1.0592 -0.8696  1.9243
   21MOL   H50519345   1.210   6.665   7.047  1.9781  0.4932 -0.7864
   21MOL   H50619346   1.288   6.731   7.198  2.2109 -1.0098  2.1884
   21MOL   H50719347   1.490   6.613   7.139 -0.8751  1.4731  1.7180
   21MOL   H50819348   1.409   6.506   7.017  0.5242  0.3627 -1.6088
   21MOL   H50919349   1.370   6.688   6.871 -0.7030 -0.4237 -0.0071
   21MOL   H51019350   1.444   6.800   6.973 -0.8670 -0.5042  1.9844
   21MOL   H51119351   1.578   6.558   6.856 -1.3176 -0.1817 -0.5221
   21MOL   H51219352   1.666   6.679   6.948 -0.6720 -0.5643 -0.0660
   21MOL   H51319353   1.728   6.729   6.731 -0.1911 -1.0818  1.8387
   21MOL   H51419354   1.611   6.849   6.778 -2.6510  0.4040 -2.8398
   21MOL   H51519355   1.432   6.488   6.565 -1.2570 -1.9243  0.1401
   21MOL   H51619356   1.267   6.379   6.421  2.9348 -2.1868 -1.1468
   21MOL   H51719357   1.327   6.681   6.125 -0.3054 -2.3537 -1.4444
   21MOL   H51819358   1.500   6.794   6.267  1.3618 -1.0119 -0.9973
   21MOL   O51919359   1.101   6.438   5.947  0.1616 -0.2137 -0.0642
   21MOL   C52019360   0.978   6.500   5.942  0.2574 -0.8444  0.1712
   21MOL   C52119361   0.904   6.433   5.832 -0.0280 -0.3173 -0.4033
   21MOL   C52219362   0.765   6.483   5.808  0.6906  0.5664 -0.2707
   21MOL   C52319363   0.689   6.418   5.693 -0.0089 -0.2953 -0.8795
   21MOL   C52419364   0.536   6.435   5.698  0.2619  0.0970  0.0419
   21MOL   C52519365   0.464   6.362   5.586 -0.2304 -0.3343 -0.2254
   21MOL   C52619366   0.487   6.211   5.584 -0.4518 -0.4650 -1.1424
   21MOL   C52719367   0.425   6.133   5.702  0.2435  0.4609  0.2335
   21MOL   C52819368   0.526   6.036   5.770 -0.1270 -0.2604  0.1812
   21MOL   C52919369   0.461   5.981   5.899 -0.0397 -0.1252 -0.6008
   21MOL   O53019370   0.498   6.063   6.002  0.2520 -0.0270 -0.9436
   21MOL   C53119371   0.542   6.011   6.122  0.2309  0.2729  0.0754
   21MOL   O53219372   0.542   5.889   6.144 -0.0613  0.1931 -0.3352
   21MOL   C53319373   0.612   6.115   6.207  0.9657 -0.5188 -0.4364
   21MOL   C53419374   0.662   6.071   6.332  0.6020  0.9617 -0.3040
   21MOL   C53519375   0.751   6.157   6.402  0.4244 -0.1129  0.6814
   21MOL   C53619376   0.774   6.288   6.360 -0.3431  1.2362 -0.1938
   21MOL   C53719377   0.854   6.376   6.448 -0.2317 -0.2853  0.9942
   21MOL   O53819378   0.888   6.494   6.422  0.2545 -0.6160  0.2401
   21MOL   O53919379   0.878   6.321   6.571 -0.2911  0.4167  0.1491
   21MOL   C54019380   0.726   6.326   6.231  0.0503  0.2038 -0.8341
   21MOL   C54119381   0.649   6.239   6.155 -0.9920 -0.0454 -1.0612
   21MOL   H54219382   0.913   6.491   6.028 -0.3933 -1.4083 -0.3785
   21MOL   H54319383   0.977   6.609   5.928  1.0264 -0.6181  1.7904
   21MOL   H54419384   0.900   6.328   5.860  2.0266 -0.1469  0.5978
   21MOL   H54519385   0.965   6.447   5.742 -0.8590  2.2163 -0.6153
   21MOL   H54619386   0.710   6.491   5.902 -1.1042  1.1057 -1.3486
   21MOL   H54719387   0.782   6.589   5.789 -0.1112  1.2204  2.3528
   21MOL   H54819388   0.709   6.312   5.709  4.0308  0.6918  1.2393
   21MOL   H54919389   0.726   6.436   5.592 -0.0013  0.5193 -0.7358
   21MOL   H55019390   0.497   6.400   5.794  1.4687 -2.8500 -0.5003
   21MOL   H55119391   0.504   6.540   5.702  0.8818  0.2804  0.3381
   21MOL   H55219392   0.356   6.366   5.601 -0.7388 -0.9715 -3.4131
   21MOL   H55319393   0.491   6.411   5.493  2.0821  1.6764  1.4259
   21MOL   H55419394   0.455   6.169   5.489 -0.5726 -0.4165 -1.1231
   21MOL   H55519395   0.592   6.181   5.589 -0.7571 -1.2822  1.0873
   21MOL   H55619396   0.390   6.212   5.768  4.0490  2.1009  0.3750
   21MOL   H55719397   0.333   6.076   5.684 -0.2284  0.6997  1.7818
   21MOL   H55819398   0.616   6.088   5.804 -0.9327  1.7671 -0.7371
   21MOL   H55919399   0.554   5.955   5.702 -0.8624 -2.7240  2.7003
   21MOL   H56019400   0.468   5.873   5.916 -0.6352 -0.4883 -2.5016
   21MOL   H56119401   0.353   5.990   5.898 -0.1878 -1.7072 -1.3316
   21MOL   H56219402   0.650   5.970   6.367  0.2521  1.4601  1.0433
   21MOL   H56319403   0.789   6.112   6.493  0.5073 -2.5660 -0.5172
   21MOL   H56419404   0.756   6.425   6.200  0.7231  0.5444  0.8562
   21MOL   H56519405   0.604   6.278   6.065 -0.9399 -3.1284 -2.4629
   21MOL   O56619406   0.948   6.417   6.669 -0.3747  0.3304 -0.2574
   21MOL   C56719407   1.087   6.388   6.676  0.2495 -0.2424 -0.1387
   21MOL   C56819408   1.115   6.253   6.748 -0.4630  0.1838 -0.3304
   21MOL   C56919409   1.237   6.254   6.838 -0.2645  0.8334  0.2168
   21MOL   C57019410   1.231   6.139   6.949  0.4944 -0.0255  0.5562
   21MOL   C57119411   1.347   6.157   7.050 -0.5305  1.1697  0.1674
   21MOL   C57219412   1.360   6.034   7.145 -0.1750  1.2782 -0.4547
   21MOL   C57319413   1.423   5.906   7.088  0.0824  0.4807 -0.1506
   21MOL   C57419414   1.478   5.809   7.184 -0.7039  0.5214  0.5729
   21MOL   C57519415   1.554   5.698   7.107 -0.1320  0.2959 -0.1525
   21MOL   C57619416   1.628   5.606   7.206 -0.5244 -0.6643  0.3692
   21MOL   O57719417   1.740   5.674   7.253  0.2604  0.0162  0.2199
   21MOL   C57819418   1.812   5.614   7.346  0.2165  0.8570 -0.2259
   21MOL   O57919419   1.785   5.509   7.398 -1.1586 -0.3248  0.0297
   21MOL   C58019420   1.929   5.705   7.397 -0.4855 -0.0959 -0.3788
   21MOL   C58119421   2.016   5.657   7.498  0.0327  0.0003 -0.1194
   21MOL   C58219422   2.124   5.738   7.541 -0.3185 -0.1320 -0.4224
   21MOL   C58319423   2.138   5.872   7.498  0.2301  0.7276  0.0053
   21MOL   C58419424   2.241   5.961   7.563  0.4175 -0.4330  0.1004
   21MOL   O58519425   2.240   6.083   7.555  0.4818  0.5256  0.5995
   21MOL   O58619426   2.324   5.895   7.644  0.0334  0.0347 -0.0201
   21MOL   C58719427   2.048   5.921   7.405  0.2377  0.4148  0.5414
   21MOL   C58819428   1.943   5.835   7.351  0.1448  0.2690 -0.2410
   21MOL   H58919429   1.134   6.377   6.578 -1.5971  0.4269 -1.1210
   21MOL   H59019430   1.133   6.470   6.730  0.0927 -0.4961  0.3895
   21MOL   H59119431   1.127   6.186   6.663  0.7330  0.3737 -0.3270
   21MOL   H59219432   1.034   6.212   6.809  0.8814 -1.9643  0.0595
   21MOL   H59319433   1.329   6.227   6.786 -0.2273 -1.5447  1.4589
   21MOL   H59419434   1.247   6.354   6.882 -1.7385  1.6959 -1.3283
   21MOL   H59519435   1.249   6.043   6.901  0.9810  0.2306  0.2273
   21MOL   H59619436   1.140   6.122   7.008  0.0794 -2.7767 -0.8020
   21MOL   H59719437   1.436   6.178   6.991 -1.1137  1.7175 -0.5269
   21MOL   H59819438   1.336   6.249   7.109 -0.2676  1.2431  0.0993
   21MOL   H59919439   1.428   6.078   7.217  1.0842  0.7139 -1.2836
   21MOL   H60019440   1.267   6.014   7.199 -0.8961  0.7814 -1.8468
   21MOL   H60119441   1.341   5.876   7.023  0.4532 -0.2318 -0.2973
   21MOL   H60219442   1.499   5.950   7.024 -0.6154 -1.9930 -2.8001
   21MOL   H60319443   1.547   5.868   7.244 -1.6305  2.7561 -0.5099
   21MOL   H60419444   1.410   5.753   7.248  1.6740  0.7629  3.3747
   21MOL   H60519445   1.615   5.729   7.022  0.9197 -0.9143  0.1505
   21MOL   H60619446   1.483   5.633   7.056  1.0853 -2.1940  1.2606
   21MOL   H60719447   1.647   5.516   7.147 -2.2712 -1.3524  0.8325
   21MOL   H60819448   1.562   5.568   7.283  0.8726 -0.6388  1.6113
   21MOL   H60919449   1.999   5.562   7.547 -2.1506  0.0507 -0.7480
   21MOL   H61019450   2.188   5.699   7.619  1.9713 -0.1190 -2.2533
   21MOL   H61119451   2.065   6.022   7.369 -1.3641  0.0568 -1.3588
   21MOL   H61219452   1.889   5.874   7.267 -1.0690 -1.2582 -0.2004
   21MOL   O61319453   2.425   5.985   7.713  0.2071 -0.2919  0.6272
   21MOL   C61419454   2.550   5.958   7.655 -0.1387 -0.3097 -0.1735
   21MOL   C61519455   2.570   6.039   7.522  0.4684  0.8185 -0.8399
   21MOL   C61619456   2.571   6.193   7.530 -0.0195  0.2116 -0.6813
   21MOL   C61719457   2.602   6.280   7.403  0.1306  0.5867  0.0912
   21MOL   C61819458   2.612   6.428   7.447  0.0818 -0.7407  0.1847
   21MOL   C61919459   2.660   6.522   7.339 -0.6119  0.5817  0.1550
   21MOL   C62019460   2.747   6.635   7.398  0.2317  0.3160  0.5060
   21MOL   C62119461   2.799   6.741   7.298  0.3836 -0.3972  0.4667
   21MOL   C62219462   2.854   6.683   7.163  0.8793  0.1308 -0.2802
   21MOL   C62319463   2.974   6.587   7.172  0.1854 -0.1616  0.1201
   21MOL   O62419464   3.070   6.658   7.249  0.0758  0.1810 -0.5835
   21MOL   C62519465   3.185   6.601   7.286  0.3483 -0.2498 -0.8249
   21MOL   O62619466   3.217   6.483   7.254 -0.0792 -0.3598 -0.0892
   21MOL   C62719467   3.266   6.693   7.367  0.2437  0.0525 -0.8904
   21MOL   C62819468   3.384   6.647   7.428 -0.1125  0.0975 -0.0585
   21MOL   C62919469   3.457   6.727   7.511  0.0340 -0.2071 -0.0121
   21MOL   C63019470   3.411   6.850   7.553  0.1742 -0.8188 -1.1469
   21MOL   C63119471   3.503   6.939   7.644 -0.0494  0.2479 -0.5003
   21MOL   O63219472   3.609   6.900   7.692 -0.3301 -0.2993 -0.5440
   21MOL   O63319473   3.453   7.060   7.669 -0.2970 -0.1809  0.3502
   21MOL   C63419474   3.293   6.899   7.498  0.0686 -1.4307 -0.7986
   21MOL   C63519475   3.219   6.821   7.404 -0.0778 -0.0863 -0.9304
   21MOL   H63619476   2.632   5.978   7.724  1.5656 -0.3708 -2.1422
   21MOL   H63719477   2.562   5.850   7.649 -0.6460 -0.5202  2.0601
   21MOL   H63819478   2.501   6.012   7.443  0.5065  0.2465 -0.6771
   21MOL   H63919479   2.666   6.007   7.482  1.5629  1.5115  1.1696
   21MOL   H64019480   2.476   6.233   7.564 -0.7626 -1.9072 -0.2530
   21MOL   H64119481   2.641   6.216   7.611 -1.7005 -0.7155  1.0742
   21MOL   H64219482   2.522   6.271   7.329 -0.1948  0.6729  0.4315
   21MOL   H64319483   2.696   6.253   7.354  1.7953  1.0455  2.9332
   21MOL   H64419484   2.525   6.468   7.501  0.1879 -0.3642  0.0834
   21MOL   H64519485   2.688   6.440   7.524  1.0660  2.9009 -1.2289
   21MOL   H64619486   2.714   6.480   7.254  0.1083  2.3968 -0.3197
   21MOL   H64719487   2.575   6.568   7.289 -2.2545 -2.2584  0.2626
   21MOL   H64819488   2.692   6.682   7.479  0.8655  0.2375  0.9868
   21MOL   H64919489   2.836   6.587   7.439 -0.0133 -2.1300 -1.6956
   21MOL   H65019490   2.715   6.806   7.278  0.3750 -0.6673 -0.3680
   21MOL   H65119491   2.878   6.802   7.342  0.9150 -0.4068 -0.4752
   21MOL   H65219492   2.896   6.762   7.100  1.1601 -0.3458 -0.6868
   21MOL   H65319493   2.771   6.659   7.097 -0.1679  2.3130  0.1948
   21MOL   H65419494   3.015   6.572   7.072  0.4727  2.3977 -0.1949
   21MOL   H65519495   2.966   6.491   7.222 -2.4378 -0.7340 -1.2988
   21MOL   H65619496   3.421   6.545   7.424  0.1719 -0.0530  4.0259
   21MOL   H65719497   3.548   6.684   7.550 -1.6689 -2.9063  1.1700
   21MOL   H65819498   3.246   6.994   7.519  1.5892 -0.8221 -0.0598
   21MOL   H65919499   3.134   6.868   7.357  0.8205  1.0115 -1.4979
   21MOL   O66019500   3.543   7.138   7.757  0.5174 -0.8004 -0.0175
   21MOL   C66119501   3.615   7.225   7.671 -0.1701 -0.4043 -0.1911
   21MOL   C66219502   3.701   7.326   7.757  0.6934  0.1060 -0.0050
   21MOL   C66319503   3.625   7.448   7.818  0.4602  0.5798  0.4889
   21MOL   C66419504   3.558   7.405   7.948 -0.2323  0.1838  0.0676
   21MOL   C66519505   3.489   7.524   0.034  0.3365 -0.7020  0.1981
   21MOL   C66619506   3.397   7.488   0.151 -0.8072  0.4814 -0.3517
   21MOL   C66719507   3.463   7.421   0.277 -0.0180 -0.2591 -0.6128
   21MOL   C66819508   3.371   7.431   0.399  1.2915 -0.1386 -0.8802
   21MOL   C66919509   3.433   7.382   0.531 -0.1249  0.0800  0.3852
   21MOL   C67019510   3.333   7.388   0.647 -0.2097 -0.6602 -0.4625
   21MOL   O67119511   3.241   7.279   0.643  0.0509 -0.5370 -0.1223
   21MOL   C67219512   3.167   7.260   0.761 -0.4195 -0.4356 -0.0954
   21MOL   O67319513   3.176   7.321   0.868  0.3152 -0.0976 -0.6315
   21MOL   C67419514   3.065   7.153   0.736 -0.2671 -0.0241  0.0146
   21MOL   C67519515   2.967   7.134   0.836  0.0774  0.2972 -0.3410
   21MOL   C67619516   2.866   7.041   0.835  0.9297  0.5349 -0.1064
   21MOL   C67719517   2.856   6.959   0.721  0.4898 -0.3616  0.2920
   21MOL   C67819518   2.751   6.852   0.723  0.5313  0.3038  0.6050
   21MOL   O67919519   2.670   6.830   0.816  0.4481  0.2910  0.5804
   21MOL   O68019520   2.753   6.786   0.606 -0.4194  0.4575 -0.2607
   21MOL   C68119521   2.945   6.983   0.615 -0.3068  0.3029  0.0714
   21MOL   C68219522   3.049   7.076   0.622 -0.3074  0.0984  0.3529
   21MOL   H68319523   3.680   7.156   7.616 -1.6275 -0.5538 -1.7719
   21MOL   H68419524   3.559   7.283   7.597  2.9430 -1.1601 -3.3193
   21MOL   H68519525   3.772   7.360   7.682 -0.8911  1.3540 -0.9822
   21MOL   H68619526   3.747   7.260   7.830 -1.1360 -1.6215 -0.3608
   21MOL   H68719527   3.707   7.514   7.844  0.9410 -0.5041  1.8006
   21MOL   H68819528   3.565   7.501   7.744  0.5591 -1.8207 -1.3616
   21MOL   H68919529   3.632   7.347   0.026 -0.7375  0.2827  0.8446
   21MOL   H69019530   3.489   7.326   7.922  2.1934 -1.7992 -0.5861
   21MOL   H69119531   3.560   7.601   0.065 -0.0046 -0.9605  1.6350
   21MOL   H69219532   3.424   7.570   7.937  3.7178  2.3613 -1.0288
   21MOL   H69319533   3.362   7.588   0.177  2.6212  1.9292 -1.0552
   21MOL   H69419534   3.311   7.435   0.110 -1.2127  0.8031  0.0695
   21MOL   H69519535   3.497   7.319   0.261 -0.7894 -0.7140  0.5745
   21MOL   H69619536   3.556   7.477   0.291  0.6256 -1.8734  1.8420
   21MOL   H69719537   3.327   7.531   0.408 -0.8040 -1.0754 -0.3378
   21MOL   H69819538   3.289   7.360   0.388  0.8702  0.4456 -1.5349
   21MOL   H69919539   3.518   7.446   0.554  0.0188  0.5083 -1.2418
   21MOL   H70019540   3.473   7.280   0.529  0.0329  0.1504 -1.8530
   21MOL   H70119541   3.295   7.489   0.659 -0.7309 -1.2884  3.7999
   21MOL   H70219542   3.393   7.367   0.735  0.3840 -0.0231 -0.7128
   21MOL   H70319543   2.972   7.190   0.928  0.0856  1.2321 -0.9071
   21MOL   H70419544   2.804   7.045   0.924  0.6492  0.0521 -0.2787
   21MOL   H70519545   2.927   6.931   0.522 -0.9942 -1.6255  1.2454
   21MOL   H70619546   3.125   7.073   0.546  0.4933  2.1184  1.0368
   21MOL   O70719547   2.688   6.651   0.600 -0.0745 -0.3276  0.2878
   21MOL   C70819548   2.784   6.547   0.590  0.6847  0.0350  0.1150
   21MOL   C70919549   2.708   6.409   0.582  0.0291  0.1455  0.8354
   21MOL   C71019550   2.796   6.284   0.556  0.6704 -0.1355  0.1635
   21MOL   C71119551   2.876   6.250   0.687 -0.2665 -0.7610  0.4121
   21MOL   C71219552   2.945   6.115   0.672 -0.2288  0.6682  0.2922
   21MOL   C71319553   3.035   6.085   0.793 -0.3065  0.2707  0.4893
   21MOL   C71419554   3.097   5.942   0.799 -0.5887 -0.5278  1.0749
   21MOL   C71519555   3.246   5.944   0.739  0.1345 -0.3590 -0.8010
   21MOL   C71619556   3.298   5.805   0.708 -0.6887  0.5905 -0.5506
   21MOL   C71719557   3.448   5.802   0.693  0.9144 -0.5761 -0.8169
   21MOL   O71819558   3.496   5.889   0.591  0.1673  0.1655 -0.5622
   21MOL   C71919559   3.623   5.927   0.570  0.3968 -0.2724  0.5352
   21MOL   O72019560   3.717   5.901   0.649 -0.1952 -0.6872 -0.0317
   21MOL   C72119561   3.650   5.988   0.432  0.1324 -0.1242 -0.5806
   21MOL   C72219562   3.551   5.988   0.330 -0.2332  0.6175 -0.2419
   21MOL   C72319563   3.575   6.050   0.203  0.0111 -0.2741  0.6516
   21MOL   C72419564   3.699   6.121   0.182  0.2427  0.6059  0.6842
   21MOL   C72519565   3.731   6.187   0.056 -0.7414 -0.4652 -0.0816
   21MOL   O72619566   3.841   6.199   0.005 -0.4319 -0.5597 -0.9108
   21MOL   O72719567   3.622   6.239   7.977 -0.4033 -0.4862  0.3336
   21MOL   C72819568   3.794   6.119   0.288  0.0785 -0.4219 -0.7945
   21MOL   C72919569   3.774   6.060   0.410 -0.1104  0.9887  0.1938
   21MOL   H73019570   2.852   6.566   0.507 -0.2857  1.7762 -0.3152
   21MOL   H73119571   2.845   6.540   0.680  1.0611 -0.7839 -0.2011
   21MOL   H73219572   2.632   6.425   0.506  1.4817 -0.5759 -0.7763
   21MOL   H73319573   2.656   6.404   0.678  1.8303  1.2812  1.9062
   21MOL   H73419574   2.723   6.211   0.520 -1.4514  2.7948 -1.7436
   21MOL   H73519575   2.869   6.303   0.478  2.1751  0.4451  1.6796
   21MOL   H73619576   2.807   6.244   0.771  1.7847 -1.7703  2.0634
   21MOL   H73719577   2.942   6.335   0.702  0.0953 -1.1190  0.8557
   21MOL   H73819578   2.862   6.044   0.673  0.4195 -0.1120  2.5375
   21MOL   H73919579   2.999   6.098   0.579 -0.2799  0.9911  0.2030
   21MOL   H74019580   3.115   6.156   0.812 -0.7273  0.7850  0.3475
   21MOL   H74119581   2.969   6.088   0.879 -0.9978  2.0582 -0.0973
   21MOL   H74219582   3.111   5.929   0.907  0.2718 -1.5963  0.8433
   21MOL   H74319583   3.030   5.865   0.763 -0.4422  0.2896 -0.9731
   21MOL   H74419584   3.246   5.990   0.640 -2.1014 -0.0828 -0.6946
   21MOL   H74519585   3.313   6.007   0.798 -3.5712  0.9712  2.1892
   21MOL   H74619586   3.244   5.762   0.623 -0.7787 -0.8212  0.2127
   21MOL   H74719587   3.272   5.745   0.795  2.7520  0.9098  0.7714
   21MOL   H74819588   3.488   5.705   0.664  1.4975 -0.6730  0.2993
   21MOL   H74919589   3.485   5.828   0.792 -0.3635  2.7486 -1.1346
   21MOL   H75019590   3.462   5.928   0.329  1.2510 -1.6450  0.4459
   21MOL   H75119591   3.495   6.052   0.131 -0.6973 -1.8506  1.3710
   21MOL   H75219592   3.888   6.168   0.267  0.6236 -1.0858  0.0785
   21MOL   H75319593   3.843   6.075   0.492  1.6816  1.1300 -1.3149
   21MOL   O75419594   3.638   6.320   7.854  0.1220 -0.5575 -0.1208
   21MOL   C75519595   3.637   6.463   7.897 -0.3115 -0.1971  0.1649
   21MOL   C75619596   3.683   6.543   7.773 -0.6422 -0.0756 -0.6165
   21MOL   C75719597   3.828   6.528   7.722  0.0168 -0.0681  0.0007
   21MOL   C75819598   3.852   6.567   7.574 -0.0471  0.0860  0.2472
   21MOL   C75919599   3.857   6.718   7.552  0.0012  0.5054  0.1010
   21MOL   C76019600   3.975   6.784   7.627  0.4127  0.6585 -0.2122
   21MOL   C76119601   3.978   6.934   7.584 -0.5251  0.5428 -0.1947
   21MOL   C76219602   4.086   7.017   7.661 -0.2662 -0.4891 -0.3809
   21MOL   C76319603   4.105   7.167   7.614 -0.2851 -0.5538  0.0782
   21MOL   C76419604   4.199   7.254   7.695  0.2188  0.2961 -0.2912
   21MOL   O76519605   4.144   7.253   7.826  0.6007  0.4649 -0.5925
   21MOL   C76619606   4.068   7.366   7.860 -0.3724 -0.6344 -0.6947
   21MOL   O76719607   4.038   7.458   7.789  0.7129  0.5163 -0.2370
   21MOL   C76819608   4.027   7.354   0.028 -0.6183 -0.3622 -0.3421
   21MOL   C76919609   4.108   7.285   0.126 -0.0663  0.2611  0.0627
   21MOL   C77019610   4.077   7.289   0.269 -0.3922 -0.0489  0.4667
   21MOL   C77119611   3.972   7.370   0.312  0.5280 -0.2526  0.9571
   21MOL   C77219612   3.938   7.368   0.454  0.0984 -0.0678 -0.2069
   21MOL   O77319613   3.846   7.440   0.499 -0.1391 -0.3749 -0.3719
   21MOL   O77419614   4.005   7.278   0.527 -0.1977 -0.1587 -0.8557
   21MOL   C77519615   3.897   7.444   0.220  0.6218  0.5703 -0.5604
   21MOL   C77619616   3.918   7.421   0.082  0.3129 -0.5597 -0.0352
   21MOL   H77719617   3.534   6.484   7.924  0.2868  1.6900  1.1050
   21MOL   H77819618   3.692   6.465   0.013 -0.8558  1.9563  0.4626
   21MOL   H77919619   3.666   6.644   7.810  0.8028 -0.5900  1.5814
   21MOL   H78019620   3.615   6.529   7.689 -2.3614 -1.5040  0.9746
   21MOL   H78119621   3.893   6.579   7.792 -1.6722 -1.0541  2.3363
   21MOL   H78219622   3.857   6.424   7.733 -1.0575 -0.5748 -1.6587
   21MOL   H78319623   3.773   6.528   7.510  2.3735  0.5161 -3.1840
   21MOL   H78419624   3.949   6.531   7.540 -0.9177 -1.4856 -0.6511
   21MOL   H78519625   3.858   6.725   7.443  0.7539 -1.2288 -0.0270
   21MOL   H78619626   3.760   6.753   7.588 -0.6879 -3.0178  1.9086
   21MOL   H78719627   3.941   6.784   7.730 -6.2979 -1.0481 -2.1746
   21MOL   H78819628   4.072   6.735   7.621  0.2360  0.1376  1.1712
   21MOL   H78919629   3.996   6.958   7.479  1.9601 -0.7794 -0.0874
   21MOL   H79019630   3.881   6.980   7.607  0.0960  1.1202  1.3558
   21MOL   H79119631   4.061   7.016   7.767  0.9925  0.6545 -0.0627
   21MOL   H79219632   4.184   6.968   7.662 -0.5048 -0.9845 -0.6916
   21MOL   H79319633   4.006   7.212   7.609  0.5087  1.2842  0.4846
   21MOL   H79419634   4.132   7.161   7.509 -1.4762 -1.5841 -0.1783
   21MOL   H79519635   4.210   7.353   7.651 -0.2178  0.5966  0.2564
   21MOL   H79619636   4.301   7.217   7.699 -0.3817 -1.3855  0.2307
   21MOL   H79719637   4.195   7.228   0.097  0.1137 -0.0770  1.2370
   21MOL   H79819638   4.139   7.237   0.340 -0.6380 -1.6359 -0.4465
   21MOL   H79919639   3.823   7.509   0.265  1.6196  1.1076  0.3132
   21MOL   H80019640   3.852   7.474   0.015  0.1302  0.2469  0.7730
   21MOL   O80119641   3.933   7.234   0.646 -0.1788  0.7045  0.7182
   21MOL   C80219642   3.973   7.297   0.760 -0.1183  1.0706 -0.1986
   21MOL   C80319643   3.860   7.283   0.862  0.3754  0.0552  0.3715
   21MOL   C80419644   3.740   7.356   0.819  0.5426  0.3515 -0.2338
   21MOL   C80519645   3.637   7.375   0.935  0.3683  0.1050  0.2031
   21MOL   C80619646   3.564   7.245   0.966  0.7192 -0.0847 -0.2790
   21MOL   C80719647   3.466   7.264   1.080  0.3995  0.5389 -0.2476
   21MOL   C80819648   3.405   7.132   1.134 -0.0062  0.5294  0.3106
   21MOL   C80919649   3.290   7.149   1.242  0.2521 -0.4025 -0.5029
   21MOL   C81019650   3.146   7.162   1.180 -0.9927 -0.0691 -0.3786
   21MOL   C81119651   3.025   7.127   1.271  0.3970  0.2023  0.6829
   21MOL   O81219652   3.043   6.992   1.316 -0.3940 -0.3122  0.1676
   21MOL   C81319653   3.087   6.972   1.444  0.0899 -0.0946  0.5008
   21MOL   O81419654   3.098   7.066   1.527  0.8277  0.6793  0.4660
   21MOL   C81519655   3.127   6.832   1.463  0.6808  0.4556 -0.7380
   21MOL   C81619656   3.118   6.735   1.364  0.0105  0.2580 -0.0696
   21MOL   C81719657   3.150   6.600   1.396 -0.7290 -0.5038  0.3533
   21MOL   C81819658   3.203   6.568   1.527  0.3005 -0.4413  0.2337
   21MOL   C81919659   3.245   6.423   1.549  0.0135  0.3832 -0.0180
   21MOL   O82019660   3.308   6.389   1.647 -0.0016  0.6945 -0.4933
   21MOL   O82119661   3.209   6.339   1.451 -0.6739 -0.1822  0.3604
   21MOL   C82219662   3.209   6.664   1.628 -0.7947  0.0886 -0.3614
   21MOL   C82319663   3.168   6.789   1.599  0.8895  0.4979 -0.1480
   21MOL   H82419664   4.070   7.254   0.786  0.0524 -0.3304 -3.0373
   21MOL   H82519665   3.993   7.403   0.748  1.6473  0.8947  0.9860
   21MOL   H82619666   3.886   7.298   0.967 -0.4080 -3.0588  1.0769
   21MOL   H82719667   3.840   7.176   0.855  3.6591 -0.6156  0.4570
   21MOL   H82819668   3.759   7.458   0.787  1.4760  1.0468  2.4031
   21MOL   H82919669   3.693   7.294   0.742  0.9446 -0.0611 -0.1489
   21MOL   H83019670   3.562   7.446   0.900  1.1682  1.7483  1.7672
   21MOL   H83119671   3.692   7.405   1.024  1.2337  0.8141 -0.5574
   21MOL   H83219672   3.512   7.200   0.882 -0.7517 -1.1873  1.1894
   21MOL   H83319673   3.633   7.168   1.000  2.4656  2.1566  1.3951
   21MOL   H83419674   3.514   7.310   1.166  3.0337 -0.7745 -0.9515
   21MOL   H83519675   3.392   7.334   1.041 -1.9683 -1.3490  0.7564
   21MOL   H83619676   3.366   7.064   1.058 -1.8347  2.8158 -0.8666
   21MOL   H83719677   3.482   7.070   1.180  1.3555 -1.2269 -3.9903
   21MOL   H83819678   3.299   7.058   1.302 -2.3464 -0.0306  0.4788
   21MOL   H83919679   3.314   7.229   1.312 -1.0875  0.2738 -0.8154
   21MOL   H84019680   3.133   7.104   1.089  0.1405 -2.0644  0.6887
   21MOL   H84119681   3.128   7.262   1.142 -1.3501 -0.1909 -0.5225
   21MOL   H84219682   2.932   7.122   1.216 -0.4471  1.2477  1.9866
   21MOL   H84319683   2.995   7.204   1.341 -2.3574 -0.8623  0.7459
   21MOL   H84419684   3.076   6.761   1.268 -1.0955 -0.0762  0.3081
   21MOL   H84519685   3.136   6.522   1.323 -1.0382  1.2353 -1.4901
   21MOL   H84619686   3.253   6.647   1.725 -1.7975 -0.8270 -0.0514
   21MOL   H84719687   3.186   6.861   1.678  2.0588 -1.0077  0.9953
   21MOL   O84819688   3.252   6.197   1.460 -0.1023 -0.3320  0.3245
   21MOL   C84919689   3.377   6.185   1.401  0.2957  0.5326 -0.3148
   21MOL   C85019690   3.408   6.037   1.367  0.3213 -0.2074 -0.3160
   21MOL   C85119691   3.313   5.972   1.267 -0.1051 -0.1703 -0.9556
   21MOL   C85219692   3.303   5.825   1.274  0.5418  0.5491  0.7444
   21MOL   C85319693   3.226   5.770   1.160  0.1987 -0.6580 -0.6002
   21MOL   C85419694   3.195   5.620   1.171  0.2088 -0.4812  0.0175
   21MOL   C85519695   3.109   5.565   1.061  0.3009  0.2000  0.6392
   21MOL   C85619696   3.074   5.412   1.062  0.4816 -0.2621 -0.1620
   21MOL   C85719697   3.195   5.343   1.016 -0.4453 -0.2332 -0.9220
   21MOL   C85819698   3.183   5.190   1.016 -0.6275 -0.1451 -0.4800
   21MOL   O85919699   3.315   5.128   0.994  0.6650 -0.4194 -0.3463
   21MOL   C86019700   3.366   5.047   1.089  0.5401  0.0592  0.4975
   21MOL   O86119701   3.319   5.036   1.204 -0.3577  0.3333 -0.0805
   21MOL   C86219702   3.478   4.968   1.026  0.0471 -0.5536 -0.2689
   21MOL   C86319703   3.519   4.973   0.888  0.0865  0.5398  0.5712
   21MOL   C86419704   3.617   4.883   0.843  0.5352  0.4503 -0.3899
   21MOL   C86519705   3.673   4.784   0.926 -0.0944 -0.7435 -1.0760
   21MOL   C86619706   3.785   4.689   0.885  0.0244 -0.2021  0.2553
   21MOL   O86719707   3.854   4.618   0.963  0.1304 -0.1355  0.3248
   21MOL   O86819708   3.793   4.683   0.749  0.5083  0.0343  0.5571
   21MOL   C86919709   3.637   4.783   1.062  0.1844 -0.4596 -0.7926
   21MOL   C87019710   3.534   4.864   1.108  0.5372  0.2863 -0.0110
   21MOL   H87119711   3.387   6.256   1.318  0.8580 -0.5207 -1.1716
   21MOL   H87219712   3.446   6.218   1.478  1.2446  0.4003 -1.0900
   21MOL   H87319713   3.417   5.983   1.462  0.5168 -0.2549 -0.3620
   21MOL   H87419714   3.506   6.016   1.324  0.2542 -0.2471 -0.4470
   21MOL   H87519715   3.214   6.018   1.279  0.0779 -0.0080  0.0556
   21MOL   H87619716   3.346   6.001   1.168 -1.8077 -0.3914 -1.6110
   21MOL   H87719717   3.251   5.798   1.366 -0.8693 -3.7064 -1.1988
   21MOL   H87819718   3.400   5.775   1.280 -0.0114 -0.5043  0.8738
   21MOL   H87919719   3.128   5.818   1.149  0.0370 -0.5964  1.0174
   21MOL   H88019720   3.283   5.786   1.069  0.1314  0.3153 -0.4844
   21MOL   H88119721   3.288   5.563   1.177 -1.2951 -2.9750  0.4964
   21MOL   H88219722   3.155   5.603   1.271  1.1806  0.5989  0.6072
   21MOL   H88319723   3.023   5.632   1.048  1.5154  1.8713  1.0058
   21MOL   H88419724   3.154   5.592   0.966 -2.6083  0.7588 -0.6248
   21MOL   H88519725   3.052   5.397   1.168 -0.0975 -0.6199 -0.3340
   21MOL   H88619726   2.991   5.386   0.997  2.5588 -0.8885 -2.6343
   21MOL   H88719727   3.277   5.380   1.078  0.1051 -2.2119 -0.4259
   21MOL   H88819728   3.221   5.378   0.916  0.5327  0.2951 -0.4907
   21MOL   H88919729   3.115   5.151   0.941  0.7978 -0.1222 -1.8205
   21MOL   H89019730   3.131   5.155   1.105  0.1816 -1.0141 -0.3455
   21MOL   H89119731   3.476   5.044   0.819 -1.4273 -1.6564 -0.8315
   21MOL   H89219732   3.641   4.879   0.738  0.1040 -0.9322 -0.4421
   21MOL   H89319733   3.664   4.707   1.134  1.2941  1.3567  0.7559
   21MOL   H89419734   3.500   4.845   1.209 -0.4202  0.1933 -0.3469
   21MOL   O89519735   3.896   4.581   0.701 -0.6852  0.6183  0.0897
   21MOL   C89619736   3.836   4.463   0.656 -0.1299  0.1458  0.7028
   21MOL   C89719737   3.815   4.489   0.504  0.4845 -0.3462 -0.1798
   21MOL   C89819738   3.752   4.370   0.435  0.4430  0.5383  0.0549
   21MOL   C89919739   3.743   4.389   0.287  0.2463  0.3691 -0.1657
   21MOL   C90019740   3.875   4.357   0.216  0.2548 -0.9729  0.0849
   21MOL   C90119741   3.855   4.342   0.059 -0.3789  0.5414 -0.2934
   21MOL   C90219742   3.787   4.212   0.016 -0.6041  0.4310  0.4031
   21MOL   C90319743   3.797   4.184   7.852 -0.5625 -0.3769 -0.0064
   21MOL   C90419744   3.730   4.285   7.747 -0.2997  0.5991 -0.1778
   21MOL   C90519745   3.738   4.222   7.604  0.0763  0.6837  0.2674
   21MOL   O90619746   3.704   4.318   7.502  0.3760 -0.7375  0.2426
   21MOL   C90719747   3.576   4.343   7.473  0.2289  0.0893  0.1400
   21MOL   O90819748   3.478   4.274   7.513 -0.3956  0.8592  0.8459
   21MOL   C90919749   3.563   4.456   7.378 -0.1828 -0.2599 -0.2481
   21MOL   C91019750   3.671   4.526   7.324  0.5897  0.2995 -0.7069
   21MOL   C91119751   3.652   4.637   7.241 -0.0736  0.2817 -0.4885
   21MOL   C91219752   3.523   4.684   7.208  0.3410  0.2936 -0.3830
   21MOL   C91319753   3.508   4.803   7.119 -0.5256 -0.3238  0.5538
   21MOL   O91419754   3.398   4.855   7.094  0.3285  0.1794  0.4344
   21MOL   O91519755   3.624   4.859   7.069  0.4260  0.6260  0.2266
   21MOL   C91619756   3.414   4.605   7.251  0.0293  0.0988  0.0970
   21MOL   C91719757   3.434   4.496   7.333  0.2566  1.0983  0.0024
   21MOL   H91819758   3.904   4.383   0.683 -0.9831 -0.8414 -0.0319
   21MOL   H91919759   3.745   4.438   0.710 -1.8778 -1.2149 -2.7428
   21MOL   H92019760   3.912   4.501   0.456  1.1379 -0.0089  1.2051
   21MOL   H92119761   3.752   4.577   0.489 -1.6993 -1.5369  1.7452
   21MOL   H92219762   3.797   4.272   0.452 -3.6205 -1.1873  1.4554
   21MOL   H92319763   3.647   4.363   0.464  0.4214 -1.0576 -0.3354
   21MOL   H92419764   3.700   4.486   0.263 -0.4096 -0.8892 -4.5568
   21MOL   H92519765   3.671   4.312   0.258 -0.5048  1.2113 -0.5542
   21MOL   H92619766   3.945   4.438   0.239  0.9192 -1.4391 -0.3040
   21MOL   H92719767   3.920   4.266   0.255  2.3421  0.1237  0.2805
   21MOL   H92819768   3.798   4.428   0.023 -1.3603  0.4493  0.9822
   21MOL   H92919769   3.957   4.339   0.022 -0.0183  1.0028  0.6454
   21MOL   H93019770   3.824   4.142   0.090  1.9947  2.0843  0.7146
   21MOL   H93119771   3.682   4.226   0.042 -0.6351 -0.2368  0.6459
   21MOL   H93219772   3.905   4.179   7.836 -0.2632  0.4133  1.7408
   21MOL   H93319773   3.764   4.080   7.846 -0.4656 -0.4036 -0.0846
   21MOL   H93419774   3.752   4.391   7.750  2.1135  0.0606  2.7890
   21MOL   H93519775   3.626   4.296   7.778  0.4918  1.8444  2.1372
   21MOL   H93619776   3.685   4.128   7.593  0.6429  0.5641 -1.4622
   21MOL   H93719777   3.838   4.183   7.594 -0.3496 -0.5097  0.6288
   21MOL   H93819778   3.771   4.497   7.351 -1.0760 -3.1405  2.2929
   21MOL   H93919779   3.735   4.689   7.196 -0.7946  0.7347 -1.3002
   21MOL   H94019780   3.319   4.642   7.214 -0.0178 -0.9612 -0.8545
   21MOL   H94119781   3.352   4.442   7.378 -0.9076  0.9892 -2.1645
   21MOL   H94219782   3.616   4.952   7.054  0.3159  1.0330  2.6556
   22MOL     O119783   7.342   3.509   4.773  0.3960 -0.4033  0.2975
   22MOL     C219784   7.275   3.626   4.736  0.1387  0.0507  0.5755
   22MOL     C319785   7.373   3.735   4.762 -0.0605  0.3160 -0.5511
   22MOL     C419786   7.315   3.881   4.763 -0.4096  1.0736  0.4136
   22MOL     C519787   7.261   3.924   4.623  0.5637  0.5549 -0.3141
   22MOL     C619788   7.180   4.054   4.619  0.0924 -0.3793 -0.1902
   22MOL     C719789   7.257   4.187   4.629  0.0069 -0.2199 -0.3057
   22MOL     C819790   7.156   4.307   4.635 -0.8529 -0.2960  0.0161
   22MOL     C919791   7.202   4.441   4.690  1.0290  0.1932  0.1245
   22MOL    C1019792   7.084   4.539   4.720 -0.0615 -0.1860  0.0746
   22MOL    C1119793   7.133   4.646   4.820 -0.5889  1.1712  0.8112
   22MOL    O1219794   7.227   4.729   4.762 -0.3314  0.0462 -0.0253
   22MOL    C1319795   7.241   4.846   4.804 -0.0291  0.0185 -0.6173
   22MOL    O1419796   7.182   4.897   4.903 -0.0964  0.2289  0.0796
   22MOL    C1519797   7.351   4.916   4.742  0.5344  0.7967  0.2930
   22MOL    C1619798   7.447   4.843   4.678  0.2193 -0.3784 -0.3543
   22MOL    C1719799   7.554   4.911   4.608 -0.2122 -0.2070  0.0311
   22MOL    C1819800   7.581   5.052   4.624  0.1867 -0.2733  0.9948
   22MOL    C1919801   7.708   5.112   4.574  0.4556  0.3439 -0.0207
   22MOL    O2019802   7.766   5.206   4.627  0.7829  0.5355 -0.2040
   22MOL    O2119803   7.750   5.043   4.469  0.1966  0.2824 -0.1234
   22MOL    C2219804   7.485   5.124   4.704 -0.0820  0.0761 -0.3263
   22MOL    C2319805   7.374   5.060   4.754 -0.4003  0.1718  0.3546
   22MOL    H2419806   7.241   3.610   4.634  0.2968 -2.8823  0.9436
   22MOL    H2519807   7.188   3.625   4.802 -1.3363  1.2831 -1.3049
   22MOL    H2619808   7.456   3.725   4.693 -0.8502 -1.5432 -1.2676
   22MOL    H2719809   7.423   3.721   4.857 -2.0063 -1.8370  0.1991
   22MOL    H2819810   7.235   3.898   4.835  0.9730  0.8479  2.0303
   22MOL    H2919811   7.396   3.948   4.789 -0.4587  0.1857  2.9296
   22MOL    H3019812   7.176   3.860   4.602  0.1964  1.6365 -2.1828
   22MOL    H3119813   7.349   3.920   4.559  0.4605 -0.1774 -0.4131
   22MOL    H3219814   7.108   4.063   4.536 -1.5400 -0.4465  1.1871
   22MOL    H3319815   7.104   4.053   4.698 -1.8609 -1.2812 -2.0006
   22MOL    H3419816   7.321   4.187   4.718 -0.3933 -1.4123 -0.0027
   22MOL    H3519817   7.322   4.192   4.542 -0.1160 -1.2676 -0.4685
   22MOL    H3619818   7.118   4.330   4.536  1.5835  1.4692 -0.5528
   22MOL    H3719819   7.064   4.267   4.678 -1.6993  0.1127 -1.4001
   22MOL    H3819820   7.253   4.406   4.780 -1.7286 -1.3773  1.1406
   22MOL    H3919821   7.285   4.488   4.637  0.6192  0.7614 -0.0046
   22MOL    H4019822   6.990   4.491   4.748 -1.1911  0.2382 -2.8225
   22MOL    H4119823   7.049   4.593   4.632 -0.9652 -1.8675 -0.6190
   22MOL    H4219824   7.160   4.618   4.922  0.6068 -0.1491  0.1466
   22MOL    H4319825   7.039   4.699   4.837 -1.3698  0.1678 -0.3191
   22MOL    H4419826   7.440   4.737   4.662 -0.4863 -0.3140 -0.4634
   22MOL    H4519827   7.625   4.851   4.553 -1.1457 -0.9989 -0.3088
   22MOL    H4619828   7.502   5.230   4.717  0.2888  0.0576 -0.6680
   22MOL    H4719829   7.304   5.122   4.808 -2.3625 -1.3074 -0.4174
   22MOL    H4819830   7.357   3.512   4.866 -2.5748 -1.2338  0.8550
   22MOL    O4919831   7.887   5.094   4.420  0.0492  0.1744  0.0096
   22MOL    C5019832   0.008   5.014   4.490 -1.1643  0.5508 -0.0269
   22MOL    C5119833   0.147   5.026   4.410  0.6059  0.2411 -0.0933
   22MOL    C5219834   0.206   5.164   4.417 -0.1049  0.0820 -0.0709
   22MOL    C5319835   0.355   5.163   4.374  0.6265 -0.9561 -0.0685
   22MOL    C5419836   0.409   5.308   4.342  0.4260 -0.3632 -0.2321
   22MOL    C5519837   0.561   5.337   4.316 -0.4830 -0.2124  0.1610
   22MOL    C5619838   0.644   5.268   4.424 -0.0270 -0.5478 -0.7920
   22MOL    C5719839   0.796   5.286   4.417  0.0797  0.9836  0.7079
   22MOL    C5819840   0.844   5.426   4.448  0.3105  0.6009  0.2768
   22MOL    C5919841   0.991   5.456   4.403 -0.4799  0.3323  0.2361
   22MOL    O6019842   1.082   5.367   4.465 -0.1124 -0.9797 -0.3412
   22MOL    C6119843   1.207   5.372   4.428 -0.0992 -0.0098 -0.4514
   22MOL    O6219844   1.254   5.458   4.350  0.2079  0.6325 -0.4766
   22MOL    C6319845   1.295   5.268   4.491 -0.0510 -0.7848 -0.3409
   22MOL    C6419846   1.229   5.158   4.551 -0.4269 -0.2013 -0.0083
   22MOL    C6519847   1.309   5.075   4.641  0.6568  0.2234 -0.4567
   22MOL    C6619848   1.448   5.092   4.651 -0.0507 -0.2730 -0.4374
   22MOL    C6719849   1.535   4.993   4.729 -0.1115 -0.8315  0.8476
   22MOL    O6819850   1.662   5.010   4.742  0.3002  0.0394  0.0296
   22MOL    O6919851   1.464   4.889   4.784 -0.3082  0.0237  0.0564
   22MOL    C7019852   1.511   5.196   4.577  0.0123 -0.0942 -0.7702
   22MOL    C7119853   1.434   5.292   4.503 -0.3332 -0.2809  0.0848
   22MOL    H7219854   0.028   5.054   4.589 -1.1683 -0.1039  0.2422
   22MOL    H7319855   7.957   4.910   4.507  1.4905 -0.2180  0.0068
   22MOL    H7419856   0.143   4.979   4.312  1.0680 -1.2731  0.6090
   22MOL    H7519857   0.225   4.969   4.458  0.1515  0.1692  0.5600
   22MOL    H7619858   0.150   5.233   4.355 -1.2788 -0.3773  0.4489
   22MOL    H7719859   0.189   5.194   4.521 -1.0079  1.1013 -0.5129
   22MOL    H7819860   0.363   5.100   4.285 -1.5611  0.8986 -1.6556
   22MOL    H7919861   0.412   5.113   4.452  1.0473 -1.7240 -0.8559
   22MOL    H8019862   0.366   5.342   4.247  0.8059 -0.9188 -0.6091
   22MOL    H8119863   0.381   5.378   4.421  0.5180 -1.8840  1.1706
   22MOL    H8219864   0.602   5.301   4.222  1.2413 -0.8023  1.1111
   22MOL    H8319865   0.585   5.442   4.329  0.5009 -0.6069  1.6093
   22MOL    H8419866   0.604   5.302   4.519  0.4782 -0.7117 -0.5213
   22MOL    H8519867   0.628   5.160   4.417  1.6212 -1.2458  4.2552
   22MOL    H8619868   0.857   5.219   4.479 -0.2908  0.6741  0.7394
   22MOL    H8719869   0.832   5.256   4.319 -0.6932  1.2251  0.3520
   22MOL    H8819870   0.831   5.439   4.555 -1.7861 -1.2864  0.2665
   22MOL    H8919871   0.774   5.497   4.405  1.0838  0.8022 -0.6850
   22MOL    H9019872   1.026   5.558   4.417 -0.4759  0.0012  2.9835
   22MOL    H9119873   0.991   5.428   4.298  0.5478 -1.8276  0.7835
   22MOL    H9219874   1.121   5.152   4.541 -0.3164  0.0735 -1.5129
   22MOL    H9319875   1.265   4.988   4.689  3.1032 -0.3124  0.8932
   22MOL    H9419876   1.617   5.218   4.586  0.1224 -1.7193  2.5896
   22MOL    H9519877   1.471   5.384   4.462  0.6063 -0.6786  0.0388
   22MOL    O9619878   1.543   4.762   4.822  0.0660  0.1041 -0.1705
   22MOL    C9719879   1.585   4.761   4.955 -0.0043  0.6113 -0.3543
   22MOL    C9819880   1.469   4.764   5.059  0.4923  0.5128 -0.0506
   22MOL    C9919881   1.515   4.745   5.207  0.0919  0.5725  0.0734
   22MOL   C10019882   1.418   4.774   5.321  0.8475  0.0822  0.2337
   22MOL   C10119883   1.458   4.713   5.458 -0.7288  0.2004 -0.5413
   22MOL   C10219884   1.591   4.782   5.510  0.1783 -0.0462  0.2574
   22MOL   C10319885   1.619   4.747   5.662 -0.0954 -0.6571 -0.9005
   22MOL   C10419886   1.727   4.833   5.724  0.4184 -0.1098 -0.1922
   22MOL   C10519887   1.737   4.809   5.877 -0.5173 -0.6012  0.5280
   22MOL   C10619888   1.843   4.894   5.940 -0.8457  0.2881 -0.0717
   22MOL   O10719889   1.840   4.874   6.074 -0.5952  0.4677  0.1954
   22MOL   C10819890   1.919   4.943   6.162 -0.0860  0.3167  0.1819
   22MOL   O10919891   2.000   5.027   6.132 -0.0136  1.0562  0.0656
   22MOL   C11019892   1.895   4.897   6.297  0.2639 -0.6482  0.0744
   22MOL   C11119893   1.793   4.799   6.328 -0.6052  0.4729 -0.4121
   22MOL   C11219894   1.782   4.748   6.465 -0.1602 -0.3867 -0.1793
   22MOL   C11319895   1.880   4.777   6.562 -0.1588  0.1548 -1.0313
   22MOL   C11419896   1.883   4.717   6.699 -0.0955  0.3331 -0.4800
   22MOL   O11519897   1.953   4.751   6.792  0.1305  0.8558 -0.0290
   22MOL   O11619898   1.772   4.639   6.710 -0.4401 -0.5406 -0.0685
   22MOL   C11719899   1.974   4.883   6.535  0.2000 -0.0103  0.8776
   22MOL   C11819900   1.972   4.945   6.407 -0.1501  0.4034  0.2625
   22MOL   H11919901   1.643   4.674   4.982 -1.3191 -0.1328  0.1350
   22MOL   H12019902   1.642   4.852   4.974 -0.6511  1.6449 -3.1206
   22MOL   H12119903   1.404   4.681   5.031  1.0428 -1.1593  3.3477
   22MOL   H12219904   1.413   4.857   5.048  0.7453  0.5248 -1.3414
   22MOL   H12319905   1.546   4.643   5.231  1.5220  0.7852 -0.7870
   22MOL   H12419906   1.604   4.806   5.222 -1.3673  3.6315 -2.9642
   22MOL   H12519907   1.321   4.733   5.292  1.0241 -0.8147  0.8791
   22MOL   H12619908   1.395   4.880   5.337 -0.4700 -0.3875  1.6687
   22MOL   H12719909   1.397   4.744   5.543  1.1720 -0.1569  0.9963
   22MOL   H12819910   1.476   4.606   5.452  1.6530  0.5556 -0.4893
   22MOL   H12919911   1.673   4.756   5.442 -0.4526  0.9125 -0.8794
   22MOL   H13019912   1.564   4.886   5.497  0.6319 -0.3503 -3.9629
   22MOL   H13119913   1.529   4.756   5.723  1.3045 -0.0193  1.1172
   22MOL   H13219914   1.648   4.642   5.672 -0.4347 -0.8697 -2.0114
   22MOL   H13319915   1.826   4.824   5.678  0.8978 -0.9299  0.9777
   22MOL   H13419916   1.695   4.937   5.712 -2.9838 -1.2342 -1.2475
   22MOL   H13519917   1.760   4.703   5.892 -1.1503 -0.4915  2.3488
   22MOL   H13619918   1.644   4.831   5.930  0.3276  0.0438  1.7677
   22MOL   H13719919   1.824   5.001   5.934 -1.0835  0.2109 -0.7685
   22MOL   H13819920   1.943   4.876   5.901 -0.3696  0.9005  0.8647
   22MOL   H13919921   1.724   4.766   6.251 -1.2766  0.4658  0.1846
   22MOL   H14019922   1.697   4.685   6.484  0.1191 -0.3987  1.0325
   22MOL   H14119923   2.044   4.913   6.611  0.6222 -0.4986  0.6862
   22MOL   H14219924   2.052   5.015   6.385 -0.9049  2.3558  3.4708
   22MOL   O14319925   1.757   4.580   6.842  0.2032 -0.2028 -0.1217
   22MOL   C14419926   1.834   4.457   6.846  0.7594  0.3388  0.6734
   22MOL   C14519927   1.821   4.393   6.985  0.3486  0.4513  0.1187
   22MOL   C14619928   1.878   4.248   6.997 -0.1292  0.1671  0.3097
   22MOL   C14719929   1.882   4.177   7.130  0.1415  0.4842 -0.7377
   22MOL   C14819930   1.996   4.213   7.224  0.6404  0.2701  0.2273
   22MOL   C14919931   2.021   4.136   7.353 -0.6149  0.3715  0.3588
   22MOL   C15019932   2.136   4.202   7.435 -0.0565 -0.0323 -0.4445
   22MOL   C15119933   2.202   4.113   7.545 -0.1519  0.0906  1.4576
   22MOL   C15219934   2.290   4.208   7.633  0.4843  0.6208  0.1323
   22MOL   C15319935   2.439   4.215   7.590  0.8667 -0.2864  1.0259
   22MOL   O15419936   2.437   4.260   7.455  0.1233 -0.1753 -0.0201
   22MOL   C15519937   2.550   4.265   7.376 -0.2425 -0.6712 -0.5178
   22MOL   O15619938   2.661   4.251   7.430  0.0180  0.0009  0.0176
   22MOL   C15719939   2.526   4.287   7.233 -0.0759  0.3137 -0.3670
   22MOL   C15819940   2.400   4.345   7.191  0.0743 -0.6805  0.0803
   22MOL   C15919941   2.371   4.366   7.058 -0.1949 -0.2749 -0.1828
   22MOL   C16019942   2.467   4.324   6.961 -0.1885 -0.7509  0.5773
   22MOL   C16119943   2.449   4.354   6.812 -0.3806  0.0219 -0.2113
   22MOL   O16219944   2.546   4.348   6.736  0.1927  0.2181 -0.3671
   22MOL   O16319945   2.330   4.369   6.771 -0.2874 -0.4345  0.2838
   22MOL   C16419946   2.594   4.272   7.003 -0.3197  0.2526  0.4118
   22MOL   C16519947   2.625   4.255   7.137 -0.3555 -0.2517 -0.3986
   22MOL   H16619948   1.821   4.391   6.760  1.9086  1.5626 -0.4775
   22MOL   H16719949   1.941   4.474   6.831  0.4527  0.6724 -1.3092
   22MOL   H16819950   1.714   4.376   7.000  0.2732 -2.7292 -3.2196
   22MOL   H16919951   1.854   4.456   7.068 -1.0678  0.5422  0.6347
   22MOL   H17019952   1.821   4.188   6.925  0.9280  0.1030 -0.4807
   22MOL   H17119953   1.978   4.249   6.954  0.5968 -1.7992  1.9025
   22MOL   H17219954   1.886   4.069   7.112  0.4464  0.5187 -0.8881
   22MOL   H17319955   1.786   4.202   7.174  0.2942 -2.3146  1.3627
   22MOL   H17419956   2.093   4.222   7.175  0.4010 -0.7574 -0.4686
   22MOL   H17519957   1.976   4.317   7.247 -0.4972 -0.0669  0.7839
   22MOL   H17619958   1.938   4.105   7.418  0.0137 -1.4155  0.3426
   22MOL   H17719959   2.059   4.036   7.330  0.3333  0.9539 -0.6687
   22MOL   H17819960   2.209   4.217   7.355  0.6462 -1.6827 -0.1374
   22MOL   H17919961   2.096   4.301   7.458 -1.8745 -0.9728  0.5553
   22MOL   H18019962   2.119   4.077   7.606 -1.5674  0.8353  0.0084
   22MOL   H18119963   2.241   4.022   7.500  0.6167  1.7005 -1.2918
   22MOL   H18219964   2.285   4.160   7.731 -0.1420 -1.7616 -1.0207
   22MOL   H18319965   2.247   4.308   7.636 -0.6240  0.1148  1.5260
   22MOL   H18419966   2.485   4.116   7.592  1.4069 -0.1567 -1.9137
   22MOL   H18519967   2.488   4.282   7.660  2.1674  1.5267 -1.5189
   22MOL   H18619968   2.331   4.372   7.269 -1.7617 -0.1915 -1.6820
   22MOL   H18719969   2.285   4.423   7.027  0.1421  1.0824  1.3138
   22MOL   H18819970   2.665   4.247   6.925  0.9121  0.9573  1.2943
   22MOL   H18919971   2.714   4.208   7.176  0.6422  0.1289 -2.1766
   22MOL   O19019972   2.321   4.376   6.620  0.8151 -0.1405 -0.5537
   22MOL   C19119973   2.298   4.513   6.589 -0.3115  0.5179 -0.1027
   22MOL   C19219974   2.231   4.507   6.444  0.8074 -1.3490 -0.6844
   22MOL   C19319975   2.080   4.475   6.455 -0.1667 -0.1825 -0.6826
   22MOL   C19419976   2.015   4.511   6.315 -0.2395 -0.4950 -0.5572
   22MOL   C19519977   1.876   4.455   6.281 -0.0289 -0.0412  0.0170
   22MOL   C19619978   1.833   4.484   6.140 -0.1632 -0.1918  0.0850
   22MOL   C19719979   1.706   4.416   6.094 -0.1679  0.3255  0.3026
   22MOL   C19819980   1.671   4.422   5.938 -0.2249  0.1409  0.2324
   22MOL   C19919981   1.786   4.388   5.839 -1.2719  0.4396  0.3476
   22MOL   C20019982   1.795   4.236   5.797 -0.2581  0.0098 -0.6838
   22MOL   O20119983   1.852   4.167   5.907  0.7042  0.9339 -0.6835
   22MOL   C20219984   1.789   4.054   5.952  0.1149  0.5527 -0.3364
   22MOL   O20319985   1.694   3.994   5.890  0.6104 -0.1693  0.4859
   22MOL   C20419986   1.851   4.011   6.085  0.0478 -1.1115 -0.3413
   22MOL   C20519987   1.936   4.103   6.146  0.2250 -0.7601 -0.9431
   22MOL   C20619988   1.962   4.069   6.281 -0.0792 -0.3293 -0.6321
   22MOL   C20719989   1.925   3.944   6.342 -0.1341 -0.4060  0.3607
   22MOL   C20819990   1.963   3.922   6.482 -0.2621  0.5209  0.4573
   22MOL   O20919991   1.980   3.814   6.535  0.0544 -0.4980 -0.3407
   22MOL   O21019992   1.977   4.041   6.553  0.5170 -0.4594 -0.0892
   22MOL   C21119993   1.840   3.852   6.269  0.7743 -0.2643  0.1042
   22MOL   C21219994   1.798   3.891   6.139  0.0142  0.5062 -0.3438
   22MOL   H21319995   2.225   4.546   6.663 -0.6748 -0.1157 -0.1748
   22MOL   H21419996   2.387   4.576   6.586  0.6220 -0.7709 -0.4213
   22MOL   H21519997   2.283   4.434   6.381  2.8050  1.6821 -2.6556
   22MOL   H21619998   2.258   4.603   6.401 -0.9767 -0.8438 -0.7299
   22MOL   H21719999   2.064   4.371   6.485 -0.2672  0.0918  0.2280
   22MOL   H21820000   2.033   4.526   6.538 -1.9153  0.2030 -1.8919
   22MOL   H21920001   2.087   4.471   6.243  0.4065  0.7478 -0.6233
   22MOL   H22020002   2.018   4.618   6.292  1.9283 -0.3775  0.1449
   22MOL   H22120003   1.873   4.347   6.300  0.1496  0.2503  1.7749
   22MOL   H22220004   1.804   4.486   6.357 -0.6396 -0.4374 -0.3896
   22MOL   H22320005   1.809   4.591   6.143 -0.7671 -0.3541  1.2286
   22MOL   H22420006   1.912   4.463   6.068  0.1607  1.1967  0.0061
   22MOL   H22520007   1.732   4.312   6.114 -1.1713  0.6116  3.2681
   22MOL   H22620008   1.620   4.450   6.152 -0.3484 -0.1059  0.2950
   22MOL   H22720009   1.583   4.362   5.915 -0.2385  0.9333 -1.9631
   22MOL   H22820010   1.648   4.525   5.911  0.5088  0.4275  0.6877
   22MOL   H22920011   1.883   4.422   5.875 -0.5521  0.3934 -1.5042
   22MOL   H23020012   1.766   4.443   5.746  1.5802  1.4445  0.2687
   22MOL   H23120013   1.855   4.225   5.706  1.4606 -1.0025  0.5388
   22MOL   H23220014   1.695   4.201   5.772  0.3566 -0.7589 -2.1115
   22MOL   H23320015   1.963   4.194   6.096  0.4118  0.0409  0.5663
   22MOL   H23420016   2.022   4.141   6.335 -1.0953 -0.3245  0.5184
   22MOL   H23520017   1.803   3.763   6.317 -2.4992  1.1070  0.2793
   22MOL   H23620018   1.733   3.830   6.079  1.7966  0.6592 -2.4715
   22MOL   O23720019   1.981   4.031   6.703 -0.5203 -0.7775  0.1684
   22MOL   C23820020   2.117   4.017   6.737 -0.1752  0.1713 -0.2765
   22MOL   C23920021   2.132   3.987   6.887 -0.2480 -0.1982  0.0601
   22MOL   C24020022   2.279   3.956   6.930  0.6116  1.7430  1.2292
   22MOL   C24120023   2.294   3.987   7.075 -0.2572  0.4390  0.2550
   22MOL   C24220024   2.257   3.869   7.162 -0.6231 -0.0865  0.1066
   22MOL   C24320025   2.363   3.750   7.152 -0.4523  0.3856 -0.2506
   22MOL   C24420026   2.384   3.669   7.282  0.1687  0.3117 -0.9539
   22MOL   C24520027   2.255   3.599   7.323  0.0913 -0.5764 -0.0180
   22MOL   C24620028   2.219   3.472   7.231 -0.1120 -0.1777  0.0323
   22MOL   C24720029   2.315   3.357   7.266  0.0225  0.2668 -0.3337
   22MOL   O24820030   2.314   3.255   7.177  0.0140 -0.4408  0.1514
   22MOL   C24920031   2.232   3.148   7.198  0.4510 -0.0666 -0.2722
   22MOL   O25020032   2.160   3.134   7.297 -0.2605 -0.3345 -0.0288
   22MOL   C25120033   2.246   3.041   7.094  1.1612  0.5216  0.1370
   22MOL   C25220034   2.320   3.059   6.978  0.0786 -0.6197 -0.3009
   22MOL   C25320035   2.330   2.963   6.877  0.7077 -0.0801  0.7739
   22MOL   C25420036   2.263   2.834   6.904  0.3619  0.0666  1.1466
   22MOL   C25520037   2.254   2.726   6.811 -0.2266  0.1813 -0.1680
   22MOL   O25620038   2.193   2.616   6.830  0.4254 -0.5041 -0.0297
   22MOL   O25720039   2.311   2.768   6.695 -0.1605  0.4208  0.0723
   22MOL   C25820040   2.186   2.817   7.018  0.4723  1.1047 -0.1383
   22MOL   C25920041   2.176   2.920   7.107 -0.5382 -0.0657  0.8225
   22MOL   H26020042   2.171   3.949   6.670  2.8611  1.7592  0.4723
   22MOL   H26120043   2.169   4.109   6.710 -0.2702  0.3708  0.2152
   22MOL   H26220044   2.070   3.903   6.919  2.1881 -1.3556  1.9395
   22MOL   H26320045   2.084   4.072   6.935 -0.6051  0.7929 -2.0184
   22MOL   H26420046   2.297   3.855   6.892 -1.3303  1.8138  0.0726
   22MOL   H26520047   2.345   4.024   6.876 -1.1116  0.9346 -2.0083
   22MOL   H26620048   2.246   4.082   7.099  0.0306  0.3819  1.0634
   22MOL   H26720049   2.399   4.005   7.099 -0.7221 -0.5470  3.0910
   22MOL   H26820050   2.269   3.906   7.264  0.2291  1.3826 -0.5038
   22MOL   H26920051   2.160   3.822   7.151 -0.0896 -0.9963 -0.8112
   22MOL   H27020052   2.345   3.675   7.076 -0.4393  1.3539 -1.2163
   22MOL   H27120053   2.459   3.793   7.124  0.1537 -0.3189  0.6913
   22MOL   H27220054   2.466   3.598   7.273 -0.2667 -0.5179  1.2467
   22MOL   H27320055   2.407   3.738   7.363 -2.2441 -0.5016  0.4694
   22MOL   H27420056   2.270   3.565   7.426  0.0510 -0.5861 -0.0156
   22MOL   H27520057   2.166   3.662   7.324  0.7428  0.3887 -1.5201
   22MOL   H27620058   2.224   3.497   7.125  0.6345  0.6409  0.2552
   22MOL   H27720059   2.123   3.425   7.255 -0.1339  1.3045  3.1645
   22MOL   H27820060   2.292   3.320   7.365 -2.7413  2.1195 -0.2271
   22MOL   H27920061   2.421   3.381   7.261  0.4219 -1.4259 -0.2714
   22MOL   H28020062   2.369   3.153   6.957 -3.3346  0.7488 -2.8268
   22MOL   H28120063   2.384   2.985   6.787  0.9065  3.4037  1.6517
   22MOL   H28220064   2.131   2.725   7.033  3.7598 -1.1153 -0.9575
   22MOL   H28320065   2.105   2.895   7.186 -3.5454  1.3452 -1.3439
   22MOL   O28420066   2.277   2.694   6.570  0.1260  0.0989  0.1789
   22MOL   C28520067   2.389   2.619   6.524 -0.1539 -0.3534 -0.3721
   22MOL   C28620068   2.495   2.690   6.445  0.6086  0.0168 -1.3098
   22MOL   C28720069   2.640   2.629   6.467  0.4205 -0.0450 -0.3018
   22MOL   C28820070   2.745   2.672   6.364  0.0113 -0.2901  0.2822
   22MOL   C28920071   2.880   2.592   6.383 -0.1754 -0.7817 -0.1815
   22MOL   C29020072   2.895   2.454   6.315 -0.0939 -0.6787  0.1635
   22MOL   C29120073   2.811   2.344   6.395  0.3669 -0.9479  0.4288
   22MOL   C29220074   2.881   2.206   6.376 -0.4700 -0.3351  0.3463
   22MOL   C29320075   2.868   2.158   6.231  0.0214 -0.3217 -0.1816
   22MOL   C29420076   2.724   2.140   6.171  0.6630 -0.4972  0.3567
   22MOL   O29520077   2.670   2.264   6.115 -0.7908  0.2428  0.2293
   22MOL   C29620078   2.717   2.317   6.005 -0.0236 -0.6708 -0.0271
   22MOL   O29720079   2.793   2.253   5.927 -0.2473 -0.3016 -0.4209
   22MOL   C29820080   2.648   2.448   5.970 -0.2311 -0.6252  0.6221
   22MOL   C29920081   2.649   2.487   5.834 -1.1829 -0.1683 -0.5492
   22MOL   C30020082   2.579   2.600   5.802  0.0567  0.3318 -0.2679
   22MOL   C30120083   2.511   2.680   5.894  0.5726  0.2204  0.2697
   22MOL   C30220084   2.438   2.799   5.841  0.0800  0.6376  0.0379
   22MOL   O30320085   2.381   2.881   5.913 -0.0496  0.6640  0.7091
   22MOL   O30420086   2.441   2.808   5.707 -0.2788 -0.1419  0.1264
   22MOL   C30520087   2.515   2.639   6.029  0.1811 -0.2852  0.3551
   22MOL   C30620088   2.582   2.526   6.065 -0.7613 -0.5256 -0.2307
   22MOL   H30720089   2.435   2.579   6.614  0.4783  0.1548 -0.4710
   22MOL   H30820090   2.355   2.534   6.465  1.0548 -1.7361  0.8710
   22MOL   H30920091   2.491   2.790   6.489 -0.4522  0.9276 -3.4259
   22MOL   H31020092   2.477   2.704   6.339 -3.9371  3.0026 -0.2654
   22MOL   H31120093   2.683   2.665   6.561 -0.1642  0.3950 -0.2003
   22MOL   H31220094   2.622   2.522   6.481  0.1973  0.0249 -0.0383
   22MOL   H31320095   2.755   2.780   6.372 -3.1563  0.0687  0.0192
   22MOL   H31420096   2.712   2.659   6.261 -0.3305  3.0048 -0.0691
   22MOL   H31520097   2.947   2.658   6.329  0.7852 -1.8123 -0.2633
   22MOL   H31620098   2.902   2.582   6.490  0.7991  0.0032 -0.2989
   22MOL   H31720099   2.871   2.460   6.209  0.2486  2.5098  0.2164
   22MOL   H31820100   3.000   2.425   6.323  0.3863  0.9042 -0.1432
   22MOL   H31920101   2.815   2.364   6.502  0.1352 -0.1967  0.3003
   22MOL   H32020102   2.706   2.346   6.368 -0.2570 -2.1204  2.6806
   22MOL   H32120103   2.987   2.218   6.400  0.2093 -1.1990 -2.0543
   22MOL   H32220104   2.836   2.144   6.453 -0.2189 -1.4703 -0.4052
   22MOL   H32320105   2.928   2.067   6.232  1.2980  0.4849  2.0056
   22MOL   H32420106   2.929   2.226   6.171 -0.4710  1.6045  1.4656
   22MOL   H32520107   2.655   2.095   6.242 -1.7383 -1.7743 -2.7229
   22MOL   H32620108   2.724   2.076   6.083  0.1880  0.7231 -0.5385
   22MOL   H32720109   2.697   2.426   5.760 -0.8410 -2.3204  1.3919
   22MOL   H32820110   2.588   2.634   5.700  0.7917  0.5482 -0.1366
   22MOL   H32920111   2.460   2.695   6.103 -0.9312 -1.4233  0.4266
   22MOL   H33020112   2.573   2.496   6.168  0.1346 -2.1054 -0.6068
   22MOL   O33120113   2.371   2.932   5.664 -0.4159  0.4227 -0.5013
   22MOL   C33220114   2.471   3.026   5.633  0.4068 -0.1664 -0.7042
   22MOL   C33320115   2.407   3.140   5.567  0.1640  0.0701 -0.1541
   22MOL   C33420116   2.327   3.236   5.660 -0.2395 -0.0752  0.0690
   22MOL   C33520117   2.240   3.347   5.585 -0.1465 -0.4303 -0.4367
   22MOL   C33620118   2.122   3.388   5.670  0.1077 -0.1148 -0.3702
   22MOL   C33720119   2.035   3.491   5.598 -0.4401  0.0159  0.2794
   22MOL   C33820120   1.896   3.511   5.659  0.1288 -0.1433 -0.3100
   22MOL   C33920121   1.808   3.616   5.594 -0.0888  0.0463  0.2819
   22MOL   C34020122   1.874   3.752   5.611  0.0600 -0.4359  0.1600
   22MOL   C34120123   1.794   3.881   5.570  0.3226  0.1335 -0.4740
   22MOL   O34220124   1.807   3.883   5.426 -0.3680  0.3409 -0.2720
   22MOL   C34320125   1.776   3.990   5.350  0.1068  0.3149  0.1222
   22MOL   O34420126   1.718   4.091   5.401 -0.2503  0.3657 -0.3531
   22MOL   C34520127   1.807   3.972   5.206 -0.3839  0.0573  0.4187
   22MOL   C34620128   1.844   3.845   5.153 -0.3353  0.1893 -0.3165
   22MOL   C34720129   1.867   3.836   5.011  0.6057 -0.3858 -0.0372
   22MOL   C34820130   1.850   3.948   4.924  0.6641 -0.8715  0.3633
   22MOL   C34920131   1.869   3.936   4.774 -0.6443 -0.5029  0.0628
   22MOL   O35020132   1.867   3.828   4.711 -0.0177  0.7458 -0.0695
   22MOL   O35120133   1.903   4.055   4.714  0.2158 -0.0613  0.0708
   22MOL   C35220134   1.800   4.068   4.980 -0.8541 -0.2652  0.0761
   22MOL   C35320135   1.796   4.080   5.117 -0.8986 -0.7911 -0.2907
   22MOL   H35420136   2.520   3.065   5.722 -0.0589 -1.1207 -0.0291
   22MOL   H35520137   2.547   2.981   5.568  1.1090  2.0763 -1.4921
   22MOL   H35620138   2.343   3.091   5.494  0.2402  0.0861 -0.2316
   22MOL   H35720139   2.481   3.203   5.517  2.4353  0.1972  3.1919
   22MOL   H35820140   2.258   3.170   5.712 -1.3579  1.3010  0.3749
   22MOL   H35920141   2.395   3.278   5.733 -0.2343 -1.5835  0.9553
   22MOL   H36020142   2.208   3.317   5.485 -1.4170  0.7782 -0.3964
   22MOL   H36120143   2.303   3.436   5.579 -0.1846 -0.2694  1.2460
   22MOL   H36220144   2.064   3.301   5.697 -0.2350  0.5284  1.0297
   22MOL   H36320145   2.160   3.433   5.762  1.2984 -0.0938 -0.8586
   22MOL   H36420146   2.086   3.585   5.620 -0.4416 -0.1429  0.9898
   22MOL   H36520147   2.020   3.475   5.492 -1.3310 -1.2858  0.5964
   22MOL   H36620148   1.846   3.414   5.658 -0.1592  0.0035  0.1040
   22MOL   H36720149   1.908   3.530   5.766 -0.2028  1.4168 -0.5432
   22MOL   H36820150   1.796   3.601   5.487  0.7640 -1.3724  0.3678
   22MOL   H36920151   1.714   3.612   5.650 -0.2632 -1.3057 -0.0674
   22MOL   H37020152   1.978   3.766   5.582  0.0286  0.7049  0.6056
   22MOL   H37120153   1.890   3.762   5.718  0.5656  0.4583 -0.0004
   22MOL   H37220154   1.850   3.968   5.606 -0.7061  2.0048 -3.2146
   22MOL   H37320155   1.692   3.896   5.607  0.2371 -2.4909  0.4125
   22MOL   H37420156   1.857   3.754   5.210 -2.4299 -0.1375 -0.2976
   22MOL   H37520157   1.906   3.740   4.979 -1.3796 -1.3332  0.3068
   22MOL   H37620158   1.783   4.156   4.919  0.8291  0.9298  1.2877
   22MOL   H37720159   1.758   4.172   5.157  1.3782 -0.2058  0.6050
   22MOL   O37820160   1.910   4.045   4.564  0.1361 -0.0307 -0.0741
   22MOL   C37920161   1.798   4.104   4.517 -0.1694  0.0097 -0.2424
   22MOL   C38020162   1.772   4.245   4.557  0.0949 -0.1045 -0.3560
   22MOL   C38120163   1.867   4.343   4.501  0.6272 -0.2231  0.0310
   22MOL   C38220164   1.824   4.481   4.551  0.6021 -0.4037  0.2612
   22MOL   C38320165   1.930   4.588   4.536 -0.5159 -0.0307  0.5518
   22MOL   C38420166   1.919   4.705   4.629  0.7056  0.3209 -0.2013
   22MOL   C38520167   2.029   4.806   4.602  0.3848 -0.1228 -0.0003
   22MOL   C38620168   1.999   4.931   4.690  0.2673 -0.0559  0.0813
   22MOL   C38720169   2.016   4.902   4.835 -0.6587 -0.2434  0.5720
   22MOL   C38820170   1.972   5.029   4.914  0.3170 -0.7252 -0.1496
   22MOL   O38920171   2.021   5.023   5.044 -0.1993 -0.1244  0.5984
   22MOL   C39020172   1.966   4.950   5.143 -0.0084 -0.3506 -0.0807
   22MOL   O39120173   1.869   4.878   5.128  0.1368 -0.2273 -0.0725
   22MOL   C39220174   2.043   4.970   5.269  0.2146 -0.1325 -0.0366
   22MOL   C39320175   1.994   4.924   5.392 -0.1872 -0.3205 -1.4584
   22MOL   C39420176   2.061   4.941   5.514 -0.4572  0.6423 -0.2268
   22MOL   C39520177   2.187   4.995   5.515 -0.4605 -0.4850 -0.0688
   22MOL   C39620178   2.251   5.007   5.651  0.0950 -0.4599  0.0035
   22MOL   O39720179   2.197   4.978   5.759  0.3078  0.4447  0.8988
   22MOL   O39820180   2.385   5.032   5.646 -0.9838 -0.1318 -0.1155
   22MOL   C39920181   2.245   5.040   5.391 -0.3962  0.4691 -0.0783
   22MOL   C40020182   2.173   5.034   5.272  0.7196 -0.0639 -0.0954
   22MOL   H40120183   1.789   4.092   4.409 -5.4437 -1.3316  0.2205
   22MOL   H40220184   1.718   4.047   4.563 -0.2527  1.9050  2.0710
   22MOL   H40320185   1.753   4.247   4.665  1.5722 -0.5765 -0.0797
   22MOL   H40420186   1.676   4.276   4.515 -0.7540  0.1441  1.6950
   22MOL   H40520187   1.962   4.308   4.540  0.4908 -2.6683 -1.7397
   22MOL   H40620188   1.860   4.334   4.393  0.9017 -1.1402  0.0908
   22MOL   H40720189   1.800   4.473   4.657 -0.3861 -0.2744  0.0522
   22MOL   H40820190   1.729   4.514   4.508 -0.2066 -1.5997  1.1223
   22MOL   H40920191   2.023   4.536   4.562  1.2170  2.1943 -1.0285
   22MOL   H41020192   1.938   4.621   4.432  1.9615 -0.5102  0.5503
   22MOL   H41120193   1.817   4.741   4.615  0.4565 -1.1128 -2.4311
   22MOL   H41220194   1.924   4.664   4.730  1.4287  1.3861  0.2055
   22MOL   H41320195   2.122   4.759   4.634 -0.3230 -0.9590  0.8519
   22MOL   H41420196   2.029   4.842   4.499  1.9957  0.0297  0.0386
   22MOL   H41520197   2.058   5.013   4.651 -0.9080  1.1715  0.8414
   22MOL   H41620198   1.892   4.948   4.673  0.4537 -0.0878 -1.1474
   22MOL   H41720199   2.122   4.874   4.840  0.4073  3.1340 -1.4800
   22MOL   H41820200   1.964   4.811   4.865  0.2740 -1.3267 -1.0510
   22MOL   H41920201   1.864   5.034   4.916  0.3281  0.2207 -1.2968
   22MOL   H42020202   2.013   5.117   4.865  0.6512 -0.3724  0.7462
   22MOL   H42120203   1.902   4.868   5.387 -1.1208  1.2797 -2.5247
   22MOL   H42220204   2.008   4.914   5.604 -0.0270  0.2735 -0.0818
   22MOL   H42320205   2.345   5.080   5.386 -0.1201  0.2635  2.7399
   22MOL   H42420206   2.221   5.078   5.186  2.5857 -2.1817 -0.1989
   22MOL   O42520207   2.452   5.057   5.782  0.1894 -0.5085  0.2190
   22MOL   C42620208   2.503   4.935   5.836  0.1953 -0.0267  0.0335
   22MOL   C42720209   2.579   4.952   5.968  0.4037  0.5053  0.7983
   22MOL   C42820210   2.674   4.838   5.995  0.0574 -0.2087 -0.2259
   22MOL   C42920211   2.809   4.839   5.923  0.3594  0.3486 -0.2999
   22MOL   C43020212   2.901   4.742   5.984 -0.0399  0.4985 -0.2209
   22MOL   C43120213   3.041   4.728   5.914  0.0937  0.4764 -0.1480
   22MOL   C43220214   3.131   4.852   5.910  0.0559  0.3981  0.4713
   22MOL   C43320215   3.174   4.909   6.046  0.1187  0.0455  0.0066
   22MOL   C43420216   3.245   5.044   6.039  0.1777  0.1065  0.0119
   22MOL   C43520217   3.153   5.166   6.037 -0.3371 -0.3592 -0.9749
   22MOL   O43620218   3.048   5.160   5.949  0.3184 -0.1966 -0.1316
   22MOL   C43720219   2.946   5.250   5.962 -0.3965  0.2978 -0.7140
   22MOL   O43820220   2.938   5.324   6.059 -0.3458  0.1881  0.4354
   22MOL   C43920221   2.850   5.254   5.849 -0.4902  0.0174  0.1656
   22MOL   C44020222   2.738   5.334   5.859  0.6174  0.5004  0.6247
   22MOL   C44120223   2.656   5.340   5.748  0.7371 -0.0584  0.0321
   22MOL   C44220224   2.668   5.253   5.635  0.9112 -0.4614 -0.1754
   22MOL   C44320225   2.570   5.263   5.526  0.0894  0.2009  0.2700
   22MOL   O44420226   2.469   5.329   5.544  0.3689 -0.5976 -0.7008
   22MOL   O44520227   2.615   5.210   5.414 -0.0012  0.0497 -0.2699
   22MOL   C44620228   2.786   5.170   5.634 -0.5503  0.0891  0.5897
   22MOL   C44720229   2.873   5.164   5.742 -0.0670  0.2930 -0.1547
   22MOL   H44820230   2.422   4.863   5.853  0.8786 -0.9601 -0.5750
   22MOL   H44920231   2.566   4.883   5.764  0.0289 -1.2211  0.7289
   22MOL   H45020232   2.516   4.970   6.056  0.3144  1.2946  0.5764
   22MOL   H45120233   2.625   5.051   5.970  0.9389  0.3081 -1.3965
   22MOL   H45220234   2.679   4.846   6.104 -0.9739 -0.9170 -0.1148
   22MOL   H45320235   2.629   4.740   5.975 -1.3718  0.6043 -1.1081
   22MOL   H45420236   2.845   4.941   5.914 -2.2421  1.4270  0.8969
   22MOL   H45520237   2.779   4.800   5.826  1.5692  2.2532 -1.4698
   22MOL   H45620238   2.915   4.762   6.091  0.4315  0.5619 -0.2954
   22MOL   H45720239   2.852   4.647   5.964  1.6146 -0.2271 -0.9318
   22MOL   H45820240   3.103   4.645   5.948 -0.8573 -0.5642 -0.9264
   22MOL   H45920241   3.030   4.695   5.811  0.3949 -1.7233  0.5118
   22MOL   H46020242   3.221   4.831   5.851 -0.0212  2.6368 -0.4967
   22MOL   H46120243   3.090   4.937   5.856  1.9329  1.2086  0.2570
   22MOL   H46220244   3.087   4.925   6.109 -0.5263 -0.2524 -0.7996
   22MOL   H46320245   3.239   4.831   6.087  0.1539  0.3128  0.4535
   22MOL   H46420246   3.313   5.045   5.953  2.0490 -0.9123  1.4473
   22MOL   H46520247   3.317   5.046   6.120 -0.9884 -0.3499  1.0679
   22MOL   H46620248   3.209   5.258   6.016 -1.8802  1.1517  1.3068
   22MOL   H46720249   3.126   5.179   6.142 -2.3852  2.3637 -1.7698
   22MOL   H46820250   2.726   5.405   5.940  1.9166  0.1993  1.0994
   22MOL   H46920251   2.567   5.400   5.754  0.4922 -0.4484  0.3283
   22MOL   H47020252   2.800   5.099   5.554  3.3515  1.3833  0.0428
   22MOL   H47120253   2.962   5.102   5.742 -0.8279 -0.8262  0.9972
   22MOL   O47220254   2.512   5.215   5.303  0.2623 -0.1102  0.8093
   22MOL   C47320255   2.566   5.280   5.194  0.4520  0.4586 -0.4115
   22MOL   C47420256   2.447   5.316   5.114  0.0164 -0.2550 -0.5536
   22MOL   C47520257   2.363   5.415   5.192 -0.0291  0.1460  0.0791
   22MOL   C47620258   2.245   5.470   5.105  0.1841 -0.0198  0.4175
   22MOL   C47720259   2.159   5.585   5.178 -0.1062  0.3555  0.5302
   22MOL   C47820260   2.061   5.644   5.081 -0.3754 -0.0028  0.0841
   22MOL   C47920261   1.984   5.761   5.130  0.6927 -0.2107 -0.0118
   22MOL   C48020262   1.870   5.806   5.035 -0.0330 -0.3717 -0.3445
   22MOL   C48120263   1.826   5.952   5.071  0.1735  0.2800 -0.1317
   22MOL   C48220264   1.687   5.986   5.010 -0.1193  0.0540 -0.0253
   22MOL   O48320265   1.677   5.983   4.870  0.4920 -0.1690  0.0846
   22MOL   C48420266   1.742   6.084   4.795  0.7268  0.2974 -0.7986
   22MOL   O48520267   1.794   6.179   4.842 -0.2549  0.2253 -0.3961
   22MOL   C48620268   1.739   6.056   4.651  0.6019 -0.3936 -0.1798
   22MOL   C48720269   1.769   6.158   4.554  0.6875 -0.1562 -0.6781
   22MOL   C48820270   1.764   6.136   4.417 -0.5535 -0.1271  0.0796
   22MOL   C48920271   1.730   6.008   4.368 -0.5408 -0.6101  0.3840
   22MOL   C49020272   1.740   5.980   4.226  0.3259  0.1375 -0.0224
   22MOL   O49120273   1.734   5.867   4.176 -0.1166 -0.1782  0.2259
   22MOL   O49220274   1.742   6.096   4.148  0.1719 -0.2758  0.5406
   22MOL   C49320275   1.708   5.906   4.463  0.2755  0.1329  0.5549
   22MOL   C49420276   1.701   5.929   4.595 -0.8854 -0.0427  0.0132
   22MOL   H49520277   2.614   5.372   5.225  0.3399  0.7291 -1.0426
   22MOL   H49620278   2.638   5.220   5.138 -0.1659 -2.5292  1.8067
   22MOL   H49720279   2.385   5.237   5.071 -0.4832 -0.8580  1.2238
   22MOL   H49820280   2.490   5.360   5.024 -0.2978 -1.4798 -1.3063
   22MOL   H49920281   2.317   5.384   5.286  1.3323  0.6811  0.9363
   22MOL   H50020282   2.427   5.499   5.219 -0.2807  0.4871 -0.3700
   22MOL   H50120283   2.182   5.384   5.083 -0.0005  0.4045 -0.7230
   22MOL   H50220284   2.291   5.510   5.015 -0.0183  0.6768  0.6193
   22MOL   H50320285   2.115   5.548   5.271  1.1498  0.0796  1.0234
   22MOL   H50420286   2.228   5.659   5.216 -0.7580  0.2466  1.9534
   22MOL   H50520287   2.119   5.665   4.990 -0.0313 -0.5007  0.1811
   22MOL   H50620288   1.995   5.566   5.042 -1.1521  0.7942 -0.1929
   22MOL   H50720289   1.944   5.729   5.226  1.6756  0.3956  0.5996
   22MOL   H50820290   2.051   5.842   5.158 -1.4126  2.1779 -1.6258
   22MOL   H50920291   1.916   5.799   4.936  0.0566 -2.1212 -0.1961
   22MOL   H51020292   1.779   5.746   5.034 -1.3240  1.4731  1.9108
   22MOL   H51120293   1.897   6.028   5.040  2.5379 -1.1159  1.6999
   22MOL   H51220294   1.821   5.963   5.179  0.7112  0.5109 -0.1301
   22MOL   H51320295   1.654   6.087   5.037  0.5272  0.0512  0.7710
   22MOL   H51420296   1.602   5.922   5.035 -0.6456  0.6089 -0.3655
   22MOL   H51520297   1.778   6.261   4.587 -0.7936 -0.1682 -0.1857
   22MOL   H51620298   1.781   6.218   4.350 -0.4590 -1.2524 -1.3052
   22MOL   H51720299   1.665   5.812   4.430 -0.6798  1.5827 -2.5905
   22MOL   H51820300   1.677   5.844   4.657 -0.6795  0.0130  0.1689
   22MOL   O51920301   1.699   6.077   4.001  0.0560  0.5606  0.3392
   22MOL   C52020302   1.559   6.105   3.998  0.0794 -0.3696  0.1375
   22MOL   C52120303   1.510   6.088   3.856  0.0192  0.0868 -0.0385
   22MOL   C52220304   1.494   5.942   3.814 -0.2875  0.5319  0.1322
   22MOL   C52320305   1.471   5.923   3.665 -0.5576 -0.3231 -0.0362
   22MOL   C52420306   1.454   5.778   3.634  0.6126 -0.0692 -0.7104
   22MOL   C52520307   1.584   5.691   3.638 -0.4681 -0.2929 -0.1796
   22MOL   C52620308   1.569   5.556   3.568 -0.0390 -0.0219 -0.3350
   22MOL   C52720309   1.470   5.457   3.637  0.0845  0.1761 -0.2816
   22MOL   C52820310   1.326   5.463   3.574 -0.0625  0.1693 -0.5935
   22MOL   C52920311   1.211   5.390   3.659 -0.3625  0.1381  0.4688
   22MOL   O53020312   1.237   5.254   3.694  0.0573 -0.1907  0.1865
   22MOL   C53120313   1.299   5.228   3.806 -0.3304  0.2107  0.4313
   22MOL   O53220314   1.336   5.316   3.881 -0.0369  0.4104 -0.1066
   22MOL   C53320315   1.320   5.084   3.834  0.4956  0.0401  0.7873
   22MOL   C53420316   1.232   4.989   3.776 -0.2029  0.3274  0.6442
   22MOL   C53520317   1.246   4.853   3.816 -0.0980  0.2924  0.8516
   22MOL   C53620318   1.356   4.816   3.906 -0.0306 -0.3398 -0.4168
   22MOL   C53720319   1.367   4.680   3.957 -0.0247 -0.1259 -0.2478
   22MOL   O53820320   1.442   4.641   4.046  0.0490  0.3156  0.3254
   22MOL   O53920321   1.287   4.600   3.893  0.6500 -0.1903 -0.1477
   22MOL   C54020322   1.445   4.914   3.953  0.6909 -0.4454 -0.0287
   22MOL   C54120323   1.426   5.046   3.917  0.0674 -0.1823  1.0346
   22MOL   H54220324   1.506   6.033   4.060  0.9658 -1.4919 -0.4005
   22MOL   H54320325   1.539   6.204   4.041 -0.8434  0.0053 -1.1212
   22MOL   H54420326   1.584   6.138   3.795  0.6238 -2.3374 -1.3754
   22MOL   H54520327   1.410   6.131   3.854  0.5730  1.4652  0.9254
   22MOL   H54620328   1.575   5.878   3.850 -0.6130 -1.1067 -1.9237
   22MOL   H54720329   1.404   5.913   3.867  0.4477 -1.3899  0.3701
   22MOL   H54820330   1.542   5.970   3.597  0.0119 -2.2090 -0.7591
   22MOL   H54920331   1.380   5.979   3.642  0.7567  2.2887  0.8492
   22MOL   H55020332   1.380   5.739   3.704  1.3636  1.5983  1.0595
   22MOL   H55120333   1.409   5.785   3.535  0.2625  1.1349 -0.4842
   22MOL   H55220334   1.671   5.742   3.595 -0.0559 -2.4960 -2.0360
   22MOL   H55320335   1.618   5.672   3.740 -0.1777  0.5244 -0.1144
   22MOL   H55420336   1.547   5.569   3.462 -0.0635  2.0958 -0.1031
   22MOL   H55520337   1.662   5.501   3.563  0.4597  0.5466  2.1405
   22MOL   H55620338   1.514   5.357   3.641 -0.8575 -0.1841  1.5794
   22MOL   H55720339   1.462   5.477   3.744 -1.1286  1.5400 -0.6304
   22MOL   H55820340   1.329   5.441   3.467 -1.5527  0.7003 -0.7544
   22MOL   H55920341   1.284   5.563   3.564 -0.5237  0.1208  0.8434
   22MOL   H56020342   1.119   5.411   3.604  0.0696  0.8439  0.0154
   22MOL   H56120343   1.193   5.440   3.754  0.8077  0.6058  0.4487
   22MOL   H56220344   1.145   5.016   3.718  0.4127 -1.8513 -1.4222
   22MOL   H56320345   1.176   4.778   3.783  0.2410 -0.2804  1.4222
   22MOL   H56420346   1.526   4.887   4.019  0.2373 -2.1484 -0.1421
   22MOL   H56520347   1.502   5.112   3.957  1.0206 -0.9135  0.4629
   22MOL   O56620348   1.323   4.450   3.906 -0.3159  0.0329  0.0893
   22MOL   C56720349   1.345   4.399   3.778  0.2941 -0.0143  0.2145
   22MOL   C56820350   1.398   4.251   3.805 -0.4939  0.3628  0.8085
   22MOL   C56920351   1.325   4.169   3.906  0.2536  0.6322  0.4210
   22MOL   C57020352   1.395   4.028   3.904  0.4603 -0.5045  0.0678
   22MOL   C57120353   1.325   3.938   4.009  0.1083  0.0675 -1.5669
   22MOL   C57220354   1.395   3.797   4.013  0.3705  0.0109  0.2415
   22MOL   C57320355   1.356   3.712   4.132 -0.4369  0.4400 -0.2101
   22MOL   C57420356   1.421   3.573   4.144 -0.1360  0.4232  0.5607
   22MOL   C57520357   1.361   3.475   4.049 -0.4947  0.3139 -0.3778
   22MOL   C57620358   1.440   3.345   4.022 -1.0621  0.2704  0.1926
   22MOL   O57720359   1.473   3.285   4.146 -0.1344 -0.1706  0.0427
   22MOL   C57820360   1.601   3.277   4.184 -0.6301  0.2333  0.3389
   22MOL   O57920361   1.685   3.353   4.131 -0.2543 -0.2002 -0.1416
   22MOL   C58020362   1.634   3.183   4.292  0.5438  0.0266 -0.7742
   22MOL   C58120363   1.557   3.076   4.333 -0.1529  0.3253 -0.0922
   22MOL   C58220364   1.606   2.976   4.421 -0.1255  0.0807  0.7755
   22MOL   C58320365   1.736   2.982   4.472  0.5811 -0.1246  0.4563
   22MOL   C58420366   1.788   2.878   4.566  0.2428 -0.3077  0.4696
   22MOL   O58520367   1.869   2.903   4.658 -0.3118  0.5201  0.5166
   22MOL   O58620368   1.718   2.759   4.566  0.4697  0.1579 -0.3323
   22MOL   C58720369   1.811   3.096   4.437 -0.0706 -0.5347  0.6693
   22MOL   C58820370   1.763   3.195   4.346  0.1322  0.0046 -0.3572
   22MOL   H58920371   1.253   4.396   3.721 -0.7152  2.5130  1.6443
   22MOL   H59020372   1.417   4.474   3.745  0.0677  1.4326  2.8527
   22MOL   H59120373   1.505   4.240   3.826 -0.1485 -1.7605 -1.7746
   22MOL   H59220374   1.392   4.197   3.711  0.2970  1.4962  0.0819
   22MOL   H59320375   1.329   4.208   4.008  1.4195  0.9313  0.2682
   22MOL   H59420376   1.218   4.153   3.891  0.3246  0.0559  0.5503
   22MOL   H59520377   1.500   4.025   3.931  0.3851 -3.0655  0.2036
   22MOL   H59620378   1.396   3.975   3.809  1.6166 -3.3771  1.6394
   22MOL   H59720379   1.330   3.980   4.109  0.5770 -0.2587 -1.4514
   22MOL   H59820380   1.221   3.935   3.978 -1.2121  0.8843  2.4977
   22MOL   H59920381   1.365   3.744   3.922 -2.2236  0.0633  1.0148
   22MOL   H60020382   1.504   3.802   4.010  0.3045  2.0434  0.8407
   22MOL   H60120383   1.390   3.767   4.220 -2.8452 -0.2421  1.1934
   22MOL   H60220384   1.248   3.701   4.139 -0.2315 -0.2306  2.4650
   22MOL   H60320385   1.528   3.592   4.137  0.0966 -0.2725  2.0647
   22MOL   H60420386   1.418   3.531   4.245 -0.8952 -0.0298  0.3582
   22MOL   H60520387   1.326   3.512   3.953 -0.5067  0.7618 -0.2030
   22MOL   H60620388   1.268   3.442   4.095 -0.6691  0.1222 -0.8662
   22MOL   H60720389   1.526   3.363   3.958 -1.3502  0.5986 -0.1074
   22MOL   H60820390   1.377   3.273   3.968 -1.0188 -0.5093  1.1664
   22MOL   H60920391   1.463   3.064   4.282  1.3736  0.8994 -3.1974
   22MOL   H61020392   1.545   2.888   4.433  0.4347 -0.5983 -1.1454
   22MOL   H61120393   1.914   3.111   4.468  0.3392 -1.2217 -0.3528
   22MOL   H61220394   1.835   3.271   4.319  0.8414 -1.3819 -2.5299
   22MOL   O61320395   1.769   2.646   4.659  0.2002 -0.5563  0.1721
   22MOL   C61420396   1.685   2.641   4.773 -0.0162 -0.3616  0.0912
   22MOL   C61520397   1.541   2.622   4.724  0.1223 -0.2248  0.2817
   22MOL   C61620398   1.508   2.487   4.654 -0.7669  0.4998 -0.0100
   22MOL   C61720399   1.409   2.510   4.538 -0.4282  0.3779 -0.0299
   22MOL   C61820400   1.402   2.393   4.442  0.5643  0.0262  0.1369
   22MOL   C61920401   1.352   2.430   4.299 -0.2067  1.0418 -0.7064
   22MOL   C62020402   1.199   2.442   4.294 -0.1920  0.0847  0.4176
   22MOL   C62120403   1.137   2.454   4.151 -0.1642  0.0076  0.8627
   22MOL   C62220404   0.994   2.506   4.147 -0.3896 -0.3493  0.5374
   22MOL   C62320405   0.878   2.410   4.177 -0.7755 -0.3877 -0.6458
   22MOL   O62420406   0.851   2.396   4.321 -0.0192  0.4203  0.9355
   22MOL   C62520407   0.758   2.486   4.372 -0.3398  0.3635  0.2909
   22MOL   O62620408   0.697   2.570   4.310 -0.6031 -0.4710 -0.0232
   22MOL   C62720409   0.750   2.476   4.525  0.0865 -0.4704 -0.5559
   22MOL   C62820410   0.663   2.574   4.586 -0.4026 -0.1833  0.1015
   22MOL   C62920411   0.659   2.573   4.733 -0.2826 -0.5636  0.5099
   22MOL   C63020412   0.731   2.475   4.810  0.0906  0.3123  0.1002
   22MOL   C63120413   0.712   2.471   4.953 -0.1910  0.0690  0.2728
   22MOL   O63220414   0.630   2.529   5.022 -0.0980 -0.7011 -0.1506
   22MOL   O63320415   0.799   2.387   5.010 -0.6963 -0.5436  0.0319
   22MOL   C63420416   0.810   2.383   4.740 -0.0440 -0.1355  0.3046
   22MOL   C63520417   0.812   2.376   4.600 -0.0790 -0.6833  0.0384
   22MOL   H63620418   1.709   2.560   4.841  1.0623 -0.7136 -0.6918
   22MOL   H63720419   1.698   2.741   4.814  0.4645 -1.3046  2.3084
   22MOL   H63820420   1.520   2.706   4.657 -2.1022  0.7317  2.1038
   22MOL   H63920421   1.469   2.643   4.803  0.8639  5.1663 -0.2897
   22MOL   H64020422   1.609   2.464   4.619 -0.9752 -0.0964 -0.2222
   22MOL   H64120423   1.488   2.400   4.715  1.9369 -0.5856 -0.5774
   22MOL   H64220424   1.433   2.602   4.485  2.4268 -0.3448 -0.0405
   22MOL   H64320425   1.315   2.523   4.593  0.0568 -1.3577  1.2441
   22MOL   H64420426   1.507   2.372   4.420  0.3115 -0.7481 -0.3892
   22MOL   H64520427   1.357   2.303   4.484  0.2569 -0.2283 -0.7173
   22MOL   H64620428   1.397   2.522   4.263  0.3971  0.1606 -2.2338
   22MOL   H64720429   1.369   2.344   4.235 -3.2220 -1.3490  1.5129
   22MOL   H64820430   1.149   2.369   4.358 -0.1550 -0.6798 -0.4170
   22MOL   H64920431   1.179   2.538   4.342  0.3913  0.6328 -0.4202
   22MOL   H65020432   1.188   2.533   4.097  0.0990  0.2724  1.4956
   22MOL   H65120433   1.158   2.364   4.093  0.6904  0.4510  0.4694
   22MOL   H65220434   0.982   2.537   4.043  1.0232 -1.5511  0.0136
   22MOL   H65320435   0.980   2.594   4.211 -0.4880  0.3131 -0.3939
   22MOL   H65420436   0.903   2.310   4.140  1.6648 -0.1325  0.2229
   22MOL   H65520437   0.795   2.450   4.118 -0.2540 -1.5890 -2.2325
   22MOL   H65620438   0.611   2.648   4.527  0.7332  0.3110 -0.2959
   22MOL   H65720439   0.599   2.650   4.779 -0.0037 -1.1584  1.8610
   22MOL   H65820440   0.858   2.291   4.772  0.4828 -0.3185 -0.9711
   22MOL   H65920441   0.875   2.303   4.552  0.0059  0.0913 -1.0346
   22MOL   O66020442   0.801   2.381   5.162  0.4802 -0.5147 -0.6082
   22MOL   C66120443   0.894   2.474   5.207  0.4406 -0.3662 -0.4630
   22MOL   C66220444   0.829   2.537   5.330 -0.1510 -0.4134 -0.2550
   22MOL   C66320445   0.945   2.606   5.416  0.6905 -0.2391  0.4627
   22MOL   C66420446   0.880   2.669   5.541  0.5187  0.3729 -0.3652
   22MOL   C66520447   0.986   2.745   5.625 -0.1461  0.9654 -0.3201
   22MOL   C66620448   1.008   2.891   5.581 -0.4990 -0.0677 -0.8367
   22MOL   C66720449   1.086   2.969   5.686  0.0376  0.3028 -0.0028
   22MOL   C66820450   1.129   3.103   5.637 -0.2111  0.0085 -0.2200
   22MOL   C66920451   1.187   3.191   5.747 -0.1362  0.6962 -0.6128
   22MOL   C67020452   1.263   3.306   5.682  0.5391 -0.6717  0.0956
   22MOL   O67120453   1.316   3.393   5.781  0.4926  0.1418 -0.1174
   22MOL   C67220454   1.357   3.512   5.739  0.0186 -0.5361  0.7473
   22MOL   O67320455   1.362   3.549   5.623  0.5148  0.0645  0.2114
   22MOL   C67420456   1.365   3.606   5.850 -0.7038  0.6123  0.0135
   22MOL   C67520457   1.386   3.743   5.831  0.4998  0.3084 -0.1273
   22MOL   C67620458   1.408   3.834   5.938 -0.1880 -0.1980  0.4193
   22MOL   C67720459   1.382   3.790   6.071  0.0439 -1.2896 -0.3479
   22MOL   C67820460   1.405   3.886   6.187  0.1662 -0.1119 -0.3771
   22MOL   O67920461   1.382   3.863   6.307 -0.2776  0.2998  0.1371
   22MOL   O68020462   1.471   4.000   6.146 -0.0735  0.3374 -0.4939
   22MOL   C68120463   1.358   3.651   6.094 -0.0384 -0.2179 -0.0853
   22MOL   C68220464   1.364   3.561   5.985 -0.0197 -0.6979  0.4218
   22MOL   H68320465   0.994   2.431   5.216  0.8459  0.4257 -1.0379
   22MOL   H68420466   0.903   2.558   5.138  0.2026 -0.1047 -0.1784
   22MOL   H68520467   0.781   2.462   5.392 -0.3711 -1.2509 -1.4278
   22MOL   H68620468   0.752   2.609   5.301 -0.0669 -0.3149 -0.2347
   22MOL   H68720469   1.028   2.540   5.444  1.4709  0.0517 -1.1107
   22MOL   H68820470   0.996   2.678   5.352  1.4216 -0.2896  0.9769
   22MOL   H68920471   0.821   2.602   5.603  1.3573 -0.7055 -0.7181
   22MOL   H69020472   0.809   2.744   5.505  0.6092 -0.2678 -1.9034
   22MOL   H69120473   0.954   2.757   5.729  1.2640  1.8623  0.0219
   22MOL   H69220474   1.082   2.694   5.627 -1.2112 -1.1195 -0.3481
   22MOL   H69320475   1.071   2.891   5.492  0.3695 -0.2291 -0.2244
   22MOL   H69420476   0.915   2.946   5.569  0.4540  1.8007  0.2472
   22MOL   H69520477   1.017   2.983   5.770  0.5192 -0.7799  0.5858
   22MOL   H69620478   1.173   2.908   5.711  0.7745  0.8945 -1.0734
   22MOL   H69720479   1.207   3.092   5.561 -1.0677  4.3967 -1.9204
   22MOL   H69820480   1.042   3.156   5.598 -1.7821 -0.6790  2.2900
   22MOL   H69920481   1.246   3.142   5.824  1.2951  1.9713 -0.8722
   22MOL   H70020482   1.102   3.230   5.803 -1.6872  1.5974 -3.4878
   22MOL   H70120483   1.187   3.350   5.617 -0.5930 -1.7341  0.6579
   22MOL   H70220484   1.349   3.281   5.620  0.4121 -0.5386 -0.1353
   22MOL   H70320485   1.400   3.775   5.729 -1.2575 -2.0793 -1.1565
   22MOL   H70420486   1.425   3.938   5.914  1.3407 -0.0438  2.0574
   22MOL   H70520487   1.349   3.620   6.197 -1.2441 -0.9327 -0.3994
   22MOL   H70620488   1.344   3.458   6.008  1.4576 -0.7114  1.7498
   22MOL   O70720489   1.482   4.110   6.246  0.1620 -0.5682  0.0897
   22MOL   C70820490   1.592   4.097   6.334 -0.6702 -0.6859  0.5134
   22MOL   C70920491   1.571   4.213   6.437  0.0905 -0.3323  0.0448
   22MOL   C71020492   1.447   4.179   6.522 -0.0082 -0.5451  0.0019
   22MOL   C71120493   1.455   4.236   6.658  0.0924 -0.0130 -0.1114
   22MOL   C71220494   1.428   4.390   6.655 -0.1335 -0.0783  0.2031
   22MOL   C71320495   1.427   4.459   6.790  0.7982 -0.6631  0.4874
   22MOL   C71420496   1.355   4.599   6.793  0.2037 -0.2111  0.4935
   22MOL   C71520497   1.328   4.635   6.940 -0.8120  0.4412 -0.1343
   22MOL   C71620498   1.251   4.762   6.962  0.4484  0.3204 -0.5501
   22MOL   C71720499   1.175   4.757   7.097  0.2860  0.1675  0.7443
   22MOL   O71820500   1.271   4.761   7.205  0.2671  0.1990  0.0101
   22MOL   C71920501   1.237   4.751   7.332 -0.0107 -0.9006 -0.0494
   22MOL   O72020502   1.116   4.741   7.371  0.7936  0.0702  0.0494
   22MOL   C72120503   1.356   4.761   7.425 -0.2420  0.9071 -0.1449
   22MOL   C72220504   1.337   4.750   7.564 -0.3638 -0.0567  0.0383
   22MOL   C72320505   1.443   4.762   7.655  0.5821  0.7278 -0.5641
   22MOL   C72420506   1.579   4.760   7.610 -0.6153  0.1803  0.7033
   22MOL   C72520507   1.699   4.740   7.696 -0.4214  0.1615 -0.1253
   22MOL   O72620508   1.816   4.728   7.653 -0.5465 -0.2182 -0.1241
   22MOL   O72720509   1.673   4.745   7.828  0.5863 -0.2410 -0.4259
   22MOL   C72820510   1.601   4.769   7.470 -0.0746  0.5386 -0.1297
   22MOL   C72920511   1.489   4.771   7.376 -0.2437  0.3314 -0.0009
   22MOL   H73020512   1.586   4.001   6.384 -0.7338 -0.7591  0.3661
   22MOL   H73120513   1.686   4.108   6.281 -1.3247 -0.0591 -0.5388
   22MOL   H73220514   1.559   4.304   6.378 -1.0057 -0.6431 -0.2230
   22MOL   H73320515   1.648   4.215   6.514  0.7085 -1.0632 -0.5441
   22MOL   H73420516   1.351   4.201   6.475 -1.3672 -2.6511  1.7015
   22MOL   H73520517   1.447   4.071   6.530 -0.7367 -0.5600 -0.2056
   22MOL   H73620518   1.551   4.215   6.706 -0.2409 -1.5463 -0.0901
   22MOL   H73720519   1.388   4.192   6.732 -0.8490  0.4692 -0.6657
   22MOL   H73820520   1.490   4.440   6.581 -1.5783 -1.5429 -2.0691
   22MOL   H73920521   1.329   4.400   6.609  0.3114 -0.2566 -0.8212
   22MOL   H74020522   1.398   4.383   6.862 -0.0168  0.7232  1.6701
   22MOL   H74120523   1.530   4.488   6.814  0.4322 -0.3199  1.6809
   22MOL   H74220524   1.419   4.672   6.744 -1.8606 -0.3797 -2.6270
   22MOL   H74320525   1.266   4.602   6.730  1.4014  1.1759 -1.1702
   22MOL   H74420526   1.283   4.551   6.992  1.0223 -0.3847  0.1570
   22MOL   H74520527   1.422   4.662   6.989 -0.1906  2.6196 -2.3657
   22MOL   H74620528   1.185   4.773   6.876  1.8093 -1.4476 -1.8638
   22MOL   H74720529   1.299   4.860   6.965 -1.0830  1.0420  1.2058
   22MOL   H74820530   1.097   4.684   7.117  0.2655  0.1928  0.7573
   22MOL   H74920531   1.114   4.847   7.096  1.5615  1.0627 -1.9158
   22MOL   H75020532   1.244   4.745   7.619 -0.1885 -0.1090  0.3345
   22MOL   H75120533   1.425   4.738   7.758  0.9509 -0.2424 -0.7214
   22MOL   H75220534   1.700   4.786   7.432 -0.3201 -0.6305 -1.3490
   22MOL   H75320535   1.513   4.771   7.271 -3.0597  1.1837 -0.7042
   22MOL   O75420536   1.784   4.705   7.911 -0.2063  0.3848 -0.4007
   22MOL   C75520537   1.860   4.825   7.955 -0.3444 -0.1051  1.2371
   22MOL   C75620538   1.969   4.794   0.079  0.7444 -0.1314  0.2807
   22MOL   C75720539   2.082   4.888   0.072  0.3414 -0.7682 -0.6044
   22MOL   C75820540   2.218   4.816   0.095 -0.1503 -0.2106 -0.2996
   22MOL   C75920541   2.337   4.907   0.104 -0.4661 -0.3300 -0.4864
   22MOL   C76020542   2.457   4.833   0.162 -0.2773  1.1798 -0.2013
   22MOL   C76120543   2.576   4.920   0.191 -0.0200 -0.6687 -0.6835
   22MOL   C76220544   2.687   4.845   0.273 -0.1962  0.1698  0.2170
   22MOL   C76320545   2.809   4.934   0.312 -0.0137 -0.0837 -0.0627
   22MOL   C76420546   2.918   4.853   0.383 -0.1481 -0.2455 -0.4415
   22MOL   O76520547   3.012   4.943   0.445 -0.1990  0.3466  0.7967
   22MOL   C76620548   3.141   4.935   0.409 -0.3550  0.0206  0.7074
   22MOL   O76720549   3.181   4.858   0.319  0.1246 -0.4680  0.0002
   22MOL   C76820550   3.230   5.037   0.481 -0.1309 -0.1522  0.2895
   22MOL   C76920551   3.177   5.103   0.597 -0.2968 -0.7342 -1.0415
   22MOL   C77020552   3.259   5.201   0.657  0.4682  0.6410 -1.1542
   22MOL   C77120553   3.393   5.211   0.617 -0.1243 -0.2926  0.5633
   22MOL   C77220554   3.487   5.307   0.679  0.3336 -0.1496  0.6370
   22MOL   O77320555   3.596   5.337   0.640 -0.2363  0.1383 -0.9742
   22MOL   O77420556   3.432   5.370   0.784  0.4148  0.3525 -0.3149
   22MOL   C77520557   3.437   5.146   0.498  0.0587 -1.0392 -0.3614
   22MOL   C77620558   3.359   5.059   0.427  0.1932  0.2705 -0.0695
   22MOL   H77720559   1.890   4.869   7.860  0.3294 -2.4991  0.2931
   22MOL   H77820560   1.785   4.888   0.026 -0.5851  0.4256  0.2207
   22MOL   H77920561   2.000   4.691   0.059 -0.9790 -0.2539 -1.8442
   22MOL   H78020562   1.930   4.785   0.181  3.1893  1.8449  1.4430
   22MOL   H78120563   2.083   4.927   7.949 -1.1639  0.0017 -0.3304
   22MOL   H78220564   2.067   4.969   0.143  3.1062 -2.3947  1.9710
   22MOL   H78320565   2.228   4.727   0.032  2.8547  0.1096 -0.3272
   22MOL   H78420566   2.205   4.776   0.196  0.8597  1.6567  0.5885
   22MOL   H78520567   2.343   4.964   0.011 -0.7328 -0.8997 -0.8573
   22MOL   H78620568   2.318   4.986   0.177  0.8861  0.1833 -0.6750
   22MOL   H78720569   2.429   4.776   0.250  3.0973 -0.9212 -0.3912
   22MOL   H78820570   2.485   4.756   0.089 -1.1877 -1.4316  2.1220
   22MOL   H78920571   2.620   4.971   0.105 -1.5856  1.5921 -0.1659
   22MOL   H79020572   2.543   5.003   0.253  2.3633  0.9511 -1.5237
   22MOL   H79120573   2.650   4.794   0.362  0.5185 -0.6217  0.0658
   22MOL   H79220574   2.710   4.766   0.202 -4.6170  1.5942 -3.0433
   22MOL   H79320575   2.759   5.003   0.381  0.9673  0.7214 -0.1363
   22MOL   H79420576   2.860   4.980   0.227 -0.6883  0.9198  0.0560
   22MOL   H79520577   2.955   4.777   0.315  2.3163  0.0465  0.5236
   22MOL   H79620578   2.868   4.793   0.460  0.2464 -0.4773 -0.3643
   22MOL   H79720579   3.082   5.083   0.645 -1.0021  3.4238 -0.4476
   22MOL   H79820580   3.225   5.255   0.745 -2.6493 -1.7073 -0.8332
   22MOL   H79920581   3.539   5.164   0.466  0.0503  0.6753  0.5420
   22MOL   H80020582   3.392   5.020   0.332 -0.0802  0.9879 -0.4611
   22MOL   O80120583   3.523   5.476   0.845 -0.2793  0.0736  0.1021
   22MOL   C80220584   3.582   5.427   0.968 -0.9604  0.3457  0.4636
   22MOL   C80320585   3.671   5.541   1.017  0.0588  0.3156 -0.1685
   22MOL   C80420586   3.582   5.670   1.059 -0.0460 -0.4603  0.8998
   22MOL   C80520587   3.670   5.787   1.117  0.3522  0.5019 -0.2075
   22MOL   C80620588   3.762   5.842   0.998 -0.4423 -0.4370  1.0168
   22MOL   C80720589   3.809   5.976   1.038 -0.1393 -0.0367 -0.0100
   22MOL   C80820590   3.889   6.060   0.935 -0.1597 -0.0608 -0.2096
   22MOL   C80920591   4.018   5.997   0.882 -0.1667  0.0936 -0.5333
   22MOL   C81020592   4.084   6.071   0.766  0.4650 -0.2893 -0.0958
   22MOL   C81120593   4.195   5.985   0.698 -0.4435  0.5766  0.1646
   22MOL   O81220594   4.138   5.861   0.653  0.2372 -0.1850 -0.2620
   22MOL   C81320595   4.202   5.770   0.580 -0.7153 -0.3622 -0.6675
   22MOL   O81420596   4.325   5.769   0.557  0.3898 -0.3596  0.0742
   22MOL   C81520597   4.113   5.671   0.533 -0.0013  0.4931  0.1546
   22MOL   C81620598   4.165   5.559   0.464 -0.7826  0.5967 -1.0196
   22MOL   C81720599   4.089   5.457   0.411  0.4608  0.3892 -0.3964
   22MOL   C81820600   3.940   5.466   0.422 -0.3410 -0.1174  0.3968
   22MOL   C81920601   3.863   5.357   0.360  0.1534  0.3222 -0.5518
   22MOL   O82020602   3.918   5.259   0.307  0.3328  0.0629 -0.2020
   22MOL   O82120603   3.732   5.383   0.358  0.0943  0.2474  0.3246
   22MOL   C82220604   3.888   5.577   0.489  0.5818  0.3116 -0.8483
   22MOL   C82320605   3.971   5.681   0.540  0.4849  0.0408  0.5578
   22MOL   H82420606   3.512   5.404   1.048  0.2611 -1.6768  0.9949
   22MOL   H82520607   3.637   5.334   0.953 -1.0769  0.1393  1.2633
   22MOL   H82620608   3.757   5.561   0.953 -1.6562 -2.2857 -3.4787
   22MOL   H82720609   3.734   5.505   1.098 -1.2871 -0.9111  0.3640
   22MOL   H82820610   3.532   5.701   0.966  1.6465 -1.6381 -0.4343
   22MOL   H82920611   3.505   5.641   1.131  0.6794 -0.0651  1.8372
   22MOL   H83020612   3.730   5.744   1.197  1.3569  0.4859 -0.9530
   22MOL   H83120613   3.586   5.850   1.147 -0.9912 -0.1845 -2.3889
   22MOL   H83220614   3.837   5.774   0.958  0.1821  0.8774 -0.0902
   22MOL   H83320615   3.702   5.854   0.908 -0.9967 -0.7507  1.3407
   22MOL   H83420616   3.715   6.024   1.067 -0.3240 -0.0497 -0.5835
   22MOL   H83520617   3.864   5.960   1.131 -2.3320 -0.5612  1.2284
   22MOL   H83620618   3.827   6.088   0.849  2.4061 -1.1959 -2.5097
   22MOL   H83720619   3.910   6.151   0.990  1.0608 -0.4943  0.0396
   22MOL   H83820620   4.084   5.987   0.969 -0.7586 -0.6697 -0.1673
   22MOL   H83920621   3.992   5.895   0.855  0.0968  0.6023 -2.7711
   22MOL   H84020622   4.120   6.167   0.804 -0.0794  0.1024 -0.5717
   22MOL   H84120623   4.012   6.076   0.685 -1.5246 -1.3717  1.5746
   22MOL   H84220624   4.281   5.975   0.764 -0.5411 -0.0047  0.2044
   22MOL   H84320625   4.234   6.028   0.606 -1.0606  2.7787  0.9151
   22MOL   H84420626   4.272   5.545   0.461 -0.7492  0.2485  0.9894
   22MOL   H84520627   4.136   5.374   0.359  1.7839  0.5214  0.5594
   22MOL   H84620628   3.780   5.583   0.495  0.5921 -0.2960 -0.0438
   22MOL   H84720629   3.925   5.769   0.581  0.2932  0.5137 -0.6421
   22MOL   O84820630   3.650   5.287   0.276 -0.3226 -0.0713 -0.1916
   22MOL   C84920631   3.617   5.358   0.153  0.3054 -0.1208  0.2429
   22MOL   C85020632   3.548   5.255   0.057 -0.9052 -0.6101  0.1910
   22MOL   C85120633   3.402   5.263   0.084  0.2642 -0.1103 -0.1864
   22MOL   C85220634   3.344   5.148   0.012  0.2332 -0.1400  0.5522
   22MOL   C85320635   3.199   5.109   0.051 -0.3738  0.0062  0.6737
   22MOL   C85420636   3.137   5.021   7.931 -0.1861  1.0439 -0.5232
   22MOL   C85520637   3.006   4.956   7.972 -0.0608  0.3790  0.3078
   22MOL   C85620638   2.953   4.845   7.872  0.9840  0.0591 -0.3367
   22MOL   C85720639   2.829   4.763   7.921  0.4020 -0.4154  0.6691
   22MOL   C85820640   2.793   4.655   7.821 -0.3521 -0.3104  0.0957
   22MOL   O85920641   2.675   4.590   7.862 -0.3236 -0.2084  0.1857
   22MOL   C86020642   2.557   4.620   7.797  0.7511  0.7164 -0.4757
   22MOL   O86120643   2.551   4.695   7.697 -0.3251 -0.3432 -0.1839
   22MOL   C86220644   2.442   4.543   7.844 -0.1785  0.6513  0.1444
   22MOL   C86320645   2.310   4.579   7.805 -0.6013  0.4928  0.1613
   22MOL   C86420646   2.200   4.500   7.848  0.2623  0.3806  0.6849
   22MOL   C86520647   2.220   4.380   7.927 -0.0437 -1.2574 -0.2019
   22MOL   C86620648   2.110   4.295   7.958  0.1938 -0.1329 -0.1248
   22MOL   O86720649   2.122   4.202   0.054  0.5726  0.0756  0.6066
   22MOL   O86820650   1.994   4.336   7.916  0.5613 -0.1737  0.2980
   22MOL   C86920651   2.353   4.357   7.976 -0.5759  0.3499  0.3221
   22MOL   C87020652   2.460   4.435   7.934 -0.3846  0.0538  0.4261
   22MOL   H87120653   3.566   5.453   0.169 -0.2678 -0.2138 -0.9930
   22MOL   H87220654   3.709   5.388   0.103  2.0832 -2.2162  2.1564
   22MOL   H87320655   3.591   5.155   0.066  0.6442  0.0207 -0.2130
   22MOL   H87420656   3.569   5.292   7.935  1.7463 -1.1479  0.5280
   22MOL   H87520657   3.379   5.255   0.190  1.2108  3.4122  0.3688
   22MOL   H87620658   3.360   5.358   0.052  0.6384  0.1573  0.1020
   22MOL   H87720659   3.399   5.054   0.014 -0.3189 -0.6153 -2.7760
   22MOL   H87820660   3.345   5.168   7.883  1.1553 -0.4037  0.5074
   22MOL   H87920661   3.201   5.065   0.151  0.3469 -1.2016  0.1208
   22MOL   H88020662   3.150   5.207   0.055  0.9872  0.7464 -0.6020
   22MOL   H88120663   3.130   5.080   7.840  1.1436 -0.3570 -1.5496
   22MOL   H88220664   3.211   4.945   7.906 -0.0501  1.2200 -0.6577
   22MOL   H88320665   3.015   4.909   0.091 -2.4841 -0.4994  0.1165
   22MOL   H88420666   2.937   5.039   0.006 -0.9308 -0.2774 -0.1758
   22MOL   H88520667   2.928   4.891   7.777 -1.1980 -2.3351 -0.9784
   22MOL   H88620668   3.036   4.775   7.860 -1.4195 -2.7538 -1.1009
   22MOL   H88720669   2.746   4.832   7.939  0.4539 -0.9070  2.8748
   22MOL   H88820670   2.850   4.716   0.039  0.6318 -0.0736  0.7879
   22MOL   H88920671   2.872   4.580   7.816 -0.7039 -0.6377 -0.7228
   22MOL   H89020672   2.784   4.698   7.722  4.2105  1.7407  0.4591
   22MOL   H89120673   2.289   4.653   7.729 -0.6160 -1.8097 -2.1471
   22MOL   H89220674   2.100   4.529   7.820  0.8060 -1.0455 -3.0385
   22MOL   H89320675   2.384   4.276   0.063  2.9459  1.3903  0.0376
   22MOL   H89420676   2.560   4.415   7.968  0.3017  1.4103 -0.7280
   22MOL   O89520677   1.880   4.269   0.006  0.1097 -0.1914  0.1650
   22MOL   C89620678   1.823   4.374   0.086  0.1718 -0.1814 -0.0831
   22MOL   C89720679   1.691   4.330   0.146  0.8820  0.3240  0.5118
   22MOL   C89820680   1.611   4.440   0.221 -0.4130 -0.1732  1.1790
   22MOL   C89920681   1.530   4.521   0.132 -0.0192  0.1071 -0.5063
   22MOL   C90020682   1.395   4.458   0.096  0.1993 -0.4685 -0.2315
   22MOL   C90120683   1.323   4.529   7.950 -0.2247 -0.1292 -0.3443
   22MOL   C90220684   1.180   4.478   7.919 -0.4000 -0.1501 -0.0670
   22MOL   C90320685   1.135   4.523   7.780 -0.7890 -0.4093 -0.4326
   22MOL   C90420686   0.989   4.482   7.746 -0.0173  0.9497  0.2813
   22MOL   C90520687   0.934   4.535   7.616 -0.4804 -0.6174 -0.0562
   22MOL   O90620688   1.022   4.487   7.514  0.7259  0.3453  0.9072
   22MOL   C90720689   0.980   4.418   7.412 -0.5449  0.1579 -0.0105
   22MOL   O90820690   0.855   4.394   7.395  0.5352 -0.1172 -0.0287
   22MOL   C90920691   1.096   4.380   7.323  0.4781 -0.0083  0.1407
   22MOL   C91020692   1.230   4.407   7.351 -0.3390  0.5422 -0.5068
   22MOL   C91120693   1.331   4.354   7.272  0.0980 -0.0218  0.5165
   22MOL   C91220694   1.304   4.272   7.158 -0.7988  0.4430  0.2709
   22MOL   C91320695   1.414   4.202   7.082 -0.0712  0.0581 -0.0684
   22MOL   O91420696   1.525   4.241   7.098  0.2358 -0.2742 -1.2798
   22MOL   O91520697   1.376   4.102   7.000 -0.0236  0.6319 -0.4868
   22MOL   C91620698   1.169   4.261   7.125 -0.3800  0.0758 -0.2296
   22MOL   C91720699   1.070   4.312   7.198  0.8629  0.7724  0.4022
   22MOL   H91820700   1.899   4.400   0.160  0.1606 -1.3424  0.3417
   22MOL   H91920701   1.797   4.452   0.014 -0.5947  0.2844  0.6985
   22MOL   H92020702   1.715   4.245   0.210  0.1914 -0.4239 -0.2200
   22MOL   H92120703   1.638   4.296   0.057 -0.1399  0.1155  1.1908
   22MOL   H92220704   1.549   4.390   0.296  0.1611 -1.1459  1.0167
   22MOL   H92320705   1.689   4.501   0.265 -0.0452  0.4917 -0.3833
   22MOL   H92420706   1.576   4.556   0.040  0.6911 -1.4713 -0.7661
   22MOL   H92520707   1.511   4.609   0.194  1.7640 -0.6715  1.2241
   22MOL   H92620708   1.398   4.355   0.061  1.1945 -0.6308  0.3209
   22MOL   H92720709   1.325   4.463   0.180 -0.3238 -0.8390 -0.6408
   22MOL   H92820710   1.320   4.636   7.967 -2.4635 -0.0728 -0.9711
   22MOL   H92920711   1.391   4.524   7.865 -1.8194  1.7622 -1.7579
   22MOL   H93020712   1.172   4.370   7.930 -0.5956 -0.2924 -1.4915
   22MOL   H93120713   1.122   4.536   0.014  1.2232 -0.2309  1.3148
   22MOL   H93220714   1.148   4.631   7.771  1.8679 -0.5571  1.0867
   22MOL   H93320715   1.200   4.485   7.702 -0.2560 -0.5742  0.0854
   22MOL   H93420716   0.933   4.513   7.835  2.6057  2.3919  1.5160
   22MOL   H93520717   0.984   4.374   7.739  0.2575  0.7271  2.8011
   22MOL   H93620718   0.940   4.644   7.611  0.5372 -0.7759 -3.2138
   22MOL   H93720719   0.832   4.499   7.602 -0.1012 -1.4116 -0.8405
   22MOL   H93820720   1.259   4.465   7.437  0.7566  1.2888 -1.3610
   22MOL   H93920721   1.437   4.364   7.291  0.0894  1.2057 -0.0693
   22MOL   H94020722   1.154   4.195   7.041  0.2375 -0.3084 -0.0451
   22MOL   H94120723   0.967   4.292   7.171  0.7857  1.4318  0.1861
   22MOL   H94220724   1.455   4.060   6.967 -0.7127 -1.7273  0.7717
   23MOL     O120725   1.640   5.767   5.322 -0.2677 -0.0281 -0.0270
   23MOL     C220726   1.511   5.713   5.280  0.2851 -0.4356 -0.5237
   23MOL     C320727   1.506   5.566   5.261 -0.0193  0.7740 -0.1522
   23MOL     C420728   1.374   5.504   5.196 -0.1855 -0.0366 -0.1397
   23MOL     C520729   1.375   5.348   5.185 -0.4430 -0.4269 -0.0458
   23MOL     C620730   1.242   5.291   5.131  0.1225 -0.1099  0.2589
   23MOL     C720731   1.238   5.142   5.159 -0.2865  0.1170  0.7548
   23MOL     C820732   1.127   5.074   5.090 -0.0227 -0.9124 -0.3633
   23MOL     C920733   0.986   5.108   5.140  0.0918  1.0343  0.5141
   23MOL    C1020734   0.954   5.025   5.270  0.1908 -0.4391  0.1363
   23MOL    C1120735   0.803   5.009   5.294  0.4618 -0.1291 -0.2074
   23MOL    O1220736   0.794   4.921   5.406 -0.1071  0.2153 -0.1575
   23MOL    C1320737   0.686   4.891   5.473  0.3233  0.2421 -0.3886
   23MOL    O1420738   0.572   4.928   5.435  0.6017 -0.3834  0.0494
   23MOL    C1520739   0.707   4.801   5.592  0.0522  0.1295  0.0007
   23MOL    C1620740   0.829   4.735   5.611  0.3370  0.0126 -0.0182
   23MOL    C1720741   0.852   4.662   5.729  0.0608  0.6187 -0.4608
   23MOL    C1820742   0.754   4.652   5.829 -1.1018  0.3205 -0.1631
   23MOL    C1920743   0.787   4.586   5.951  0.3475  0.2381 -0.5815
   23MOL    O2020744   0.898   4.536   5.974  0.0229  0.3067 -1.0521
   23MOL    O2120745   0.677   4.572   6.037 -0.3210  0.3753 -0.0593
   23MOL    C2220746   0.627   4.711   5.808 -0.1510  0.2290 -0.0958
   23MOL    C2320747   0.605   4.784   5.687  0.5015 -0.5167 -0.1028
   23MOL    H2420748   1.428   5.742   5.344 -0.6204 -0.6749 -1.5614
   23MOL    H2520749   1.490   5.747   5.178  2.7532 -0.7620 -1.1853
   23MOL    H2620750   1.511   5.530   5.364  1.1497 -0.3399 -0.5798
   23MOL    H2720751   1.590   5.525   5.205  0.1137  0.0844  0.5456
   23MOL    H2820752   1.286   5.531   5.254  0.4285 -0.0348  0.7960
   23MOL    H2920753   1.362   5.537   5.093  1.6900 -0.4139 -0.4876
   23MOL    H3020754   1.400   5.298   5.278 -0.5782 -0.6306 -0.1210
   23MOL    H3120755   1.446   5.311   5.110 -1.5156 -5.4362  1.2269
   23MOL    H3220756   1.154   5.337   5.174  1.9571  1.8942  1.9560
   23MOL    H3320757   1.237   5.313   5.024  0.8599  2.5591  0.7404
   23MOL    H3420758   1.328   5.097   5.119  0.3561  1.8188  0.2420
   23MOL    H3520759   1.233   5.130   5.267 -1.2056  2.3699  1.0016
   23MOL    H3620760   1.146   5.095   4.985  2.6944  2.8722  0.7644
   23MOL    H3720761   1.146   4.967   5.102 -2.1229 -1.0436  2.2834
   23MOL    H3820762   0.963   5.212   5.164  0.3699  1.4591 -1.0230
   23MOL    H3920763   0.914   5.068   5.069 -2.7260  1.9414  2.7414
   23MOL    H4020764   0.993   5.082   5.354 -0.2779 -0.8938  0.6618
   23MOL    H4120765   1.009   4.931   5.273 -0.4919 -0.8203  0.8582
   23MOL    H4220766   0.750   4.966   5.209 -0.3915 -1.1743  0.8336
   23MOL    H4320767   0.768   5.108   5.321  1.3705  0.5078 -1.3511
   23MOL    H4420768   0.898   4.730   5.528  2.1645 -0.1267  1.5042
   23MOL    H4520769   0.951   4.627   5.756  1.4123  3.4151 -1.6787
   23MOL    H4620770   0.555   4.688   5.886  0.2451 -0.5304  0.0506
   23MOL    H4720771   0.509   4.826   5.661  0.1921 -0.2155  1.4629
   23MOL    H4820772   1.656   5.740   5.411  1.9588  0.0543 -0.3716
   23MOL    O4920773   0.697   4.482   6.158 -0.1500 -0.4217 -0.0869
   23MOL    C5020774   0.736   4.561   6.269  0.0399 -0.2834  0.1225
   23MOL    C5120775   0.624   4.651   6.333  0.1775 -0.1589 -0.2253
   23MOL    C5220776   0.680   4.728   6.458 -0.1269  0.0864 -0.1063
   23MOL    C5320777   0.579   4.794   6.552 -0.6214 -0.0543  0.1197
   23MOL    C5420778   0.490   4.697   6.646 -0.4235 -0.3477  0.4980
   23MOL    C5520779   0.411   4.774   6.747  0.5497  0.3516  0.8991
   23MOL    C5620780   0.350   4.692   6.861 -0.3655 -0.1773  0.0553
   23MOL    C5720781   0.437   4.677   6.978 -0.2356 -0.7255 -0.3046
   23MOL    C5820782   0.369   4.581   7.085 -0.3430  0.0041  0.1697
   23MOL    C5920783   0.433   4.443   7.094 -0.2026  0.6268 -0.3249
   23MOL    O6020784   0.478   4.384   6.976 -0.4979 -0.3061 -0.3603
   23MOL    C6120785   0.396   4.292   6.917  0.1085  0.3392  0.2797
   23MOL    O6220786   0.301   4.229   6.962 -0.2874 -0.0327  0.4092
   23MOL    C6320787   0.438   4.256   6.777  0.1625 -0.1070  0.0736
   23MOL    C6420788   0.544   4.340   6.725 -0.7514 -0.0763  0.3655
   23MOL    C6520789   0.583   4.326   6.594  0.5034 -0.8065  1.2702
   23MOL    C6620790   0.518   4.239   6.507  0.4488 -0.2167  0.8639
   23MOL    C6720791   0.552   4.224   6.365 -0.3348 -0.1620  0.0298
   23MOL    O6820792   0.471   4.186   6.276  0.3819 -0.3864  0.0728
   23MOL    O6920793   0.680   4.258   6.342  0.2955  0.7658 -0.1327
   23MOL    C7020794   0.414   4.157   6.554  0.9449 -0.5751  0.5889
   23MOL    C7120795   0.369   4.172   6.688 -0.5033 -0.1642  0.6262
   23MOL    H7220796   0.779   4.494   6.344  0.6159 -1.1136 -0.9279
   23MOL    H7320797   0.815   4.630   6.238  0.9376 -0.6668  1.4641
   23MOL    H7420798   0.551   4.577   6.366 -1.6119  1.4351 -0.5389
   23MOL    H7520799   0.578   4.714   6.256 -2.8200 -3.5445 -1.3754
   23MOL    H7620800   0.745   4.657   6.509  1.7632  1.4145 -0.5930
   23MOL    H7720801   0.744   4.807   6.418 -0.5874  0.1910 -0.6313
   23MOL    H7820802   0.517   4.867   6.499 -0.4147  0.6957  0.8936
   23MOL    H7920803   0.642   4.863   6.608 -0.0265 -0.8923  0.4889
   23MOL    H8020804   0.409   4.652   6.589 -0.1393  1.0128 -1.0146
   23MOL    H8120805   0.555   4.629   6.701 -2.8652 -3.7182 -0.5965
   23MOL    H8220806   0.470   4.856   6.786  0.8408  0.8498 -0.5881
   23MOL    H8320807   0.334   4.838   6.704  2.2281  1.7317 -0.0957
   23MOL    H8420808   0.259   4.747   6.883 -0.2140 -0.8377  2.4534
   23MOL    H8520809   0.318   4.592   6.833 -0.4788  0.0331 -0.5737
   23MOL    H8620810   0.537   4.643   6.952  0.3587 -0.5506  1.6368
   23MOL    H8720811   0.441   4.759   7.050  1.3404  0.2148 -1.4374
   23MOL    H8820812   0.261   4.574   7.082 -0.1648 -2.9520 -1.3038
   23MOL    H8920813   0.373   4.624   7.185 -0.5717 -0.6264  0.4554
   23MOL    H9020814   0.375   4.371   7.152 -0.4642  2.4188  1.7258
   23MOL    H9120815   0.528   4.444   7.148 -1.0341 -1.0004  1.2366
   23MOL    H9220816   0.600   4.404   6.792 -1.5241 -0.3596  1.2966
   23MOL    H9320817   0.656   4.397   6.558 -0.0817 -0.7485  0.1780
   23MOL    H9420818   0.366   4.082   6.492  2.5965 -1.7148  0.6603
   23MOL    H9520819   0.282   4.118   6.723 -0.0450 -2.6671 -1.8611
   23MOL    O9620820   0.726   4.222   6.199 -0.5149  0.4775 -0.1468
   23MOL    C9720821   0.801   4.104   6.213 -0.2183 -0.4042 -0.3888
   23MOL    C9820822   0.869   4.085   6.078 -0.1322  0.3590 -0.6027
   23MOL    C9920823   0.941   3.958   6.048 -0.6841  0.3368  0.8216
   23MOL   C10020824   1.047   3.964   5.931 -0.0405  0.1409  0.1946
   23MOL   C10120825   0.988   4.005   5.796 -0.0605 -0.8512 -0.1863
   23MOL   C10220826   1.075   3.963   5.681 -0.8422 -0.0895  0.8023
   23MOL   C10320827   1.048   4.039   5.545  0.3867  0.0992  0.1130
   23MOL   C10420828   1.175   4.050   5.455 -0.3905  0.0427  0.6372
   23MOL   C10520829   1.144   4.153   5.338 -0.3736 -0.0967  0.0372
   23MOL   C10620830   1.267   4.162   5.239  0.3275  0.2836 -0.6725
   23MOL   O10720831   1.266   4.267   5.142 -0.0794  0.4958 -0.4853
   23MOL   C10820832   1.379   4.265   5.066  0.5126  0.1183  0.2446
   23MOL   O10920833   1.465   4.176   5.084 -0.0732  0.2130 -0.1808
   23MOL   C11020834   1.381   4.368   4.951  0.1235  0.3661 -0.3297
   23MOL   C11120835   1.287   4.467   4.939  0.1284 -0.2143  0.1153
   23MOL   C11220836   1.277   4.549   4.830 -0.3617 -0.5726  0.6274
   23MOL   C11320837   1.371   4.538   4.727  0.4603  0.4063  0.5417
   23MOL   C11420838   1.355   4.629   4.608 -0.2555  0.4817 -0.7865
   23MOL   O11520839   1.256   4.702   4.590 -0.2306  0.3853 -0.2008
   23MOL   O11620840   1.457   4.615   4.520  0.1142  0.0932  0.2268
   23MOL   C11720841   1.463   4.430   4.740  0.8963 -0.8510  0.5028
   23MOL   C11820842   1.473   4.351   4.851 -0.2964  0.6037  0.1135
   23MOL   H11920843   0.868   4.119   6.297 -0.7747 -0.7517  0.1258
   23MOL   H12020844   0.736   4.025   6.251  1.0683 -1.5789 -0.6059
   23MOL   H12120845   0.932   4.174   6.078  0.4226 -0.0346 -1.1803
   23MOL   H12220846   0.806   4.116   5.994  0.8500 -1.8238 -2.1928
   23MOL   H12320847   0.989   3.926   6.141 -1.0810 -0.3158  0.8018
   23MOL   H12420848   0.877   3.875   6.022  0.4397  0.3438 -2.1311
   23MOL   H12520849   1.095   3.866   5.928  1.6063  0.9165  0.4410
   23MOL   H12620850   1.135   4.025   5.948  0.3517 -0.8502  1.8201
   23MOL   H12720851   0.882   3.982   5.786  0.0727 -2.1266  1.1755
   23MOL   H12820852   0.978   4.113   5.783 -1.3070 -0.9820 -0.3126
   23MOL   H12920853   1.176   3.990   5.713 -1.0060  1.7582 -0.1475
   23MOL   H13020854   1.090   3.856   5.667 -0.1240  0.1743 -0.5455
   23MOL   H13120855   0.965   3.991   5.493  0.0210  0.4687  0.3516
   23MOL   H13220856   1.021   4.141   5.573  0.2454  0.5295 -1.5498
   23MOL   H13320857   1.259   4.098   5.505  0.2513  0.7954 -1.1450
   23MOL   H13420858   1.204   3.950   5.421  0.3074  0.0331  1.2453
   23MOL   H13520859   1.110   4.246   5.382 -0.3517  0.0884 -0.3385
   23MOL   H13620860   1.069   4.117   5.268  1.0454 -0.7064 -1.2114
   23MOL   H13720861   1.269   4.065   5.190  1.1598 -0.0206 -0.0549
   23MOL   H13820862   1.356   4.167   5.301 -1.6511 -2.6957  2.6022
   23MOL   H13920863   1.220   4.493   5.020 -1.2736  1.8348 -1.6560
   23MOL   H14020864   1.197   4.621   4.815  1.1468  1.0179 -0.0283
   23MOL   H14120865   1.523   4.414   4.651  0.1039 -3.0524  0.3147
   23MOL   H14220866   1.544   4.269   4.853 -1.5947 -0.5418  0.3737
   23MOL   O14320867   1.433   4.664   4.381 -0.0328 -0.3109  0.0736
   23MOL   C14420868   1.466   4.803   4.372 -0.2145  0.2178 -0.2687
   23MOL   C14520869   1.621   4.818   4.373  0.0849 -0.3118  0.2460
   23MOL   C14620870   1.673   4.956   4.338  0.1977  0.0781  0.4553
   23MOL   C14720871   1.827   4.946   4.352 -0.3007  0.8601 -0.2198
   23MOL   C14820872   1.907   4.992   4.232  0.7573 -0.3048  0.0035
   23MOL   C14920873   2.049   5.013   4.258 -0.2864 -0.0974  0.3579
   23MOL   C15020874   2.131   5.055   4.137  0.3587  0.1252  0.1309
   23MOL   C15120875   2.272   5.093   4.165 -0.2146 -0.1568  0.5825
   23MOL   C15220876   2.352   5.146   4.043 -0.2963 -0.1273 -0.2126
   23MOL   C15320877   2.506   5.160   4.067 -0.0068 -0.1930 -0.6826
   23MOL   O15420878   2.584   5.197   3.945 -0.1219  0.4475  0.1731
   23MOL   C15520879   2.675   5.111   3.894 -0.0278 -0.1703 -0.0883
   23MOL   O15620880   2.698   4.997   3.936  0.0553 -0.5030  0.0976
   23MOL   C15720881   2.754   5.166   3.771  0.0714 -0.0805 -0.0696
   23MOL   C15820882   2.724   5.294   3.713 -0.0876  0.6095  0.6412
   23MOL   C15920883   2.799   5.338   3.598 -1.2004  0.4729  0.0418
   23MOL   C16020884   2.899   5.255   3.542 -0.7952 -0.4270 -0.0020
   23MOL   C16120885   2.997   5.296   3.433 -0.3802 -1.2308 -0.0176
   23MOL   O16220886   3.081   5.216   3.387  0.1634 -0.9120 -0.7450
   23MOL   O16320887   2.992   5.427   3.403  0.1816 -0.2592  0.6072
   23MOL   C16420888   2.917   5.127   3.592 -0.2656 -0.4840 -1.1047
   23MOL   C16520889   2.851   5.083   3.711 -0.0871 -1.0320 -0.0747
   23MOL   H16620890   1.417   4.834   4.280 -1.7661 -0.0604  0.4378
   23MOL   H16720891   1.422   4.865   4.451 -2.9587 -0.0624 -1.4991
   23MOL   H16820892   1.643   4.743   4.297  0.7529 -1.0724  1.1813
   23MOL   H16920893   1.651   4.776   4.469 -0.7936 -0.0137  0.6547
   23MOL   H17020894   1.635   4.993   4.243 -0.5507 -1.4477  0.1384
   23MOL   H17120895   1.640   5.036   4.403 -1.2951  0.4491 -0.7215
   23MOL   H17220896   1.851   4.842   4.376 -2.5625  0.3745  0.0347
   23MOL   H17320897   1.846   5.002   4.443 -0.5320  1.3439 -0.4635
   23MOL   H17420898   1.888   4.927   4.147  2.5501  0.2063 -0.8113
   23MOL   H17520899   1.871   5.089   4.196  2.6249 -0.1034 -1.3858
   23MOL   H17620900   2.063   5.079   4.344 -1.8262 -1.3121  1.5644
   23MOL   H17720901   2.092   4.914   4.277  1.7662  0.4817 -1.0745
   23MOL   H17820902   2.133   4.975   4.063  0.2713  0.4762 -0.2556
   23MOL   H17920903   2.072   5.135   4.090  0.4082 -0.5945 -1.1830
   23MOL   H18020904   2.273   5.162   4.249  0.2854  0.9967 -0.3699
   23MOL   H18120905   2.319   5.003   4.204  0.0885  0.4897  1.7121
   23MOL   H18220906   2.302   5.237   4.008 -1.2640 -0.4044  0.4199
   23MOL   H18320907   2.334   5.074   3.963 -0.6632 -1.2323  0.8605
   23MOL   H18420908   2.551   5.067   4.104 -0.3017 -0.2261 -0.3962
   23MOL   H18520909   2.524   5.237   4.142  0.2941 -1.4351  0.5630
   23MOL   H18620910   2.645   5.354   3.755 -0.4452  0.7934 -0.2954
   23MOL   H18720911   2.779   5.434   3.553  0.6693  1.2563  0.8510
   23MOL   H18820912   2.993   5.059   3.557  0.2226 -0.0577 -0.8872
   23MOL   H18920913   2.882   4.990   3.757  1.1102 -1.2026 -1.2190
   23MOL   O19020914   3.106   5.483   3.326  0.1993  0.5099  0.2319
   23MOL   C19120915   3.186   5.562   3.414  0.1073 -0.2763  0.2000
   23MOL   C19220916   3.337   5.562   3.374 -0.4503 -0.0212  0.2137
   23MOL   C19320917   3.410   5.427   3.379  0.4039  0.0589 -0.8465
   23MOL   C19420918   3.463   5.383   3.512 -0.0587  0.3651 -0.7722
   23MOL   C19520919   3.544   5.253   3.506  0.0463 -0.0451 -0.7248
   23MOL   C19620920   3.569   5.191   3.646 -0.6005  0.4568 -0.2564
   23MOL   C19720921   3.662   5.061   3.640 -0.1160  0.3560  0.5014
   23MOL   C19820922   3.587   4.933   3.640 -0.6612  0.7059 -0.2728
   23MOL   C19920923   3.680   4.808   3.656  0.8395 -0.0614 -0.1863
   23MOL   C20020924   3.605   4.681   3.634  0.3076  0.0628 -0.2680
   23MOL   O20120925   3.688   4.580   3.580 -0.5979  0.4901 -0.3093
   23MOL   C20220926   3.778   4.517   3.660  0.0672 -0.0782 -0.4323
   23MOL   O20320927   3.798   4.541   3.775  0.1195 -0.2241 -0.1168
   23MOL   C20420928   3.846   4.412   3.577 -0.0399  0.0053  0.0336
   23MOL   C20520929   3.829   4.404   3.439 -0.1646  0.1282  0.8968
   23MOL   C20620930   3.893   4.300   3.363 -0.8636 -0.1120 -0.7854
   23MOL   C20720931   3.977   4.206   3.430  0.2448 -1.2330 -0.0016
   23MOL   C20820932   4.027   4.090   3.345 -0.3274  0.4126  0.0445
   23MOL   O20920933   4.104   4.005   3.394 -0.2136  0.2750  0.0089
   23MOL   O21020934   3.983   4.083   3.214 -0.2790 -0.3506  0.4114
   23MOL   C21120935   3.993   4.215   3.568 -0.1766 -0.4104  0.4029
   23MOL   C21220936   3.929   4.318   3.642 -0.3646  0.6698  0.0729
   23MOL   H21320937   3.153   5.665   3.412  2.0671  0.4740  3.3466
   23MOL   H21420938   3.168   5.516   3.511  0.3646  1.4758  1.0837
   23MOL   H21520939   3.392   5.636   3.433  0.1174  0.2850 -0.6986
   23MOL   H21620940   3.340   5.591   3.269 -0.2413 -1.6087 -0.2271
   23MOL   H21720941   3.337   5.362   3.332 -1.1753  1.8738 -0.9354
   23MOL   H21820942   3.497   5.432   3.313  1.5395 -1.4148  0.4830
   23MOL   H21920943   3.375   5.373   3.577  2.1491  1.9972  2.6389
   23MOL   H22020944   3.523   5.464   3.554  0.5118 -0.0159 -0.8539
   23MOL   H22120945   3.488   5.176   3.452 -1.2747  0.2313  0.2107
   23MOL   H22220946   3.637   5.266   3.452  0.0480 -0.3691 -0.7995
   23MOL   H22320947   3.615   5.266   3.710 -0.4278 -1.6106  2.1261
   23MOL   H22420948   3.478   5.164   3.699  0.4813 -2.1293  0.3947
   23MOL   H22520949   3.724   5.066   3.550  0.8652 -0.0077  1.1486
   23MOL   H22620950   3.737   5.051   3.718 -0.0090  0.1116  0.3673
   23MOL   H22720951   3.521   4.941   3.726 -0.3641  1.8318 -0.1340
   23MOL   H22820952   3.533   4.921   3.546 -2.6827 -1.7664  1.1607
   23MOL   H22920953   3.725   4.806   3.755  1.1160 -0.5485 -0.3168
   23MOL   H23020954   3.765   4.821   3.589  1.9212 -1.9637  0.7689
   23MOL   H23120955   3.522   4.688   3.564 -1.2036 -3.5529  1.0677
   23MOL   H23220956   3.563   4.642   3.727 -0.9263  1.0860 -0.3962
   23MOL   H23320957   3.774   4.478   3.383  0.7737  0.0068 -0.1951
   23MOL   H23420958   3.879   4.301   3.255 -4.3813 -0.1683 -0.3962
   23MOL   H23520959   4.043   4.132   3.616  0.2659 -0.2567  0.2105
   23MOL   H23620960   3.954   4.320   3.748 -0.1046 -0.3984  0.0351
   23MOL   O23720961   4.061   3.979   3.132 -0.1255  0.1963 -0.2499
   23MOL   C23820962   3.970   3.869   3.111  0.7536 -0.5721 -0.0924
   23MOL   C23920963   4.035   3.761   3.027 -0.6497  0.0692 -0.4720
   23MOL   C24020964   4.188   3.740   3.071  1.3317  0.3849  0.1735
   23MOL   C24120965   4.204   3.712   3.224  0.0587 -0.8632  0.1110
   23MOL   C24220966   4.356   3.697   3.251 -0.7194  0.2425  0.4961
   23MOL   C24320967   4.396   3.697   3.398 -0.2154  0.7088 -0.5891
   23MOL   C24420968   4.539   3.642   3.432 -0.5637  0.0819 -0.1861
   23MOL   C24520969   4.550   3.627   3.582  0.3326 -0.5063 -0.4053
   23MOL   C24620970   4.689   3.600   3.643 -0.0700 -1.1159  0.4881
   23MOL   C24720971   4.684   3.592   3.800  0.2925  0.0881  0.0066
   23MOL   O24820972   4.821   3.596   3.844  0.5281 -0.0568 -0.5933
   23MOL   C24920973   4.873   3.492   3.909 -0.1450  0.2336 -0.1730
   23MOL   O25020974   4.810   3.392   3.938 -0.6580 -0.1090 -0.4046
   23MOL   C25120975   5.015   3.512   3.945 -0.2757  0.6063  0.4897
   23MOL   C25220976   5.100   3.409   3.987 -0.0384  0.1214 -0.4318
   23MOL   C25320977   5.234   3.440   4.014  0.1864 -0.0555 -0.4806
   23MOL   C25420978   5.291   3.564   4.004  0.4487  0.5201  0.6103
   23MOL   C25520979   5.442   3.581   4.010 -0.2086  0.0072 -0.0489
   23MOL   O25620980   5.520   3.494   3.970  0.0239 -0.2348  0.4679
   23MOL   O25720981   5.477   3.706   4.029 -0.4759 -0.4662  0.0918
   23MOL   C25820982   5.203   3.671   3.971 -0.0643 -0.4098  0.6755
   23MOL   C25920983   5.068   3.645   3.931 -0.0868 -0.0984  0.6881
   23MOL   H26020984   3.937   3.830   3.207  1.3402  2.4889  1.4250
   23MOL   H26120985   3.878   3.911   3.070  1.4354  2.4691  1.2999
   23MOL   H26220986   4.034   3.784   2.920  0.1780  1.1931 -0.2530
   23MOL   H26320987   3.981   3.667   3.030  1.1830 -1.0311 -1.0261
   23MOL   H26420988   4.224   3.647   3.029 -1.8191 -0.6986 -0.2842
   23MOL   H26520989   4.247   3.828   3.044  0.1497  1.7074  1.7523
   23MOL   H26620990   4.157   3.616   3.244 -1.1936 -0.1692  0.5902
   23MOL   H26720991   4.159   3.793   3.282 -1.7276 -1.4154 -0.4810
   23MOL   H26820992   4.389   3.604   3.203  1.8911  1.0500  0.6587
   23MOL   H26920993   4.409   3.777   3.199 -0.9083 -0.0608 -0.1772
   23MOL   H27020994   4.387   3.801   3.428 -0.1263  0.2912  0.9667
   23MOL   H27120995   4.320   3.639   3.451  0.7411  0.7219  0.8364
   23MOL   H27220996   4.561   3.543   3.392  0.8228  0.2731  0.0880
   23MOL   H27320997   4.610   3.713   3.391  2.1403 -2.2077  0.3605
   23MOL   H27420998   4.500   3.704   3.641 -0.4376 -0.3934 -1.1909
   23MOL   H27520999   4.489   3.539   3.601 -1.0265  0.3662 -0.6353
   23MOL   H27621000   4.758   3.678   3.612 -1.4346 -0.7192 -1.6504
   23MOL   H27721001   4.713   3.505   3.595  2.1227 -0.3096 -0.0386
   23MOL   H27821002   4.628   3.505   3.835  0.2964 -0.1967 -0.6867
   23MOL   H27921003   4.623   3.673   3.842  0.8588  1.0810 -1.0578
   23MOL   H28021004   5.072   3.306   4.001  0.0812  0.0597 -0.6490
   23MOL   H28121005   5.307   3.361   4.024  2.9816  2.5518  0.3511
   23MOL   H28221006   5.232   3.775   3.973  1.3711 -0.8289  1.9519
   23MOL   H28321007   5.016   3.729   3.890  1.7814  1.9449  2.3696
   23MOL   O28421008   5.628   3.729   4.010  0.1558 -0.3707 -0.3726
   23MOL   C28521009   5.647   3.799   3.890  0.3400 -0.3591  0.2967
   23MOL   C28621010   5.794   3.817   3.871  0.0615 -0.0733  0.5914
   23MOL   C28721011   5.864   3.705   3.796  0.0023  0.3511  0.2693
   23MOL   C28821012   5.932   3.616   3.892 -0.3412  0.5974 -0.7900
   23MOL   C28921013   5.944   3.470   3.837  0.6671 -0.3132 -0.7334
   23MOL   C29021014   6.018   3.376   3.934 -0.8815 -0.4783  0.1135
   23MOL   C29121015   6.024   3.235   3.888  0.1045  0.3225  0.0650
   23MOL   C29221016   6.124   3.145   3.965  0.7758  0.0081 -0.3646
   23MOL   C29321017   6.116   3.008   3.902 -0.3647  0.8751  0.0002
   23MOL   C29421018   6.189   2.897   3.982 -0.3945 -0.5756  0.5723
   23MOL   O29521019   6.149   2.760   3.944 -0.4274 -0.1535 -0.1852
   23MOL   C29621020   6.156   2.658   4.034  0.4169  0.1487  0.1084
   23MOL   O29721021   6.192   2.675   4.150 -0.7534 -0.0642  0.7439
   23MOL   C29821022   6.114   2.528   3.970  0.0318 -0.1424 -0.1655
   23MOL   C29921023   6.095   2.514   3.824 -0.5858 -0.2565 -0.4282
   23MOL   C30021024   6.061   2.396   3.770 -0.7828  0.5855  0.4614
   23MOL   C30121025   6.039   2.283   3.852  0.0237  0.1440  0.2402
   23MOL   C30221026   5.985   2.161   3.787 -0.5267  0.1666 -1.0336
   23MOL   O30321027   5.969   2.152   3.667 -0.1015 -0.0675  0.2486
   23MOL   O30421028   5.955   2.067   3.875  0.0047 -0.3616  0.1497
   23MOL   C30521029   6.041   2.299   3.992  0.7160  0.1660 -0.0870
   23MOL   C30621030   6.082   2.419   4.049  0.3107 -0.2493 -0.0967
   23MOL   H30721031   5.589   3.738   3.821 -1.6625  3.2779 -1.3685
   23MOL   H30821032   5.599   3.897   3.895  1.3016  0.1168  0.5093
   23MOL   H30921033   5.837   3.836   3.969  0.4671 -0.9009  0.5801
   23MOL   H31021034   5.806   3.905   3.809 -1.5044  0.0640  0.4636
   23MOL   H31121035   5.799   3.646   3.732  0.7943 -0.2681  0.0461
   23MOL   H31221036   5.938   3.749   3.730  0.9041  0.0377  1.0531
   23MOL   H31321037   5.878   3.602   3.986  0.1738  2.6851 -0.1593
   23MOL   H31421038   6.025   3.669   3.911 -0.4835  0.9301 -1.0305
   23MOL   H31521039   5.846   3.426   3.822  0.1037 -0.1527  2.2027
   23MOL   H31621040   5.993   3.479   3.740 -1.6171 -0.8316 -1.9569
   23MOL   H31721041   6.121   3.413   3.936 -1.4848  1.2360  0.2352
   23MOL   H31821042   5.994   3.376   4.040  0.2117  0.3773  0.3820
   23MOL   H31921043   5.919   3.206   3.899  0.2333  0.1552  0.8245
   23MOL   H32021044   6.045   3.243   3.781 -2.5831  1.0635 -0.4620
   23MOL   H32121045   6.221   3.195   3.952  0.1933  0.9889 -0.9924
   23MOL   H32221046   6.089   3.137   4.068 -2.2086 -0.4850 -1.3846
   23MOL   H32321047   6.150   3.018   3.799  1.9282 -1.6447  0.4709
   23MOL   H32421048   6.011   2.981   3.889  0.1280 -0.3256 -1.6048
   23MOL   H32521049   6.173   2.909   4.090 -0.1652  0.0104  0.5416
   23MOL   H32621050   6.296   2.913   3.966 -0.7564 -0.4440 -1.8976
   23MOL   H32721051   6.113   2.599   3.759  0.6764  0.6552  1.0459
   23MOL   H32821052   6.059   2.390   3.662 -2.3333  3.3668  0.2575
   23MOL   H32921053   6.020   2.223   4.065 -1.2648  1.5810  0.8204
   23MOL   H33021054   6.091   2.409   4.156 -1.6016 -0.5892  0.0511
   23MOL   O33121055   5.874   1.966   3.809 -0.1291 -0.0997  0.0612
   23MOL   C33221056   5.742   1.973   3.861 -0.3587 -0.0354  0.5850
   23MOL   C33321057   5.650   1.857   3.803 -0.4634 -0.2467  0.2070
   23MOL   C33421058   5.527   1.844   3.888 -0.4230  0.5307  0.5727
   23MOL   C33521059   5.413   1.956   3.861  0.4175 -0.3050  0.1574
   23MOL   C33621060   5.286   1.921   3.934 -0.4915 -0.3640 -0.1350
   23MOL   C33721061   5.172   2.022   3.911  0.7013  0.1085  1.0129
   23MOL   C33821062   5.040   2.002   3.983 -0.1190  0.2950 -0.0848
   23MOL   C33921063   4.938   2.120   3.987 -0.3791 -0.8769  0.0070
   23MOL   C34021064   4.861   2.147   3.857 -0.1741  0.0282  0.4274
   23MOL   C34121065   4.777   2.277   3.865  0.0729  0.1640  0.9650
   23MOL   O34221066   4.709   2.303   3.743  0.0097 -0.2424 -0.5320
   23MOL   C34321067   4.629   2.413   3.722  0.5184  0.0290 -1.0377
   23MOL   O34421068   4.615   2.504   3.800 -0.5703  0.9805 -0.1904
   23MOL   C34521069   4.567   2.422   3.587 -0.0715 -0.1568 -0.4764
   23MOL   C34621070   4.461   2.512   3.559  1.0074  0.1266 -0.4543
   23MOL   C34721071   4.405   2.519   3.429 -0.4055 -0.0061  0.2416
   23MOL   C34821072   4.460   2.432   3.326 -0.0339 -0.4084 -0.2202
   23MOL   C34921073   4.407   2.447   3.187 -0.8999 -0.0868  0.7753
   23MOL   O35021074   4.467   2.398   3.090 -0.2826  0.1839  0.1773
   23MOL   O35121075   4.291   2.514   3.175 -0.7200  0.5723  0.3343
   23MOL   C35221076   4.556   2.335   3.359  0.0856  0.0325  0.2232
   23MOL   C35321077   4.617   2.331   3.488 -0.5032 -0.2826 -0.3580
   23MOL   H35421078   5.750   1.959   3.968  0.1311  0.4032  0.6083
   23MOL   H35521079   5.694   2.070   3.855 -0.7296 -0.2990 -0.9350
   23MOL   H35621080   5.716   1.772   3.818 -0.7163 -0.4862 -0.0219
   23MOL   H35721081   5.619   1.869   3.699  0.6887 -0.1263 -0.1210
   23MOL   H35821082   5.479   1.748   3.871 -2.9430  1.7897  0.3158
   23MOL   H35921083   5.558   1.850   3.993  0.3224  1.4585  0.3071
   23MOL   H36021084   5.399   1.973   3.754 -0.1021 -0.5661  0.1778
   23MOL   H36121085   5.446   2.052   3.900 -0.0037  0.3773 -1.1553
   23MOL   H36221086   5.246   1.831   3.887 -0.2428  0.1989 -1.4404
   23MOL   H36321087   5.297   1.904   4.042  0.5518 -1.1862 -0.3604
   23MOL   H36421088   5.212   2.117   3.949  0.5302 -0.2013  1.9806
   23MOL   H36521089   5.146   2.050   3.809 -0.1466 -0.5912  1.0420
   23MOL   H36621090   4.987   1.926   3.925  0.4826  0.8224 -1.3510
   23MOL   H36721091   5.067   1.963   4.081  0.8486 -1.1569 -0.9028
   23MOL   H36821092   4.867   2.093   4.065 -1.4516  2.5714  0.2861
   23MOL   H36921093   4.994   2.203   4.030 -2.3112  0.0782  0.7273
   23MOL   H37021094   4.794   2.071   3.816 -0.5278  2.1799 -3.1938
   23MOL   H37121095   4.931   2.153   3.773 -1.4149  0.4384 -0.5921
   23MOL   H37221096   4.849   2.356   3.885 -0.6197  1.3939 -1.2891
   23MOL   H37321097   4.697   2.266   3.938 -1.3064 -0.4111 -0.5985
   23MOL   H37421098   4.426   2.579   3.637  1.4541 -1.0042  0.7429
   23MOL   H37521099   4.327   2.586   3.397  0.5670  0.0376 -2.1695
   23MOL   H37621100   4.596   2.279   3.276  0.2882  0.4677  0.0289
   23MOL   H37721101   4.692   2.256   3.511 -0.8032 -0.5402 -0.2190
   23MOL   O37821102   4.240   2.525   3.037 -1.0907 -0.0273  0.1354
   23MOL   C37921103   4.143   2.435   3.012 -0.7793 -0.1320  0.2130
   23MOL   C38021104   4.052   2.484   2.892 -0.7326 -0.2615  0.5086
   23MOL   C38121105   3.967   2.359   2.857 -0.0252  0.3474  0.5913
   23MOL   C38221106   3.872   2.380   2.745  0.7787  0.2355  0.7724
   23MOL   C38321107   3.911   2.462   2.618 -0.1139 -0.6910 -0.2401
   23MOL   C38421108   3.816   2.468   2.502 -0.1489  0.2708 -0.8479
   23MOL   C38521109   3.771   2.328   2.462 -0.2326  0.0408 -0.2732
   23MOL   C38621110   3.674   2.324   2.337 -0.7118 -0.1340  0.3438
   23MOL   C38721111   3.638   2.182   2.301 -0.1951  0.1662  0.8382
   23MOL   C38821112   3.548   2.182   2.171  0.2315  0.0654 -0.7731
   23MOL   O38921113   3.617   2.193   2.045  0.2485  0.2882 -0.0764
   23MOL   C39021114   3.659   2.084   1.971 -1.0689  0.3275  0.0527
   23MOL   O39121115   3.704   2.098   1.855  0.0662 -0.0879 -0.0080
   23MOL   C39221116   3.668   1.956   2.042  0.5280 -0.6649  0.0791
   23MOL   C39321117   3.792   1.910   2.094  0.2209  0.3354 -0.3051
   23MOL   C39421118   3.794   1.795   2.176 -0.2452 -0.1155 -0.7914
   23MOL   C39521119   3.673   1.721   2.192  0.8417 -0.4019  0.2531
   23MOL   C39621120   3.665   1.605   2.279 -0.8109  0.3519 -0.4594
   23MOL   O39721121   3.564   1.556   2.328 -0.2066 -0.8166 -0.5759
   23MOL   O39821122   3.793   1.548   2.290 -0.1684  0.3021  0.1835
   23MOL   C39921123   3.551   1.763   2.136  0.2065  0.1034 -0.6357
   23MOL   C40021124   3.550   1.879   2.065 -0.4516  0.2622 -0.3270
   23MOL   H40121125   4.195   2.341   2.992 -0.8205 -0.0417 -0.3257
   23MOL   H40221126   4.078   2.425   3.099 -0.1348  0.6198  0.7861
   23MOL   H40321127   4.119   2.524   2.816 -0.6820  1.5177  1.4658
   23MOL   H40421128   3.983   2.564   2.918 -0.0581  0.8426 -1.0494
   23MOL   H40521129   4.019   2.264   2.849 -1.5504 -0.2631 -3.8380
   23MOL   H40621130   3.909   2.332   2.945 -4.0589 -1.3519 -2.4564
   23MOL   H40721131   3.776   2.414   2.784  0.4947  1.6805 -1.0996
   23MOL   H40821132   3.850   2.280   2.706 -1.9723  0.8147  0.7003
   23MOL   H40921133   3.936   2.564   2.646  0.3150 -1.1154  0.9645
   23MOL   H41021134   4.006   2.427   2.579 -0.4597 -0.8254 -0.9859
   23MOL   H41121135   3.734   2.531   2.538 -0.3099 -0.4083 -0.0078
   23MOL   H41221136   3.867   2.518   2.419 -0.2547 -0.6397 -1.4628
   23MOL   H41321137   3.859   2.266   2.446  2.4117  4.1284 -2.4669
   23MOL   H41421138   3.705   2.293   2.541  1.8543 -0.6745  1.2264
   23MOL   H41521139   3.590   2.391   2.357 -2.1728 -1.5184 -1.0362
   23MOL   H41621140   3.716   2.360   2.243 -1.1099  0.3745  0.3607
   23MOL   H41721141   3.579   2.140   2.382 -1.1590 -3.0859 -1.4422
   23MOL   H41821142   3.728   2.122   2.289 -0.3278  0.4659 -1.8885
   23MOL   H41921143   3.471   2.258   2.181 -0.3395 -0.6431  0.3194
   23MOL   H42021144   3.497   2.086   2.178 -1.1283  0.8503  0.2699
   23MOL   H42121145   3.875   1.976   2.073  0.1532  1.0388  1.5282
   23MOL   H42221146   3.887   1.766   2.221  0.4367  1.0643 -1.4201
   23MOL   H42321147   3.458   1.710   2.153  1.2965 -1.0040  2.1992
   23MOL   H42421148   3.451   1.907   2.031  0.0577  0.7657 -1.3951
   23MOL   O42521149   3.801   1.438   2.395  0.5159 -0.2701 -0.1881
   23MOL   C42621150   3.872   1.483   2.508 -0.1539  0.0072  0.2724
   23MOL   C42721151   4.014   1.524   2.477 -0.1924 -0.4607 -0.1491
   23MOL   C42821152   4.094   1.550   2.606 -0.0580  0.5644  0.2477
   23MOL   C42921153   4.243   1.562   2.585 -0.4118 -0.2638  0.3202
   23MOL   C43021154   4.279   1.694   2.510 -0.1112 -0.5341 -0.5266
   23MOL   C43121155   4.430   1.737   2.525  0.2442  0.4625 -0.2443
   23MOL   C43221156   4.466   1.855   2.444 -0.1302 -0.3104  0.4415
   23MOL   C43321157   4.475   1.848   2.290  0.0307  0.6252  0.2632
   23MOL   C43421158   4.533   1.978   2.236 -0.0508 -0.0670  0.0141
   23MOL   C43521159   4.529   1.993   2.082 -0.4283 -0.2132 -0.8690
   23MOL   O43621160   4.593   1.885   2.018  0.2443  0.5821  0.8114
   23MOL   C43721161   4.594   1.884   1.880 -0.0133  0.0131 -0.9136
   23MOL   O43821162   4.533   1.964   1.809 -0.2266  0.6003  0.2522
   23MOL   C43921163   4.672   1.769   1.827 -0.0072 -0.5379  0.2628
   23MOL   C44021164   4.682   1.758   1.687  0.3023 -0.5578 -0.1902
   23MOL   C44121165   4.749   1.649   1.629 -0.6054 -0.3053  0.2710
   23MOL   C44221166   4.822   1.558   1.711  0.1704  0.2087 -0.4856
   23MOL   C44321167   4.891   1.449   1.644  0.2940 -0.0779  0.2976
   23MOL   O44421168   4.892   1.439   1.521 -0.3958 -0.1222 -0.1577
   23MOL   O44521169   4.961   1.375   1.722 -0.2762  1.0036  0.4810
   23MOL   C44621170   4.803   1.567   1.852  0.7992  0.1070 -0.3280
   23MOL   C44721171   4.739   1.674   1.912  0.4231 -1.1705  0.2464
   23MOL   H44821172   3.823   1.562   2.565  3.2571  2.1308  0.4458
   23MOL   H44921173   3.869   1.412   2.591 -1.4446 -0.5069 -0.2061
   23MOL   H45021174   4.022   1.604   2.404 -2.0346 -0.2995 -0.1904
   23MOL   H45121175   4.068   1.445   2.423  2.5983  0.3528  1.3441
   23MOL   H45221176   4.056   1.639   2.656 -0.5372  0.9231 -0.7326
   23MOL   H45321177   4.076   1.473   2.681 -3.5593 -0.2778 -1.3313
   23MOL   H45421178   4.279   1.464   2.551 -0.8108 -0.6676  1.0525
   23MOL   H45521179   4.290   1.566   2.683  2.6036 -0.1769 -1.0717
   23MOL   H45621180   4.249   1.680   2.407 -0.6698  0.8824 -0.5599
   23MOL   H45721181   4.221   1.778   2.547  2.7260  0.8202  1.0681
   23MOL   H45821182   4.447   1.741   2.632 -4.3414  0.4755  0.5927
   23MOL   H45921183   4.491   1.654   2.490 -2.0545 -1.1287 -0.6180
   23MOL   H46021184   4.387   1.928   2.463 -1.5159 -2.1455  1.8418
   23MOL   H46121185   4.565   1.891   2.472 -0.1942 -1.2535  1.9132
   23MOL   H46221186   4.545   1.773   2.254  0.1159 -0.3491  2.3726
   23MOL   H46321187   4.379   1.828   2.244  0.3023  0.9347 -0.4348
   23MOL   H46421188   4.634   2.006   2.268 -0.2851  1.1002 -0.2706
   23MOL   H46521189   4.472   2.056   2.282  1.8012  0.4679  1.6651
   23MOL   H46621190   4.584   2.084   2.060 -0.6256  0.5890  1.7576
   23MOL   H46721191   4.423   2.013   2.061 -1.1780 -0.7434  2.1277
   23MOL   H46821192   4.647   1.835   1.620  1.5268  1.8620  1.8679
   23MOL   H46921193   4.753   1.653   1.521 -0.4394 -0.0625  0.2857
   23MOL   H47021194   4.839   1.486   1.913  1.4347  0.3517 -0.3767
   23MOL   H47121195   4.732   1.680   2.019  1.7548  1.6485  0.1999
   23MOL   O47221196   5.018   1.245   1.653  0.0611  0.0245 -0.1109
   23MOL   C47321197   5.143   1.270   1.598  0.2337 -0.2777 -0.1925
   23MOL   C47421198   5.187   1.133   1.545 -1.0448  0.5840  0.4806
   23MOL   C47521199   5.181   1.012   1.649 -0.3638 -0.5823 -0.1587
   23MOL   C47621200   5.080   0.902   1.610  0.7448  0.1869 -0.0401
   23MOL   C47721201   5.050   0.802   1.726 -0.0754  0.5278 -1.2228
   23MOL   C47821202   5.171   0.712   1.752 -0.1002 -0.2252 -0.7312
   23MOL   C47921203   5.160   0.619   1.876  0.1080 -0.3007 -0.1320
   23MOL   C48021204   5.189   0.697   2.009 -0.9147 -0.1760 -0.8605
   23MOL   C48121205   5.195   0.612   2.135 -0.3483 -0.1361 -0.6317
   23MOL   C48221206   5.192   0.692   2.270 -0.0554 -0.2270  0.1101
   23MOL   O48321207   5.216   0.595   2.365 -0.2066 -0.0497  0.3313
   23MOL   C48421208   5.154   0.606   2.485 -1.1773 -0.3335  0.8409
   23MOL   O48521209   5.124   0.712   2.541 -0.3826 -0.5121  0.7022
   23MOL   C48621210   5.138   0.482   2.556 -0.3894 -0.4189 -0.0364
   23MOL   C48721211   5.180   0.360   2.498 -0.0336 -0.4103 -0.1325
   23MOL   C48821212   5.173   0.241   2.570  0.0981  0.2348  0.3636
   23MOL   C48921213   5.117   0.239   2.698  0.1869  1.0867  0.0288
   23MOL   C49021214   5.118   0.120   2.793 -0.2753  0.5308 -0.7794
   23MOL   O49121215   5.054   0.120   2.899 -0.7965 -0.0647 -0.1472
   23MOL   O49221216   5.206   0.021   2.766  0.0765  0.3134  0.0745
   23MOL   C49321217   5.059   0.358   2.748  0.1737 -0.2685 -0.3943
   23MOL   C49421218   5.071   0.481   2.680  0.0165 -0.0168 -0.0787
   23MOL   H49521219   5.135   1.336   1.512  3.1027  0.0715 -0.2569
   23MOL   H49621220   5.217   1.314   1.666 -0.7683  0.7316  0.2537
   23MOL   H49721221   5.284   1.143   1.496 -1.6925  1.3634 -0.6842
   23MOL   H49821222   5.128   1.102   1.459  0.0344 -0.5239  0.1227
   23MOL   H49921223   5.281   0.969   1.640  1.2685  3.2389 -1.3678
   23MOL   H50021224   5.167   1.033   1.755 -0.3542 -1.0842 -0.0562
   23MOL   H50121225   5.104   0.846   1.520  0.6282 -0.5682  0.3934
   23MOL   H50221226   4.989   0.957   1.587 -0.0761 -0.7937  0.7786
   23MOL   H50321227   5.026   0.864   1.812 -0.1663 -1.2043  0.0309
   23MOL   H50421228   4.964   0.737   1.707 -0.1222  0.5139 -0.9624
   23MOL   H50521229   5.183   0.643   1.668 -1.1886 -0.7346 -0.4715
   23MOL   H50621230   5.263   0.770   1.763 -0.4900  0.1645  0.5264
   23MOL   H50721231   5.067   0.564   1.874 -0.1282  0.1155 -0.9668
   23MOL   H50821232   5.238   0.544   1.864 -0.4966 -0.5730 -2.7969
   23MOL   H50921233   5.280   0.757   2.002 -0.3259 -1.1474 -1.8903
   23MOL   H51021234   5.106   0.765   2.027  0.1561  1.3451 -1.5798
   23MOL   H51121235   5.290   0.560   2.126 -0.4264 -0.5443  0.7754
   23MOL   H51221236   5.114   0.539   2.127 -1.8828  1.4094  0.2827
   23MOL   H51321237   5.091   0.733   2.275 -0.3212 -1.0712  2.2490
   23MOL   H51421238   5.255   0.781   2.272  0.9361 -0.8637 -1.6257
   23MOL   H51521239   5.231   0.358   2.403  0.2750 -0.0581  0.0247
   23MOL   H51621240   5.209   0.152   2.522 -0.8002  0.1580 -0.1692
   23MOL   H51721241   5.021   0.348   2.848  0.6401 -1.2060 -0.3042
   23MOL   H51821242   5.023   0.567   2.722  0.3698 -0.5515  1.4598
   23MOL   O51921243   5.203   7.889   2.866  0.4989  0.0835 -0.4751
   23MOL   C52021244   5.306   7.898   2.964  0.3867  0.0566 -0.4237
   23MOL   C52121245   5.281   7.814   3.095  0.2983  0.5656 -0.0192
   23MOL   C52221246   5.151   7.855   3.161  0.2036 -0.5535 -0.2099
   23MOL   C52321247   5.129   7.799   3.304  0.1894  0.0203  0.1631
   23MOL   C52421248   4.994   7.840   3.369  0.7475 -0.2335  0.2780
   23MOL   C52521249   4.967   7.798   3.509 -0.3964  0.3918 -0.4007
   23MOL   C52621250   4.834   7.843   3.563  0.5676  0.3494 -0.3494
   23MOL   C52721251   4.790   7.802   3.710  0.2433 -0.0894  0.8157
   23MOL   C52821252   4.658   7.858   3.747 -0.5707 -0.1124 -0.4512
   23MOL   C52921253   4.617   7.798   3.879  0.2804  0.8090  0.2133
   23MOL   O53021254   4.508   7.882   3.932  0.0163 -0.3539  0.4434
   23MOL   C53121255   4.381   7.835   3.919 -0.1342  0.7698 -1.0856
   23MOL   O53221256   4.355   7.725   3.880 -0.1548 -0.1610  0.0882
   23MOL   C53321257   4.281   7.928   3.982  0.1191 -0.2340  0.3600
   23MOL   C53421258   4.304   0.085   4.015 -0.0415 -0.0964 -1.2342
   23MOL   C53521259   4.205   0.170   4.062  0.5246  0.4185  0.1584
   23MOL   C53621260   4.073   0.126   4.087 -0.0312 -0.0744  0.2780
   23MOL   C53721261   3.970   0.215   4.153 -0.1406 -0.3479  0.5218
   23MOL   O53821262   3.856   0.177   4.173  0.3794 -0.2062 -0.3110
   23MOL   O53921263   4.008   0.339   4.184 -0.4944 -0.1309  0.1356
   23MOL   C54021264   4.043   7.978   4.033  0.5403 -1.1309  0.0642
   23MOL   C54121265   4.145   7.891   3.985 -0.0759  0.2932 -0.3524
   23MOL   H54221266   5.398   7.862   2.919  1.5370  2.0449  0.2981
   23MOL   H54321267   5.316   0.025   2.988 -2.3130 -0.1148  1.7635
   23MOL   H54421268   5.371   7.829   3.153  2.1698 -0.9874 -2.3985
   23MOL   H54521269   5.264   7.709   3.070 -1.0198  0.8812 -0.5185
   23MOL   H54621270   5.158   7.963   3.169  0.1758 -0.3555 -2.5379
   23MOL   H54721271   5.059   7.843   3.104 -0.5887  1.3505  0.6267
   23MOL   H54821272   5.200   7.832   3.379  0.9673  1.2948 -1.0892
   23MOL   H54921273   5.127   7.690   3.301  1.1174 -0.0171  0.8715
   23MOL   H55021274   4.983   7.949   3.374 -1.7239 -0.4793  1.0103
   23MOL   H55121275   4.909   7.823   3.302  0.9595  2.2651 -0.7054
   23MOL   H55221276   4.963   7.689   3.511  0.2985  0.3805  1.0605
   23MOL   H55321277   5.051   7.824   3.573 -0.0752 -0.7992 -0.3333
   23MOL   H55421278   4.834   7.952   3.561  0.9968  0.3346 -2.0298
   23MOL   H55521279   4.752   7.821   3.496 -0.0452 -0.2273  0.5730
   23MOL   H55621280   4.797   7.693   3.700  1.0754  0.0712 -0.4907
   23MOL   H55721281   4.868   7.823   3.783 -0.5852 -0.0058  1.6966
   23MOL   H55821282   4.581   7.844   3.671  0.3983  0.8693 -1.6507
   23MOL   H55921283   4.664   7.967   3.756  1.8138 -0.1545 -1.2630
   23MOL   H56021284   4.699   7.788   3.950  0.2217  3.8317  0.7852
   23MOL   H56121285   4.585   7.696   3.858 -1.2029  1.5529 -1.2979
   23MOL   H56221286   4.406   0.121   4.011 -0.2407  0.6557  0.2296
   23MOL   H56321287   4.235   0.268   4.098 -0.9161  1.2109 -0.7647
   23MOL   H56421288   3.941   7.947   4.048 -0.0355  1.0993  0.9877
   23MOL   H56521289   4.122   7.788   3.962 -1.6380  0.8023 -1.1659
   23MOL   O56621290   3.901   0.428   4.254  0.2528  0.2115  0.0033
   23MOL   C56721291   3.913   0.409   4.392  0.1295  0.2022  0.2339
   23MOL   C56821292   3.809   0.499   4.460 -0.1003 -0.4270 -0.0418
   23MOL   C56921293   3.822   0.488   4.614  0.5708  0.2155  0.2378
   23MOL   C57021294   3.796   0.348   4.678  0.1220  0.1926 -0.5363
   23MOL   C57121295   3.651   0.308   4.680  0.7205  0.4801 -0.1477
   23MOL   C57221296   3.610   0.206   4.787  0.0536 -0.2918  0.0097
   23MOL   C57321297   3.578   0.275   4.922  0.3440 -0.5770 -0.5396
   23MOL   C57421298   3.539   0.165   5.024  0.2790 -0.1866 -0.3574
   23MOL   C57521299   3.541   0.203   5.171  0.1688  0.0605  0.5146
   23MOL   C57621300   3.678   0.200   5.236 -0.6345  0.0510 -0.6275
   23MOL   O57721301   3.745   0.071   5.225 -0.3143  0.2190 -0.2122
   23MOL   C57821302   3.706   7.943   5.301 -0.3317  0.6207 -0.1386
   23MOL   O57921303   3.615   7.953   5.373  0.7767  0.3114  0.8677
   23MOL   C58021304   3.781   7.818   5.263 -0.3957  0.7432 -0.0488
   23MOL   C58121305   3.892   7.820   5.177 -0.5623  0.2199  0.0220
   23MOL   C58221306   3.970   7.707   5.160 -0.0942  0.2877 -0.0609
   23MOL   C58321307   3.919   7.580   5.198  0.7712  0.6891  0.0987
   23MOL   C58421308   4.004   7.461   5.168  0.2682  0.7901  0.1438
   23MOL   O58521309   4.119   7.471   5.127  1.0482 -0.3070 -0.4841
   23MOL   O58621310   3.942   7.339   5.198 -0.1647 -0.2116 -0.8675
   23MOL   C58721311   3.804   7.579   5.279  0.1505  0.2032  0.5898
   23MOL   C58821312   3.736   7.696   5.314 -0.0014 -0.5057 -0.1239
   23MOL   H58921313   3.879   0.306   4.400 -0.8457  0.2477 -2.5782
   23MOL   H59021314   4.014   0.417   4.432 -0.6282 -2.0675  2.6836
   23MOL   H59121315   3.711   0.477   4.418  0.5980  0.3359 -2.1577
   23MOL   H59221316   3.825   0.602   4.428  4.5542 -0.6533  1.2261
   23MOL   H59321317   3.927   0.503   4.641  0.9094 -3.0669  1.0373
   23MOL   H59421318   3.753   0.559   4.658 -0.9752  0.5546 -2.5910
   23MOL   H59521319   3.812   0.368   4.784 -0.0832  0.7111 -0.6020
   23MOL   H59621320   3.860   0.272   4.634 -1.0366  0.0316 -1.9791
   23MOL   H59721321   3.578   0.388   4.670 -0.7756 -0.7663  0.5121
   23MOL   H59821322   3.643   0.264   4.581 -0.3744  1.1575 -0.3748
   23MOL   H59921323   3.526   0.142   4.757 -1.0383  1.2190 -0.1870
   23MOL   H60021324   3.687   0.130   4.803 -0.0867 -0.3848  0.2658
   23MOL   H60121325   3.670   0.313   4.965 -0.2467  0.0912  0.1549
   23MOL   H60221326   3.504   0.355   4.924  0.4449 -0.4929  0.5061
   23MOL   H60321327   3.439   0.131   4.998 -0.3033  0.9418  0.3748
   23MOL   H60421328   3.605   0.079   5.011 -0.1515 -0.4748 -0.6628
   23MOL   H60521329   3.479   0.130   5.222  0.9001 -1.9314 -1.3677
   23MOL   H60621330   3.499   0.304   5.172  0.0253  0.0032  0.1150
   23MOL   H60721331   3.674   0.233   5.340 -0.9538 -0.9267 -0.3275
   23MOL   H60821332   3.745   0.268   5.182  0.2484  0.1953  0.6355
   23MOL   H60921333   3.932   7.909   5.130  1.2141 -0.3057  0.4965
   23MOL   H61021334   4.063   7.714   5.104 -0.7275  0.5712 -1.0832
   23MOL   H61121335   3.771   7.482   5.312  1.1637 -0.9977 -1.7892
   23MOL   H61221336   3.642   7.677   5.363  0.1650 -1.3715 -0.1334
   23MOL   O61321337   4.044   7.228   5.202  0.5756  0.0319  0.7250
   23MOL   C61421338   4.063   7.196   5.335 -0.2538 -0.2681  0.0270
   23MOL   C61521339   3.941   7.117   5.388  0.2050 -0.2287  0.3653
   23MOL   C61621340   3.926   6.978   5.336 -0.2270 -0.4131  0.0823
   23MOL   C61721341   3.802   6.918   5.406 -0.2562  0.6508  0.4965
   23MOL   C61821342   3.676   6.958   5.316  0.2215  0.4237  0.3871
   23MOL   C61921343   3.631   6.855   5.214 -0.4847  0.2856  0.2770
   23MOL   C62021344   3.505   6.895   5.135 -0.3162  0.0329  0.2039
   23MOL   C62121345   3.504   6.828   5.001 -0.9344 -0.6308 -0.6690
   23MOL   C62221346   3.468   6.674   5.006  0.5665  0.4821 -0.1201
   23MOL   C62321347   3.439   6.621   4.866  0.1575  0.5573 -0.5459
   23MOL   O62421348   3.508   6.496   4.855  0.0555  0.0285 -0.7050
   23MOL   C62521349   3.550   6.451   4.727  0.5954 -0.7003 -0.7741
   23MOL   O62621350   3.544   6.517   4.624  0.1279  0.5257  0.1321
   23MOL   C62721351   3.592   6.309   4.724 -0.3654  0.4600  0.2230
   23MOL   C62821352   3.604   6.236   4.847 -0.0060  0.5212  0.1956
   23MOL   C62921353   3.671   6.113   4.854 -0.5852  0.3709 -0.0333
   23MOL   C63021354   3.722   6.060   4.736  0.1171  0.1623 -0.0427
   23MOL   C63121355   3.799   5.932   4.731 -0.1571  0.0771 -0.8013
   23MOL   O63221356   3.823   5.866   4.630  0.1775 -0.0003  0.6104
   23MOL   O63321357   3.834   5.888   4.850  0.1939  0.8637 -0.1468
   23MOL   C63421358   3.709   6.128   4.613 -0.3655  0.2879 -0.1766
   23MOL   C63521359   3.650   6.257   4.607 -0.0695  0.1227  0.1552
   23MOL   H63621360   4.150   7.130   5.344 -0.5786 -0.2156  4.3856
   23MOL   H63721361   4.087   7.286   5.391  0.5632  0.5606 -1.6033
   23MOL   H63821362   3.844   7.168   5.382 -0.0314 -0.9942 -4.0486
   23MOL   H63921363   3.954   7.121   5.497  0.9565 -0.5707  0.2852
   23MOL   H64021364   3.922   6.979   5.227  0.2195 -1.1416  0.0510
   23MOL   H64121365   4.012   6.916   5.360 -1.4516 -2.2132 -0.0472
   23MOL   H64221366   3.792   6.956   5.508  1.0405  1.4860  0.3144
   23MOL   H64321367   3.825   6.812   5.418  2.3035  1.1477  0.1402
   23MOL   H64421368   3.592   6.978   5.382  1.5400  1.5424  1.7617
   23MOL   H64521369   3.690   7.054   5.266  0.0367  0.7386  0.9417
   23MOL   H64621370   3.718   6.841   5.149 -1.5269 -3.1779 -0.4699
   23MOL   H64721371   3.622   6.753   5.250 -1.8267  0.2646 -0.1073
   23MOL   H64821372   3.424   6.870   5.204  0.1681  0.1716  0.8237
   23MOL   H64921373   3.510   7.001   5.110  0.2185 -0.3371 -1.2466
   23MOL   H65021374   3.438   6.879   4.930 -0.0460  0.5394 -0.6624
   23MOL   H65121375   3.605   6.826   4.958 -0.4771  0.2728  0.3469
   23MOL   H65221376   3.373   6.654   5.055  0.8584 -2.0782 -0.5063
   23MOL   H65321377   3.533   6.605   5.061 -1.8499 -0.1159  2.0693
   23MOL   H65421378   3.457   6.691   4.785  1.2474  2.2076  1.0662
   23MOL   H65521379   3.331   6.607   4.861 -0.0291  1.3634  0.7975
   23MOL   H65621380   3.578   6.276   4.944 -1.9841 -0.5613  0.1217
   23MOL   H65721381   3.675   6.054   4.944  1.2838  0.0841 -0.2889
   23MOL   H65821382   3.744   6.089   4.518  1.6536 -1.3049  1.1709
   23MOL   H65921383   3.640   6.317   4.517 -0.4502 -0.1499  0.0118
   23MOL   O66021384   3.893   5.750   4.852 -0.4959  0.2998 -0.1180
   23MOL   C66121385   3.796   5.660   4.903 -0.3859 -0.5531 -0.0624
   23MOL   C66221386   3.833   5.521   4.862  0.1462  0.0141  0.7964
   23MOL   C66321387   3.966   5.483   4.923  0.0690 -0.1739  0.2086
   23MOL   C66421388   4.012   5.342   4.889 -0.0663 -0.3137  0.7830
   23MOL   C66521389   4.123   5.284   4.973 -0.6677 -0.2408  0.1721
   23MOL   C66621390   4.142   5.130   4.947  0.6857  0.5670  0.0072
   23MOL   C66721391   4.264   5.064   5.003  0.3464  0.0879  1.1515
   23MOL   C66821392   4.262   4.907   4.999 -0.2974 -0.1873  0.1933
   23MOL   C66921393   4.380   4.858   5.077  0.8052  0.0803  1.4713
   23MOL   C67021394   4.414   4.715   5.073  0.4173  0.0945  0.3670
   23MOL   O67121395   4.491   4.676   5.187 -0.3022  0.0882 -0.9422
   23MOL   C67221396   4.604   4.609   5.175  0.4149 -0.5521  0.5526
   23MOL   O67321397   4.655   4.578   5.065  0.0874 -0.1641 -0.0962
   23MOL   C67421398   4.669   4.588   5.312 -0.1701  0.2851  0.4201
   23MOL   C67521399   4.595   4.601   5.427  0.2087  0.5120  0.0130
   23MOL   C67621400   4.647   4.582   5.549 -0.7859 -0.4161 -0.4482
   23MOL   C67721401   4.781   4.553   5.564 -0.5823 -0.0040 -0.0988
   23MOL   C67821402   4.843   4.545   5.704 -0.5984  0.7960 -0.2033
   23MOL   O67921403   4.962   4.526   5.725 -0.3723  0.0429  0.0574
   23MOL   O68021404   4.754   4.561   5.806 -0.2482 -0.0780  0.1072
   23MOL   C68121405   4.859   4.523   5.451  0.3506  0.6664  0.3944
   23MOL   C68221406   4.802   4.546   5.321 -0.4183 -0.4779 -0.7005
   23MOL   H68321407   3.787   5.677   5.010  3.1580  0.2632  0.1509
   23MOL   H68421408   3.700   5.681   4.855 -0.6896  0.2563  0.8732
   23MOL   H68521409   3.843   5.505   4.754  0.4518 -0.0666  0.8365
   23MOL   H68621410   3.761   5.456   4.912 -0.7373  0.1192 -0.3020
   23MOL   H68721411   4.048   5.547   4.890 -0.8867 -0.3765 -2.7551
   23MOL   H68821412   3.948   5.493   5.030 -0.4558  0.1812  0.0919
   23MOL   H68921413   4.027   5.342   4.781  0.2773 -0.5983  0.8304
   23MOL   H69021414   3.923   5.281   4.900 -0.3846  0.1256  0.6371
   23MOL   H69121415   4.218   5.333   4.952 -0.6509 -0.5978 -0.5898
   23MOL   H69221416   4.099   5.287   5.080 -0.7695 -0.8335  0.1655
   23MOL   H69321417   4.059   5.061   4.966  0.5889  0.6633 -0.0655
   23MOL   H69421418   4.149   5.108   4.841 -2.2755  0.5643 -0.2398
   23MOL   H69521419   4.357   5.108   4.964  0.3135  0.3330  1.3451
   23MOL   H69621420   4.265   5.106   5.104  0.0291 -1.8140  1.9606
   23MOL   H69721421   4.170   4.863   5.037 -1.3132  0.2953 -1.6613
   23MOL   H69821422   4.282   4.884   4.895 -0.4311 -2.7581  0.7114
   23MOL   H69921423   4.370   4.893   5.180  1.6320 -0.1459  1.6384
   23MOL   H70021424   4.465   4.910   5.032 -1.2083  1.6709 -0.6327
   23MOL   H70121425   4.464   4.692   4.979 -0.6087  0.7458 -0.3369
   23MOL   H70221426   4.322   4.656   5.072 -0.1728  1.0194 -0.6018
   23MOL   H70321427   4.491   4.630   5.427  0.7894  2.7131  0.5963
   23MOL   H70421428   4.587   4.598   5.637  0.6823 -0.4008  0.5646
   23MOL   H70521429   4.961   4.492   5.464  0.3344 -1.0342 -3.0289
   23MOL   H70621430   4.861   4.532   5.231  0.8873 -1.3486  0.2673
   23MOL   O70721431   4.810   4.569   5.944  0.6039  0.0720 -0.6579
   23MOL   C70821432   4.833   4.432   5.986 -0.1527 -0.2132 -0.2044
   23MOL   C70921433   4.828   4.425   6.138  0.7997 -0.3483  0.6299
   23MOL   C71021434   4.963   4.476   6.185  0.4934  0.0015 -0.1237
   23MOL   C71121435   4.959   4.498   6.343  0.3447 -0.0874  0.2611
   23MOL   C71221436   4.870   4.619   6.395 -0.3681  0.5011 -0.3448
   23MOL   C71321437   4.936   4.750   6.366  0.3910 -0.4170  0.1923
   23MOL   C71421438   4.853   4.869   6.418  0.1774  0.0593  0.5539
   23MOL   C71521439   4.888   4.998   6.348  0.0992  0.9056  0.1957
   23MOL   C71621440   4.823   5.123   6.410 -0.6568  0.0097  0.4738
   23MOL   C71721441   4.856   5.250   6.326 -0.3108  0.4192  0.0561
   23MOL   O71821442   4.799   5.253   6.200  0.1770 -0.1249  0.0463
   23MOL   C71921443   4.657   5.265   6.185  0.1063  0.2538 -0.4706
   23MOL   O72021444   4.585   5.318   6.265  0.5005  0.0289 -0.1789
   23MOL   C72121445   4.610   5.210   6.056  0.2213 -0.2244 -0.0239
   23MOL   C72221446   4.692   5.138   5.968 -0.0399 -0.1013  0.1933
   23MOL   C72321447   4.639   5.063   5.860  0.6128 -0.4643 -0.1232
   23MOL   C72421448   4.501   5.057   5.833  0.5247 -0.5194 -0.3118
   23MOL   C72521449   4.453   4.975   5.714  0.5948  0.5187  0.2860
   23MOL   O72621450   4.526   4.885   5.667 -0.4993  0.1618  0.1688
   23MOL   O72721451   4.313   4.984   5.679 -0.4545  0.5508  0.2272
   23MOL   C72821452   4.420   5.141   5.916  0.3916  0.2860 -0.2236
   23MOL   C72921453   4.476   5.212   6.025  0.6413  0.2259  0.7533
   23MOL   H73021454   4.749   4.370   5.956  0.7434 -0.3544 -2.5042
   23MOL   H73121455   4.911   4.382   5.930 -0.1491 -0.6763  0.2044
   23MOL   H73221456   4.822   4.323   6.176 -1.1546 -1.0195 -1.3605
   23MOL   H73321457   4.741   4.477   6.179  1.0662  0.9882 -0.4510
   23MOL   H73421458   5.035   4.399   6.156  0.0579 -0.9841  1.3748
   23MOL   H73521459   4.996   4.565   6.130  2.1733 -1.4170 -1.4739
   23MOL   H73621460   5.063   4.509   6.375  0.0748  2.7679  0.3030
   23MOL   H73721461   4.928   4.408   6.395  2.2810 -1.7556 -1.3858
   23MOL   H73821462   4.770   4.609   6.354 -0.6331  0.6890  0.2522
   23MOL   H73921463   4.865   4.609   6.504  2.9206 -0.1187 -0.1854
   23MOL   H74021464   5.037   4.757   6.408  0.8419 -1.2817 -0.7131
   23MOL   H74121465   4.941   4.764   6.258  1.9583 -1.2652  0.1391
   23MOL   H74221466   4.748   4.845   6.407 -0.1282  1.0155  1.3758
   23MOL   H74321467   4.871   4.869   6.526  1.2000 -1.4523  0.4045
   23MOL   H74421468   4.996   5.012   6.340  0.4109 -0.8719  0.9222
   23MOL   H74521469   4.860   4.990   6.243  0.2084 -0.1550  0.2353
   23MOL   H74621470   4.856   5.138   6.513  2.7971 -1.8167 -0.3245
   23MOL   H74721471   4.714   5.115   6.405 -0.7646 -0.0700  2.4472
   23MOL   H74821472   4.963   5.259   6.309 -0.0227  0.8475  1.9855
   23MOL   H74921473   4.820   5.331   6.388 -1.6738  0.3315 -0.5939
   23MOL   H75021474   4.799   5.130   5.979  0.1610 -0.2519 -1.6414
   23MOL   H75121475   4.699   4.996   5.801 -0.9182 -0.3960 -1.8231
   23MOL   H75221476   4.315   5.145   5.891  0.2421 -1.5058  0.0302
   23MOL   H75321477   4.407   5.261   6.091  0.7216  1.7165 -0.2655
   23MOL   O75421478   4.278   4.900   5.554  0.2086 -0.0429 -0.1751
   23MOL   C75521479   4.221   4.782   5.598 -0.2597 -0.4676  0.4156
   23MOL   C75621480   4.161   4.714   5.468  0.6721  0.3984 -0.2187
   23MOL   C75721481   4.063   4.597   5.495 -0.0802 -0.0245 -0.1790
   23MOL   C75821482   4.003   4.527   5.371  0.4838 -0.7968  0.1398
   23MOL   C75921483   3.932   4.402   5.412  0.2457  0.5967 -0.2458
   23MOL   C76021484   3.793   4.390   5.343  0.0985  0.0603  0.1190
   23MOL   C76121485   3.706   4.275   5.404 -0.7043 -0.3584  0.1268
   23MOL   C76221486   3.577   4.245   5.331  0.3492 -0.2023 -0.0991
   23MOL   C76321487   3.485   4.139   5.411 -0.3136 -0.0194  0.1089
   23MOL   C76421488   3.366   4.068   5.337 -0.2963 -0.0067 -0.0276
   23MOL   O76521489   3.414   4.005   5.222 -0.2166 -0.6891  0.0364
   23MOL   C76621490   3.466   3.886   5.223 -0.3875  0.0020  0.8606
   23MOL   O76721491   3.445   3.797   5.302  0.2868 -0.3504  0.7538
   23MOL   C76821492   3.536   3.862   5.091 -0.3658  0.3146  0.0986
   23MOL   C76921493   3.571   3.965   5.000  0.3889  0.2217 -0.2735
   23MOL   C77021494   3.637   3.942   4.881 -0.6604  0.0789 -0.4318
   23MOL   C77121495   3.690   3.814   4.858 -0.0515 -0.2083 -0.4114
   23MOL   C77221496   3.769   3.788   4.731  0.6774  0.2543 -0.2008
   23MOL   O77321497   3.770   3.866   4.639 -0.3357  0.0122 -0.3168
   23MOL   O77421498   3.807   3.663   4.724  0.2679 -0.0906 -0.4465
   23MOL   C77521499   3.657   3.707   4.945  0.0998  0.4729  0.4907
   23MOL   C77621500   3.585   3.729   5.063  0.0989 -0.2181 -0.6421
   23MOL   H77721501   4.305   4.720   5.628  2.4461  2.9004  0.1008
   23MOL   H77821502   4.153   4.797   5.682  0.6854 -3.6283  1.8048
   23MOL   H77921503   4.234   4.672   5.398 -1.3091 -0.4771 -1.8028
   23MOL   H78021504   4.111   4.793   5.412  1.9899  1.5938  0.2505
   23MOL   H78121505   4.115   4.521   5.553  1.2636  1.3147  0.3888
   23MOL   H78221506   3.978   4.627   5.557 -0.2298  4.1661 -2.2316
   23MOL   H78321507   4.081   4.497   5.301 -1.7746  0.0292 -2.8089
   23MOL   H78421508   3.939   4.599   5.321  2.4798  0.1982 -1.0495
   23MOL   H78521509   3.993   4.313   5.397 -0.7761 -0.1630  0.0396
   23MOL   H78621510   3.911   4.403   5.519 -1.3096  1.0016 -0.5329
   23MOL   H78721511   3.747   4.488   5.354 -0.0811  0.0250 -0.3134
   23MOL   H78821512   3.803   4.365   5.237  1.3540  1.4039 -0.0864
   23MOL   H78921513   3.760   4.181   5.410 -2.0974 -1.2212 -0.6495
   23MOL   H79021514   3.692   4.310   5.507 -2.5797  0.4484 -0.3694
   23MOL   H79121515   3.535   4.344   5.315 -0.7968 -0.5530  0.6946
   23MOL   H79221516   3.601   4.205   5.233 -1.6447 -0.8360 -0.3393
   23MOL   H79321517   3.465   4.173   5.512 -1.4355  0.4151 -0.2592
   23MOL   H79421518   3.557   4.059   5.429 -0.1371  0.3466  1.0656
   23MOL   H79521519   3.295   4.141   5.299  0.0966 -0.3492 -1.4248
   23MOL   H79621520   3.305   4.007   5.404  1.4024  0.0992  1.6687
   23MOL   H79721521   3.532   4.066   5.011 -1.6098 -0.8348  3.3038
   23MOL   H79821522   3.665   4.021   4.812  1.1152 -2.0142 -2.1957
   23MOL   H79921523   3.699   3.608   4.936  0.5358  0.7229 -0.3207
   23MOL   H80021524   3.575   3.648   5.134 -1.0238 -0.7833 -1.4344
   23MOL   O80121525   3.843   3.611   4.590  0.0596 -0.2351 -1.0737
   23MOL   C80221526   3.740   3.529   4.543 -0.0247  0.6491  0.5523
   23MOL   C80321527   3.783   3.426   4.436  0.3124 -0.0057 -0.3553
   23MOL   C80421528   3.797   3.493   4.303 -0.0733  0.0839 -0.2521
   23MOL   C80521529   3.866   3.410   4.199  0.5804 -0.5176 -0.0348
   23MOL   C80621530   3.858   3.468   4.054 -0.0547 -1.5743 -0.3647
   23MOL   C80721531   3.951   3.389   3.956  0.0647 -0.1055  0.3191
   23MOL   C80821532   4.094   3.447   3.945  0.3354 -0.5501  0.3512
   23MOL   C80921533   4.106   3.574   3.860 -0.2946 -0.1499 -0.3735
   23MOL   C81021534   4.225   3.657   3.904  0.8324  0.2851 -0.5730
   23MOL   C81121535   4.262   3.787   3.826  0.5372 -0.2280 -0.0971
   23MOL   O81221536   4.156   3.881   3.848  0.0256  0.7021  0.5483
   23MOL   C81321537   4.191   4.002   3.900  0.1410  0.1943  0.7834
   23MOL   O81421538   4.307   4.033   3.928  0.0821  0.2569  0.1153
   23MOL   C81521539   4.074   4.091   3.912  0.6312 -0.3579  0.0242
   23MOL   C81621540   3.939   4.047   3.893 -0.1064  0.0627  0.5678
   23MOL   C81721541   3.830   4.132   3.929 -0.4501 -0.1109 -0.4002
   23MOL   C81821542   3.851   4.259   3.985 -0.5411 -0.3244 -0.0883
   23MOL   C81921543   3.731   4.343   4.011 -0.2561 -0.4776 -0.5172
   23MOL   O82021544   3.619   4.319   3.966 -0.3286 -0.0353  0.2136
   23MOL   O82121545   3.752   4.463   4.077 -0.5918 -0.2071 -0.2071
   23MOL   C82221546   3.983   4.299   4.012 -0.5539  0.1741 -0.0618
   23MOL   C82321547   4.090   4.211   3.978 -0.3519 -0.9732  0.3200
   23MOL   H82421548   3.716   3.463   4.627  0.2784  0.0663  0.1754
   23MOL   H82521549   3.645   3.581   4.530  0.3016  1.4450  1.2525
   23MOL   H82621550   3.712   3.343   4.438 -2.3086  2.1854  1.5431
   23MOL   H82721551   3.879   3.386   4.467  0.2870  0.5010  0.4005
   23MOL   H82821552   3.693   3.516   4.279 -0.0549  0.2639 -0.1561
   23MOL   H82921553   3.850   3.586   4.323  1.0814 -0.5170 -0.4770
   23MOL   H83021554   3.817   3.313   4.186 -0.8329  0.2360 -0.4620
   23MOL   H83121555   3.973   3.403   4.219  0.6213  2.0023  0.7486
   23MOL   H83221556   3.756   3.469   4.016 -0.1202  1.2524 -0.2400
   23MOL   H83321557   3.889   3.572   4.058 -1.0875 -1.2644 -0.4377
   23MOL   H83421558   3.953   3.286   3.993  2.5348  0.3228  1.4993
   23MOL   H83521559   3.911   3.387   3.855 -1.1715 -1.2420  0.8234
   23MOL   H83621560   4.145   3.442   4.041 -0.9268 -1.1661  1.0028
   23MOL   H83721561   4.139   3.366   3.888 -3.8123  0.1824 -4.3609
   23MOL   H83821562   4.115   3.543   3.756  1.8481 -0.9046 -0.0036
   23MOL   H83921563   4.015   3.626   3.886 -0.8397 -1.5491  0.5701
   23MOL   H84021564   4.311   3.590   3.905  0.4406 -0.2049  0.2065
   23MOL   H84121565   4.221   3.683   4.009  0.6544 -0.6447 -0.3449
   23MOL   H84221566   4.260   3.752   3.723  1.2408 -1.8532  0.4386
   23MOL   H84321567   4.362   3.815   3.859  0.7189 -1.2100  0.1918
   23MOL   H84421568   3.908   3.953   3.849  0.3508 -0.6313  1.6863
   23MOL   H84521569   3.725   4.107   3.925 -0.3442 -0.2759 -3.6344
   23MOL   H84621570   4.019   4.384   4.070  1.0777 -2.2846  2.6565
   23MOL   H84721571   4.189   4.241   4.009 -0.5483  0.1470 -0.1053
   23MOL   O84821572   3.626   4.521   4.137  0.0687 -0.6702  0.7065
   23MOL   C84921573   3.583   4.637   4.060  0.3519  0.0648  0.1819
   23MOL   C85021574   3.441   4.683   4.095  0.2370 -0.6785 -0.7947
   23MOL   C85121575   3.438   4.725   4.243 -0.2076 -0.6284  0.4798
   23MOL   C85221576   3.298   4.725   4.295  0.3006 -0.6814 -0.4832
   23MOL   C85321577   3.309   4.740   4.448  0.2331 -0.2802 -0.1540
   23MOL   C85421578   3.331   4.609   4.516  0.1823  0.3698  0.4815
   23MOL   C85521579   3.382   4.626   4.661 -0.5585 -0.2237 -0.4419
   23MOL   C85621580   3.412   4.495   4.725  0.1734 -0.2493 -0.1927
   23MOL   C85721581   3.438   4.498   4.872 -0.0397  0.6056 -0.0895
   23MOL   C85821582   3.482   4.351   4.916 -0.1905  0.1162  0.4494
   23MOL   O85921583   3.364   4.274   4.950  0.3430  0.5477  0.3219
   23MOL   C86021584   3.321   4.171   4.880  0.3613  0.1997  0.4770
   23MOL   O86121585   3.382   4.115   4.793 -0.2525 -0.5142 -0.0726
   23MOL   C86221586   3.186   4.123   4.920 -0.4763 -0.1634  0.1910
   23MOL   C86321587   3.129   4.016   4.855 -0.1498  0.0294 -0.6347
   23MOL   C86421588   3.006   3.957   4.896  0.5966  0.3897 -1.0354
   23MOL   C86521589   2.925   4.022   4.995 -0.4098  0.7675  0.4339
   23MOL   C86621590   2.803   3.961   5.042  0.5782  0.3915  0.1084
   23MOL   O86721591   2.771   3.840   5.033  0.6414  0.1588 -0.0302
   23MOL   O86821592   2.729   4.060   5.096  0.1857  0.0609 -0.1162
   23MOL   C86921593   2.981   4.141   5.047  0.5886  1.3856 -0.1216
   23MOL   C87021594   3.113   4.184   5.021  0.6435 -0.3755 -0.5810
   23MOL   H87121595   3.660   4.711   4.080  0.5738 -0.1808  0.2461
   23MOL   H87221596   3.582   4.619   3.953 -2.5688 -0.9583  0.3379
   23MOL   H87321597   3.377   4.596   4.086  0.6313 -1.1647  0.9364
   23MOL   H87421598   3.411   4.766   4.031  1.7839 -1.4211 -2.5143
   23MOL   H87521599   3.498   4.653   4.299 -0.0155 -0.6427  0.2586
   23MOL   H87621600   3.485   4.820   4.266  0.0101  0.3558 -3.7043
   23MOL   H87721601   3.258   4.630   4.262  0.3680 -0.1333 -2.2189
   23MOL   H87821602   3.231   4.797   4.248  0.6807  0.5773  0.8505
   23MOL   H87921603   3.390   4.810   4.470  1.7097 -1.6479 -1.1858
   23MOL   H88021604   3.226   4.794   4.494  0.4219 -0.5567  0.5282
   23MOL   H88121605   3.245   4.544   4.499  1.5399 -0.9944 -1.3921
   23MOL   H88221606   3.398   4.538   4.467  0.5663 -0.3886  2.0761
   23MOL   H88321607   3.470   4.690   4.654 -0.7587  0.2112  0.8976
   23MOL   H88421608   3.315   4.672   4.733 -0.3107  0.4684 -0.6576
   23MOL   H88521609   3.340   4.414   4.711  0.5694 -0.4774 -0.9280
   23MOL   H88621610   3.514   4.475   4.690 -0.4126 -1.2445 -1.3804
   23MOL   H88721611   3.350   4.535   4.925 -1.6326 -1.8043 -1.0021
   23MOL   H88821612   3.516   4.569   4.899 -2.2052  2.5111  1.3578
   23MOL   H88921613   3.543   4.356   5.006 -0.2154  0.6616  0.4359
   23MOL   H89021614   3.548   4.296   4.849 -0.8584  1.4618 -1.3631
   23MOL   H89121615   3.188   3.968   4.778 -0.0287 -1.3385  0.2831
   23MOL   H89221616   2.969   3.866   4.852  0.2340 -0.4493  0.9387
   23MOL   H89321617   2.937   4.187   5.134 -0.0527  0.6801 -0.0665
   23MOL   H89421618   3.140   4.275   5.072 -1.0276 -0.7225  0.9463
   23MOL   O89521619   2.604   4.012   5.162 -0.3543 -0.0999 -0.5090
   23MOL   C89621620   2.624   4.014   5.296  0.1788  0.5472  0.7905
   23MOL   C89721621   2.605   4.161   5.344  0.5187  0.2621  0.8277
   23MOL   C89821622   2.641   4.183   5.495 -0.1205  0.7212 -0.4523
   23MOL   C89921623   2.676   4.331   5.523  0.1949  0.4780 -0.3703
   23MOL   C90021624   2.549   4.424   5.518  0.2912  0.3068 -0.0231
   23MOL   C90121625   2.581   4.574   5.545  0.7201 -0.9111 -0.4384
   23MOL   C90221626   2.459   4.677   5.536 -0.0332 -0.4121 -0.3096
   23MOL   C90321627   2.371   4.669   5.412 -0.1065  0.2036  0.0842
   23MOL   C90421628   2.428   4.729   5.279 -0.2441 -0.1076 -0.1080
   23MOL   C90521629   2.320   4.724   5.164 -0.2200 -0.1405 -0.0194
   23MOL   O90621630   2.350   4.797   5.044  0.2017 -0.2080 -0.0098
   23MOL   C90721631   2.410   4.745   4.937 -0.3663  0.2895 -0.1683
   23MOL   O90821632   2.438   4.625   4.932  0.4712  0.5253  0.1932
   23MOL   C90921633   2.416   4.841   4.826  0.5547  0.2374  0.4300
   23MOL   C91021634   2.482   4.810   4.707 -0.6163 -0.6803 -0.3466
   23MOL   C91121635   2.501   4.902   4.602  0.0371 -1.0207 -0.2894
   23MOL   C91221636   2.435   5.024   4.610  0.6202  0.6746  0.4610
   23MOL   C91321637   2.441   5.118   4.492  0.8888 -0.2543 -0.2061
   23MOL   O91421638   2.501   5.097   4.391  0.0597  0.4803 -0.7257
   23MOL   O91521639   2.348   5.222   4.501  0.1496 -0.1255 -0.6352
   23MOL   C91621640   2.365   5.057   4.730 -0.4083  0.2780  0.1487
   23MOL   C91721641   2.359   4.972   4.838  0.4330  0.1346  0.8056
   23MOL   H91821642   2.540   3.952   5.329  0.1494 -0.2886 -0.8105
   23MOL   H91921643   2.711   3.962   5.336 -0.0703 -0.9655 -0.5891
   23MOL   H92021644   2.508   4.202   5.314  0.1347 -1.0206  0.2943
   23MOL   H92121645   2.678   4.219   5.287  0.9946 -1.2749 -0.1626
   23MOL   H92221646   2.562   4.168   5.568  1.7166  1.9631  1.8713
   23MOL   H92321647   2.720   4.113   5.523  0.6786  1.3085 -1.1931
   23MOL   H92421648   2.741   4.367   5.444  0.2050 -0.2621 -0.6976
   23MOL   H92521649   2.737   4.344   5.612  0.2680  0.1536 -0.3738
   23MOL   H92621650   2.504   4.421   5.419 -1.4029 -0.3414  0.7308
   23MOL   H92721651   2.473   4.399   5.593  1.2349 -1.3340  0.4089
   23MOL   H92821652   2.635   4.584   5.639 -0.1509  1.9549 -0.1906
   23MOL   H92921653   2.656   4.616   5.478 -0.1377  0.2377 -0.7059
   23MOL   H93021654   2.399   4.644   5.621  0.1216  0.6228  0.2068
   23MOL   H93121655   2.495   4.777   5.557  2.1881 -1.4063  0.8031
   23MOL   H93221656   2.331   4.569   5.393  1.5755 -0.4442 -0.1220
   23MOL   H93321657   2.277   4.718   5.437  0.8369  2.4298 -0.6512
   23MOL   H93421658   2.524   4.684   5.257 -0.3000 -0.3983  0.2301
   23MOL   H93521659   2.456   4.832   5.301  0.7081 -0.6182  1.1273
   23MOL   H93621660   2.224   4.765   5.196  0.4735  0.7589  0.9171
   23MOL   H93721661   2.293   4.621   5.143 -1.4850 -0.1686  1.6287
   23MOL   H93821662   2.528   4.714   4.687 -3.0742 -2.0584  0.4525
   23MOL   H93921663   2.567   4.885   4.519 -0.3556  1.5125 -1.1649
   23MOL   H94021664   2.309   5.150   4.735 -0.2479  0.4593 -1.1969
   23MOL   H94121665   2.296   5.003   4.920  0.1490  3.3509 -0.5441
   23MOL   H94221666   2.354   5.269   4.420  1.8993  0.6343 -0.1011
   24MOL     O121667   5.953   5.264   2.560  0.1291 -0.5186  0.1350
   24MOL     C221668   5.961   5.401   2.536  0.3631 -0.0139 -0.2987
   24MOL     C321669   6.092   5.422   2.467  0.1580 -0.0072  0.5821
   24MOL     C421670   6.218   5.386   2.554  0.2466 -0.1031 -0.4645
   24MOL     C521671   6.350   5.446   2.495 -0.4382 -0.3498 -0.4437
   24MOL     C621672   6.474   5.438   2.588 -0.5984 -0.1850 -0.0635
   24MOL     C721673   6.534   5.302   2.600  0.1707 -0.7602  0.1185
   24MOL     C821674   6.667   5.286   2.687  0.6038 -0.8374  0.4949
   24MOL     C921675   6.698   5.138   2.727  0.0407 -0.3778 -0.9339
   24MOL    C1021676   6.791   5.136   2.851  0.3932  0.3800 -0.6461
   24MOL    C1121677   6.800   4.989   2.913 -0.0339 -0.3774 -0.6586
   24MOL    O1221678   6.672   4.943   2.960  0.2420 -0.0245 -0.0424
   24MOL    C1321679   6.666   4.815   3.006  0.5998 -0.3142  0.5245
   24MOL    O1421680   6.758   4.737   3.006  0.3041  0.3115  0.5503
   24MOL    C1521681   6.530   4.785   3.068 -0.0786 -0.1768  0.1224
   24MOL    C1621682   6.501   4.670   3.148  0.7511  0.3416  0.2497
   24MOL    C1721683   6.372   4.642   3.201  0.4220 -0.2842 -0.3561
   24MOL    C1821684   6.265   4.733   3.173  0.1280 -0.0996  0.1692
   24MOL    C1921685   6.126   4.718   3.223  0.0801  0.0996 -0.2596
   24MOL    O2021686   6.021   4.770   3.178 -0.4203  0.9717 -0.4592
   24MOL    O2121687   6.122   4.639   3.326 -0.0909 -0.0787  0.6243
   24MOL    C2221688   6.296   4.854   3.109  0.3811  0.2125 -0.0308
   24MOL    C2321689   6.425   4.879   3.049 -0.3118 -0.2891  0.4488
   24MOL    H2421690   5.876   5.432   2.476 -0.0781  1.2271  0.9501
   24MOL    H2521691   5.962   5.467   2.623 -0.1013  0.9013 -0.9820
   24MOL    H2621692   6.103   5.527   2.438  1.3221 -0.7150 -1.5979
   24MOL    H2721693   6.109   5.355   2.383  2.8171 -0.5488  1.5170
   24MOL    H2821694   6.201   5.435   2.651 -0.8679  0.4876 -0.9505
   24MOL    H2921695   6.221   5.281   2.584  0.7374 -0.1857 -0.8176
   24MOL    H3021696   6.324   5.552   2.485  3.0887  0.7709  1.2366
   24MOL    H3121697   6.358   5.399   2.397  0.5923 -0.3834 -0.3456
   24MOL    H3221698   6.550   5.505   2.549 -0.5933  0.3280  0.8400
   24MOL    H3321699   6.438   5.467   2.687 -0.2958 -1.2138  0.3598
   24MOL    H3421700   6.458   5.239   2.647 -0.6154  0.2831  0.2499
   24MOL    H3521701   6.553   5.267   2.498  4.3564 -0.4471  0.7115
   24MOL    H3621702   6.751   5.324   2.628 -1.6221  0.9447 -1.6424
   24MOL    H3721703   6.667   5.349   2.775 -3.4536  0.0771 -0.0389
   24MOL    H3821704   6.605   5.096   2.767  0.6113 -1.4045 -0.6871
   24MOL    H3921705   6.726   5.076   2.642 -0.0374 -1.1512 -0.3909
   24MOL    H4021706   6.754   5.207   2.925 -1.9944  0.6586 -2.0405
   24MOL    H4121707   6.888   5.177   2.825  0.2336  0.3899 -1.2275
   24MOL    H4221708   6.875   4.971   2.990 -0.8244  2.9209  1.0038
   24MOL    H4321709   6.840   4.921   2.838  2.3144 -0.0426  0.2688
   24MOL    H4421710   6.583   4.603   3.169 -1.0078 -1.3291  1.9491
   24MOL    H4521711   6.364   4.555   3.265  0.5592  0.7976  1.1634
   24MOL    H4621712   6.229   4.930   3.074 -0.7796 -0.7163  0.1330
   24MOL    H4721713   6.446   4.969   2.994  2.4285 -0.9457  0.3449
   24MOL    H4821714   5.895   5.238   2.491  2.3262 -1.1764 -1.5150
   24MOL    O4921715   5.979   4.632   3.396 -0.6785 -0.0904  0.1605
   24MOL    C5021716   5.985   4.713   3.510  0.0616 -0.1603 -0.1183
   24MOL    C5121717   5.845   4.703   3.580  0.0614  0.3777 -0.3289
   24MOL    C5221718   5.816   4.818   3.675 -0.2727  0.3833  0.3103
   24MOL    C5321719   5.681   4.827   3.747 -0.1477 -0.3349  0.3399
   24MOL    C5421720   5.635   4.702   3.821 -0.0930 -0.5234  0.6118
   24MOL    C5521721   5.515   4.727   3.919 -0.3952 -0.5442 -0.3139
   24MOL    C5621722   5.443   4.604   3.973  0.1662  0.3812  0.3936
   24MOL    C5721723   5.339   4.542   3.885 -0.0701 -0.3428  0.2515
   24MOL    C5821724   5.251   4.428   3.946 -0.2291 -0.0233 -0.1603
   24MOL    C5921725   5.161   4.483   4.046  0.2630  0.2296  0.4486
   24MOL    O6021726   5.077   4.384   4.095 -0.2217 -0.2376 -0.1716
   24MOL    C6121727   4.999   4.424   4.191  0.4404 -0.0240 -0.3919
   24MOL    O6221728   4.987   4.542   4.231  0.1436 -0.2861 -0.0023
   24MOL    C6321729   4.925   4.309   4.260 -0.4174 -0.6518 -0.8999
   24MOL    C6421730   4.952   4.173   4.231  0.5974 -0.6503 -0.4657
   24MOL    C6521731   4.884   4.070   4.300 -0.0523 -0.2415  0.0247
   24MOL    C6621732   4.793   4.102   4.403 -0.4134  0.7807  0.2787
   24MOL    C6721733   4.724   3.986   4.469 -0.6488  0.2780  0.3669
   24MOL    O6821734   4.676   3.991   4.578 -0.1686 -0.4357  0.5545
   24MOL    O6921735   4.726   3.865   4.393  0.2577  0.2498 -0.3334
   24MOL    C7021736   4.766   4.238   4.431 -0.3397  0.0101  0.6014
   24MOL    C7121737   4.826   4.338   4.357 -0.1914 -1.1160  0.9627
   24MOL    H7221738   6.077   4.684   3.561  0.6314  0.6519 -0.6627
   24MOL    H7321739   6.007   4.811   3.469  2.0079 -0.5795 -0.1553
   24MOL    H7421740   5.843   4.607   3.632  0.1569  0.5784  0.0465
   24MOL    H7521741   5.769   4.699   3.502 -0.5724 -0.4623  0.3232
   24MOL    H7621742   5.894   4.811   3.751  1.6970  0.9799 -1.5771
   24MOL    H7721743   5.833   4.915   3.628  1.7405 -0.1473 -0.1230
   24MOL    H7821744   5.606   4.864   3.677  0.2748  1.2400  0.7042
   24MOL    H7921745   5.702   4.905   3.820  0.0086 -0.0640  0.0074
   24MOL    H8021746   5.601   4.631   3.747  2.0521 -0.0882 -0.8335
   24MOL    H8121747   5.715   4.654   3.877  0.5101  0.1867  0.3692
   24MOL    H8221748   5.553   4.778   4.007 -1.3896 -3.0568  1.6419
   24MOL    H8321749   5.443   4.800   3.882  0.9328  1.1557  0.4193
   24MOL    H8421750   5.520   4.538   4.011 -0.0095 -0.3645 -0.5334
   24MOL    H8521751   5.383   4.645   4.055 -0.8853 -0.4901  0.0622
   24MOL    H8621752   5.273   4.619   3.846  0.5072  0.7566  1.4254
   24MOL    H8721753   5.382   4.491   3.798 -2.1757 -0.6810 -0.6077
   24MOL    H8821754   5.314   4.358   4.001  1.9696  1.6564 -0.5027
   24MOL    H8921755   5.190   4.385   3.867 -1.2823 -0.4399  0.8601
   24MOL    H9021756   5.101   4.565   4.005 -0.9285 -1.0672 -0.4480
   24MOL    H9121757   5.221   4.522   4.128  1.0742  2.0370 -0.9568
   24MOL    H9221758   5.035   4.155   4.164  2.4394  0.3994  1.4953
   24MOL    H9321759   4.912   3.968   4.283  1.9212  0.3630 -0.4433
   24MOL    H9421760   4.700   4.257   4.514 -0.8088  1.6295 -0.1053
   24MOL    H9521761   4.803   4.441   4.380  1.0416 -0.3204 -1.1540
   24MOL    O9621762   4.638   3.768   4.447 -0.6711 -0.0752 -0.1870
   24MOL    C9721763   4.717   3.654   4.497  0.6670  0.0395  0.9024
   24MOL    C9821764   4.627   3.543   4.553  1.0821  0.3723  0.2489
   24MOL    C9921765   4.636   3.520   4.709  0.3756  0.5003  0.0634
   24MOL   C10021766   4.525   3.597   4.777  0.0407  0.1979 -0.3588
   24MOL   C10121767   4.581   3.738   4.830 -0.7047 -0.4606 -0.1141
   24MOL   C10221768   4.480   3.833   4.889  0.4218 -0.7615 -0.0103
   24MOL   C10321769   4.533   3.979   4.896 -0.8122  0.3985  0.5502
   24MOL   C10421770   4.674   3.996   4.956 -0.0757  0.2464 -0.4495
   24MOL   C10521771   4.725   4.140   4.954 -0.3111  0.6346 -0.0106
   24MOL   C10621772   4.865   4.148   5.008 -0.3302 -0.3122  0.2277
   24MOL   O10721773   4.865   4.149   5.148  0.4055 -0.1803 -0.4766
   24MOL   C10821774   4.906   4.044   5.218  0.6178  0.0140 -0.2975
   24MOL   O10921775   4.946   3.935   5.169  0.3621 -0.9502  0.3267
   24MOL   C11021776   4.889   4.071   5.364 -0.0329  0.5320  0.1690
   24MOL   C11121777   4.976   4.003   5.456  0.0027 -0.2908  0.5320
   24MOL   C11221778   4.961   4.001   5.590 -0.4223  0.0031 -0.1655
   24MOL   C11321779   4.861   4.079   5.652 -0.8148 -0.6108  0.0882
   24MOL   C11421780   4.841   4.069   5.795  0.5000 -0.1275  0.0647
   24MOL   O11521781   4.751   4.126   5.852  0.5489 -0.0296 -0.2426
   24MOL   O11621782   4.940   3.994   5.858  0.5328  0.4454  0.0709
   24MOL   C11721783   4.784   4.162   5.567 -0.5267  0.6066 -0.0758
   24MOL   C11821784   4.799   4.157   5.425 -1.2118  0.4708 -0.4171
   24MOL   H11921785   4.757   3.606   4.407  0.4666  0.3391  0.6546
   24MOL   H12021786   4.799   3.699   4.553  0.8230  1.5717 -0.5286
   24MOL   H12121787   4.654   3.441   4.523  1.1288  0.4872 -0.1002
   24MOL   H12221788   4.529   3.558   4.508  0.6486 -0.7713  0.7690
   24MOL   H12321789   4.614   3.414   4.724  0.7637  0.2972 -0.7701
   24MOL   H12421790   4.734   3.541   4.752  0.0715 -1.0119  1.5492
   24MOL   H12521791   4.490   3.535   4.860 -0.5069  0.6177 -0.2732
   24MOL   H12621792   4.432   3.615   4.722  2.5942  1.5062 -4.4253
   24MOL   H12721793   4.662   3.727   4.902 -0.3170  0.6668 -0.3775
   24MOL   H12821794   4.630   3.801   4.755  0.1378  0.6721  1.3672
   24MOL   H12921795   4.392   3.835   4.826  1.8502 -0.8079 -2.0786
   24MOL   H13021796   4.451   3.799   4.988 -1.9341  3.1788  0.7649
   24MOL   H13121797   4.532   4.009   4.791  0.1504  2.6626  1.1529
   24MOL   H13221798   4.452   4.032   4.945  0.5349  1.4056  1.7166
   24MOL   H13321799   4.657   3.959   5.057 -1.9424  1.9337 -0.1048
   24MOL   H13421800   4.747   3.927   4.915  1.7616  1.3195  0.9247
   24MOL   H13521801   4.650   4.203   5.003  1.0728 -0.0587  3.1274
   24MOL   H13621802   4.737   4.189   4.857  1.0328  1.4615  0.5566
   24MOL   H13721803   4.901   4.246   4.975 -1.4768 -0.1787 -0.6944
   24MOL   H13821804   4.925   4.064   4.974  1.7445  1.5996 -0.9546
   24MOL   H13921805   5.060   3.952   5.412 -0.3722 -0.1632 -0.3482
   24MOL   H14021806   5.040   3.954   5.646  0.5564  0.1708 -1.3870
   24MOL   H14121807   4.709   4.228   5.608 -2.2924 -0.9519 -0.7307
   24MOL   H14221808   4.729   4.206   5.359 -0.5854  0.6152 -0.9763
   24MOL   O14321809   4.926   3.985   6.007 -0.1749 -0.0230  0.3361
   24MOL   C14421810   5.036   4.063   6.065 -0.1899 -0.4099  0.1013
   24MOL   C14521811   5.027   4.052   6.216  0.3795 -0.3924  0.2625
   24MOL   C14621812   5.154   4.097   6.286 -0.0556 -0.3324 -0.5714
   24MOL   C14721813   5.139   4.080   6.441 -0.4288 -0.2240  0.6252
   24MOL   C14821814   5.248   4.149   6.523  0.0700 -0.2337 -0.9653
   24MOL   C14921815   5.219   4.302   6.522 -0.2277  0.0939  0.8208
   24MOL   C15021816   5.272   4.383   6.637  0.5724 -0.4597  0.4349
   24MOL   C15121817   5.233   4.532   6.623  0.0081 -0.1572  0.3708
   24MOL   C15221818   5.266   4.617   6.742 -0.4810 -0.1065  0.1161
   24MOL   C15321819   5.243   4.765   6.724  0.1931 -0.0164 -0.0825
   24MOL   O15421820   5.295   4.835   6.833  0.1121 -0.8642  0.1167
   24MOL   C15521821   5.360   4.956   6.811  0.4628 -0.9414  0.2559
   24MOL   O15621822   5.391   4.998   6.699 -0.2926 -0.3769  0.1159
   24MOL   C15721823   5.393   5.032   6.938 -0.0061 -1.2652 -0.8003
   24MOL   C15821824   5.376   4.981   7.070  0.4263 -0.8636  0.1451
   24MOL   C15921825   5.396   5.069   7.179 -0.0821  0.4890  0.8861
   24MOL   C16021826   5.441   5.200   7.159 -0.1439  0.5055  1.0630
   24MOL   C16121827   5.477   5.279   7.275  0.2865  0.0007  0.3964
   24MOL   O16221828   5.478   5.232   7.385 -0.1234 -0.6840 -0.1849
   24MOL   O16321829   5.508   5.405   7.245  0.1300 -0.0670  0.2743
   24MOL   C16421830   5.470   5.252   7.029  0.2223  0.1754 -0.4058
   24MOL   C16521831   5.444   5.165   6.922  0.4015  0.0768  1.1947
   24MOL   H16621832   5.133   4.017   6.043  0.0517 -1.2120  2.7164
   24MOL   H16721833   5.039   4.169   6.042  0.0145 -0.6732 -1.1228
   24MOL   H16821834   5.014   3.946   6.236  2.6099 -0.8700 -0.6271
   24MOL   H16921835   4.939   4.105   6.251  0.8219 -0.7841  2.0168
   24MOL   H17021836   5.233   4.032   6.247  0.0833 -0.0969 -0.6819
   24MOL   H17121837   5.167   4.203   6.262 -1.5115 -0.2243 -0.9180
   24MOL   H17221838   5.141   3.976   6.473 -1.1759 -0.7942 -1.0931
   24MOL   H17321839   5.040   4.115   6.470 -0.2266  0.4378  0.5120
   24MOL   H17421840   5.248   4.122   6.628 -1.5453  0.8429 -0.6667
   24MOL   H17521841   5.349   4.136   6.486  0.8853  0.1689  1.0585
   24MOL   H17621842   5.268   4.335   6.431 -1.2754  0.2710  0.3198
   24MOL   H17721843   5.111   4.311   6.511 -0.2404 -0.0686  0.8080
   24MOL   H17821844   5.217   4.353   6.726 -4.3845  1.2496 -1.8213
   24MOL   H17921845   5.380   4.369   6.632  0.5294 -0.3596 -1.1199
   24MOL   H18021846   5.276   4.578   6.534 -1.1505 -0.3674 -0.3095
   24MOL   H18121847   5.126   4.539   6.603  0.0645 -1.1175 -0.2907
   24MOL   H18221848   5.374   4.607   6.748 -0.4552  0.7958  1.5049
   24MOL   H18321849   5.226   4.578   6.836 -3.9908 -1.9549 -2.0435
   24MOL   H18421850   5.137   4.774   6.744 -0.0631 -2.0899 -0.4011
   24MOL   H18521851   5.272   4.792   6.622  0.3340 -1.4661 -0.4408
   24MOL   H18621852   5.353   4.876   7.085  1.2459 -1.3911 -2.0805
   24MOL   H18721853   5.388   5.037   7.282 -1.2487 -0.4521  0.5113
   24MOL   H18821854   5.495   5.355   7.006  1.1794  0.2060  0.7393
   24MOL   H18921855   5.458   5.200   6.820 -1.8765  0.2088  0.8944
   24MOL   O19021856   5.561   5.484   7.359  0.7419  0.5050  0.1760
   24MOL   C19121857   5.704   5.487   7.326  0.1100  0.3439  0.1485
   24MOL   C19221858   5.793   5.506   7.449  0.0646  0.2225 -0.0798
   24MOL   C19321859   5.771   5.640   7.515  0.2040  0.4661 -0.5231
   24MOL   C19421860   5.870   5.680   7.625 -0.3114 -0.4556  0.2968
   24MOL   C19521861   5.836   5.621   7.763  0.1476 -0.2798  0.0111
   24MOL   C19621862   5.939   5.660   7.874  0.6847 -0.2290  0.1424
   24MOL   C19721863   5.868   5.629   0.033  0.9631  0.3343 -0.0524
   24MOL   C19821864   5.952   5.682   0.155  0.3181 -0.5231 -0.4729
   24MOL   C19921865   5.895   5.617   0.288  0.1904 -0.5794  0.3738
   24MOL   C20021866   5.943   5.674   0.426  0.0127  0.0304  0.2454
   24MOL   O20121867   6.079   5.695   0.428  0.3686 -0.1195  0.1074
   24MOL   C20221868   6.160   5.633   0.518  0.7574  0.1611  0.1719
   24MOL   O20321869   6.110   5.550   0.596  0.0336 -0.0535 -0.0285
   24MOL   C20421870   6.301   5.655   0.496  0.1365  0.3608  0.6022
   24MOL   C20521871   6.398   5.586   0.575 -0.4622 -0.6754  0.1562
   24MOL   C20621872   6.534   5.590   0.533 -0.0153  0.2292  0.3160
   24MOL   C20721873   6.578   5.666   0.429  0.0544  0.2064 -0.0146
   24MOL   C20821874   6.720   5.665   0.390  0.2814 -0.4149 -0.1290
   24MOL   O20921875   6.812   5.618   0.459  0.1986  0.1156  0.5755
   24MOL   O21021876   6.733   5.705   0.253 -0.5687  0.1826 -0.1105
   24MOL   C21121877   6.480   5.736   0.358 -0.2038  0.7969  0.4865
   24MOL   C21221878   6.344   5.739   0.392 -0.2111  0.3696  0.1752
   24MOL   H21321879   5.735   5.399   7.269  0.4387  0.9025 -0.5543
   24MOL   H21421880   5.720   5.560   7.247  0.6224  1.2679  1.1027
   24MOL   H21521881   5.892   5.482   7.409 -0.0522  0.5187 -0.5483
   24MOL   H21621882   5.769   5.425   7.518 -1.9929  1.0483  0.1877
   24MOL   H21721883   5.781   5.720   7.442 -0.2070 -0.0753 -1.1742
   24MOL   H21821884   5.664   5.652   7.533 -0.0603  0.5560 -2.1356
   24MOL   H21921885   5.869   5.789   7.626  1.5610 -0.4191 -1.0423
   24MOL   H22021886   5.965   5.651   7.581  0.3664  0.5740  1.0591
   24MOL   H22121887   5.739   5.659   7.796  0.5549  0.3970  0.4396
   24MOL   H22221888   5.827   5.513   7.750 -0.3923 -0.3313  0.7732
   24MOL   H22321889   6.028   5.597   7.870  1.6618  1.0993  0.6605
   24MOL   H22421890   5.964   5.766   7.872 -0.6468  0.0921 -0.0587
   24MOL   H22521891   5.771   5.680   0.029 -0.4581 -2.3260 -0.7202
   24MOL   H22621892   5.854   5.523   0.053  1.5736  0.4946  1.3022
   24MOL   H22721893   6.058   5.664   0.135  0.5526  1.4786 -1.1681
   24MOL   H22821894   5.936   5.790   0.157 -1.6383 -0.7710 -1.3590
   24MOL   H22921895   5.919   5.511   0.289  1.9105 -0.1985 -0.3058
   24MOL   H23021896   5.786   5.625   0.280  0.1668 -0.0637  1.1140
   24MOL   H23121897   5.898   5.617   0.507  1.7348  0.5611  1.6040
   24MOL   H23221898   5.890   5.769   0.430 -1.5590 -0.7652 -0.9700
   24MOL   H23321899   6.371   5.520   0.656  2.2403 -3.8054 -1.3825
   24MOL   H23421900   6.600   5.522   0.585 -2.3517  0.5126  3.8174
   24MOL   H23521901   6.519   5.787   0.272 -2.0492 -0.2610 -1.0031
   24MOL   H23621902   6.275   5.764   0.313 -0.3482  0.8970  0.4613
   24MOL   O23721903   6.876   5.734   0.210  0.3390  0.2110  0.3917
   24MOL   C23821904   6.909   5.633   0.111  0.1844 -0.0123 -0.1509
   24MOL   C23921905   7.047   5.671   0.067  0.0661  0.0472  0.5021
   24MOL   C24021906   7.106   5.579   7.936 -0.4865  0.2508  0.8650
   24MOL   C24121907   7.249   5.617   7.895 -0.3678  0.3300  0.1500
   24MOL   C24221908   7.243   5.721   7.775 -0.7860 -0.2152 -0.3351
   24MOL   C24321909   7.383   5.764   7.720 -0.0719 -0.5213  0.1429
   24MOL   C24421910   7.368   5.845   7.596 -0.5003 -0.3480 -0.0596
   24MOL   C24521911   7.493   5.865   7.508  0.5023 -0.2750  0.0948
   24MOL   C24621912   7.454   5.878   7.361 -0.9417 -0.2234  0.2069
   24MOL   C24721913   7.570   5.928   7.278  0.1630 -0.2787  0.0065
   24MOL   O24821914   7.623   6.051   7.325 -0.1799 -0.1707  0.2947
   24MOL   C24921915   7.740   6.051   7.394 -0.3647 -0.4773 -0.0634
   24MOL   O25021916   7.817   5.957   7.405  0.2899 -1.0080  0.0287
   24MOL   C25121917   7.768   6.186   7.455 -0.3392  1.0245  0.2231
   24MOL   C25221918   7.670   6.283   7.477 -0.0316 -0.5502  0.0855
   24MOL   C25321919   7.715   6.400   7.552 -0.0753 -0.0610 -0.5416
   24MOL   C25421920   7.848   6.419   7.608  0.3861 -0.2405 -0.0510
   24MOL   C25521921   7.876   6.533   7.699 -0.0307  0.3972 -0.0487
   24MOL   O25621922   7.962   6.530   7.785  0.0133  0.2452 -0.5069
   24MOL   O25721923   7.790   6.638   7.689 -0.3674  0.2998 -0.2788
   24MOL   C25821924   7.943   6.320   7.584 -0.7263 -0.1687  0.0478
   24MOL   C25921925   7.905   6.207   7.503  0.0058 -0.6774  0.2609
   24MOL   H26021926   6.891   5.534   0.154 -0.1410  0.1508  0.0895
   24MOL   H26121927   6.840   5.634   0.027  1.0236 -0.2824 -0.8463
   24MOL   H26221928   7.104   5.665   0.160  0.1441 -1.6211  0.3535
   24MOL   H26321929   7.036   5.774   0.032  0.3160 -0.2217 -0.3793
   24MOL   H26421930   7.114   5.479   0.001 -0.1387 -0.1829 -0.1936
   24MOL   H26521931   7.045   5.574   7.846 -0.1635  2.1231  0.5118
   24MOL   H26621932   7.287   5.522   7.859  0.4671  0.8589 -0.3642
   24MOL   H26721933   7.307   5.638   0.006  0.3424  1.3985 -0.5521
   24MOL   H26821934   7.187   5.679   7.692  1.0257 -0.6966 -1.3343
   24MOL   H26921935   7.193   5.815   7.797 -1.7912 -1.0979  1.2782
   24MOL   H27021936   7.448   5.811   7.795  0.4586  1.9223 -1.7916
   24MOL   H27121937   7.446   5.676   7.709  0.6809 -0.0997  0.8980
   24MOL   H27221938   7.294   5.799   7.530  0.0952 -3.1048  1.1513
   24MOL   H27321939   7.331   5.937   7.642  1.5971 -0.3921  1.7696
   24MOL   H27421940   7.538   5.959   7.540  3.2872 -1.1220 -1.1745
   24MOL   H27521941   7.568   5.788   7.531  0.4021  0.0173  1.4836
   24MOL   H27621942   7.367   5.943   7.352  0.1777  1.0803 -1.5544
   24MOL   H27721943   7.419   5.784   7.320  0.4047  0.0785 -1.6880
   24MOL   H27821944   7.539   5.938   7.174 -0.6049 -1.1399  0.1478
   24MOL   H27921945   7.651   5.857   7.258  0.5343 -0.1487  1.0460
   24MOL   H28021946   7.566   6.275   7.449  0.2916 -1.2496 -0.9783
   24MOL   H28121947   7.642   6.476   7.576 -0.5064 -0.6539  0.0452
   24MOL   H28221948   0.065   6.342   7.616 -0.8581  2.0197 -0.9425
   24MOL   H28321949   0.007   6.135   7.500 -0.8614 -1.6689  0.6286
   24MOL   O28421950   7.807   6.747   7.794  0.1215  0.9668  0.3250
   24MOL   C28521951   7.699   6.743   7.879 -0.8196  0.2608  0.3238
   24MOL   C28621952   7.691   6.620   7.957  0.3101 -0.2985 -0.3994
   24MOL   C28721953   7.573   6.610   0.071 -0.0693 -0.1550 -0.5238
   24MOL   C28821954   7.607   6.529   0.197  0.6288  1.0889 -0.3717
   24MOL   C28921955   7.481   6.501   0.284  0.1610 -0.6851 -0.4133
   24MOL   C29021956   7.387   6.390   0.232  0.1985  0.8032  0.0756
   24MOL   C29121957   7.282   6.355   0.335  0.0515  0.5575 -0.1973
   24MOL   C29221958   7.193   6.244   0.298 -0.3458 -0.7446  0.2056
   24MOL   C29321959   7.085   6.204   0.394  0.4815 -0.0252  0.3740
   24MOL   C29421960   7.000   6.097   0.332  0.6129  0.5884  0.3103
   24MOL   O29521961   6.917   6.035   0.428  0.5319  0.0021 -0.6487
   24MOL   C29621962   6.793   6.087   0.437  0.5103 -0.2567 -0.6234
   24MOL   O29721963   6.759   6.193   0.377 -0.3693  0.1433  0.0996
   24MOL   C29821964   6.698   6.010   0.530  0.1498  0.1120 -0.1847
   24MOL   C29921965   6.559   6.043   0.535 -0.3644  0.4024  0.3013
   24MOL   C30021966   6.474   5.975   0.630 -0.2265 -0.7397  0.1893
   24MOL   C30121967   6.528   5.882   0.721  0.1764 -0.1471  0.3421
   24MOL   C30221968   6.435   5.803   0.817  0.0738  0.3088 -0.1807
   24MOL   O30321969   6.313   5.802   0.809 -0.2608  0.4087 -0.3800
   24MOL   O30421970   6.500   5.720   0.903 -0.2106 -0.5819  0.3236
   24MOL   C30521971   6.668   5.851   0.722  0.5478 -0.0707  0.5834
   24MOL   C30621972   6.754   5.916   0.626  0.1970 -0.9465  0.5263
   24MOL   H30721973   7.716   6.831   7.942  1.8467  0.1491 -0.1756
   24MOL   H30821974   7.606   6.758   7.825 -1.2658 -0.5905  0.8517
   24MOL   H30921975   7.777   6.607   0.046 -0.1965 -1.9337 -0.0510
   24MOL   H31021976   7.702   6.532   7.893 -0.9919 -0.2508 -0.6920
   24MOL   H31121977   7.547   6.709   0.108 -0.1785 -0.5758  0.5467
   24MOL   H31221978   7.489   6.572   0.012 -0.4306 -0.6391  0.2890
   24MOL   H31321979   7.677   6.590   0.255  2.0471 -0.8665 -0.0023
   24MOL   H31421980   7.653   6.433   0.173 -0.6928 -0.2141  2.0936
   24MOL   H31521981   7.522   6.468   0.380  0.0170  1.1101  0.2874
   24MOL   H31621982   7.433   6.596   0.305 -0.1686 -0.4211 -2.2612
   24MOL   H31721983   7.336   6.422   0.142  0.0544 -0.7292 -0.3872
   24MOL   H31821984   7.455   6.310   0.205  1.7496  2.6577 -1.7291
   24MOL   H31921985   7.340   6.323   0.422 -0.5544 -2.2083 -0.7638
   24MOL   H32021986   7.229   6.448   0.358 -0.4183 -0.0975  1.4229
   24MOL   H32121987   7.139   6.282   0.211 -1.4466  1.5230  1.8357
   24MOL   H32221988   7.255   6.160   0.264  1.4719  1.2126 -1.4757
   24MOL   H32321989   7.019   6.286   0.422  0.5421 -0.0658  0.6400
   24MOL   H32421990   7.127   6.170   0.489 -0.9877  0.0621  1.0764
   24MOL   H32521991   7.060   6.014   0.293 -1.6529 -0.4408 -1.0993
   24MOL   H32621992   6.939   6.140   0.252  1.7426 -0.8965 -1.4124
   24MOL   H32721993   6.523   6.122   0.471 -1.9129  0.1156  0.7972
   24MOL   H32821994   6.369   5.999   0.631  0.1209  1.2725 -3.0756
   24MOL   H32921995   6.709   5.780   0.792 -0.7924 -0.5058  0.9514
   24MOL   H33021996   6.860   5.895   0.625  0.3052 -0.4334 -2.1929
   24MOL   O33121997   6.400   5.663   1.008  0.1812 -0.4076 -0.4388
   24MOL   C33221998   6.391   5.524   0.987 -0.0336  0.0571 -0.3495
   24MOL   C33321999   6.523   5.455   1.033 -1.1867  0.0030 -0.7097
   24MOL   C33422000   6.544   5.460   1.181  0.4048  0.2227 -0.1625
   24MOL   C33522001   6.682   5.418   1.229  0.7178  0.2218  1.4539
   24MOL   C33622002   6.696   5.432   1.373 -0.3188  0.1229 -0.4441
   24MOL   C33722003   6.827   5.382   1.432  0.9271  0.8045  0.2973
   24MOL   C33822004   6.834   5.389   1.583 -0.0631  0.5451  0.0424
   24MOL   C33922005   6.812   5.527   1.657  0.1580 -0.0434 -0.2029
   24MOL   C34022006   6.823   5.504   1.805 -0.6777  0.7304  0.2606
   24MOL   C34122007   6.840   5.628   1.890 -0.1691 -0.1460  0.0332
   24MOL   O34222008   6.739   5.722   1.869 -0.5579  0.4084 -0.1529
   24MOL   C34322009   6.766   5.851   1.897 -0.3902  0.1761 -0.1415
   24MOL   O34422010   6.857   5.893   1.965 -0.2980 -0.1588 -0.7557
   24MOL   C34522011   6.672   5.943   1.833 -0.0934  0.8240 -0.9048
   24MOL   C34622012   6.702   6.082   1.832 -0.1537 -0.1649 -0.1810
   24MOL   C34722013   6.606   6.171   1.775  0.0207 -0.4528 -0.1357
   24MOL   C34822014   6.488   6.126   1.717  0.1882 -0.0018 -0.6682
   24MOL   C34922015   6.403   6.231   1.657 -0.4239 -0.2886  0.4202
   24MOL   O35022016   6.429   6.351   1.670  0.3169 -0.2595 -0.1453
   24MOL   O35122017   6.310   6.182   1.576  0.6479  0.3759  0.1056
   24MOL   C35222018   6.466   5.990   1.707 -0.0008 -0.0812 -0.8681
   24MOL   C35322019   6.547   5.898   1.779  0.5598 -0.0856  0.1348
   24MOL   H35422020   6.306   5.481   1.039 -0.5674  0.5931 -0.7657
   24MOL   H35522021   6.364   5.522   0.881  0.8087 -0.9858 -0.5471
   24MOL   H35622022   6.607   5.496   0.978  0.9065 -2.9632  0.1419
   24MOL   H35722023   6.514   5.349   1.008  0.3921 -0.3982  0.3758
   24MOL   H35822024   6.515   5.555   1.227 -1.7460 -0.4320 -0.0727
   24MOL   H35922025   6.473   5.389   1.224  2.0081 -0.8712  0.6940
   24MOL   H36022026   6.760   5.471   1.175  1.2626 -1.0176  0.9953
   24MOL   H36122027   6.697   5.312   1.207 -0.7046  0.1087  0.9708
   24MOL   H36222028   6.687   5.540   1.386 -0.1819  0.3046 -1.7346
   24MOL   H36322029   6.612   5.376   1.414  0.8995 -1.9593 -0.7274
   24MOL   H36422030   6.840   5.277   1.406 -0.8757  1.3242 -3.0344
   24MOL   H36522031   6.899   5.437   1.372  0.1894 -1.2693 -2.6154
   24MOL   H36622032   6.758   5.336   1.641  0.8239  1.9001  2.5180
   24MOL   H36722033   6.919   5.335   1.625 -1.1338  0.7708  2.6193
   24MOL   H36822034   6.895   5.585   1.617 -1.5292  2.3330 -0.3109
   24MOL   H36922035   6.716   5.573   1.634  0.4396  0.3558 -0.5911
   24MOL   H37022036   6.912   5.443   1.819 -0.1549  1.2089 -0.9020
   24MOL   H37122037   6.753   5.429   1.841  1.8676 -1.5508  0.5828
   24MOL   H37222038   6.935   5.669   1.856 -0.2663 -0.6107 -0.8046
   24MOL   H37322039   6.863   5.615   1.996  0.4636  0.2588 -0.0478
   24MOL   H37422040   6.788   6.127   1.879 -2.0005  1.1300  2.0912
   24MOL   H37522041   6.629   6.277   1.776  0.0183 -0.4344  2.5312
   24MOL   H37622042   6.375   5.951   1.662 -0.2301 -2.9349  1.9303
   24MOL   H37722043   6.539   5.790   1.768 -3.9540  0.0149  1.6393
   24MOL   O37822044   6.240   6.283   1.482 -0.3297 -0.0640 -0.0151
   24MOL   C37922045   6.139   6.347   1.555 -0.0603  0.0701  0.0472
   24MOL   C38022046   6.033   6.264   1.618 -0.2031 -0.3299  0.2041
   24MOL   C38122047   5.924   6.351   1.694 -0.1236  0.0959 -0.2964
   24MOL   C38222048   5.822   6.261   1.753 -0.1365 -0.7906 -0.0976
   24MOL   C38322049   5.730   6.325   1.852  0.0239  0.3035  0.5066
   24MOL   C38422050   5.634   6.227   1.927  0.0882  0.3754 -0.5421
   24MOL   C38522051   5.710   6.116   1.998  0.2188  0.3235 -0.3102
   24MOL   C38622052   5.700   5.988   1.915  0.2123  0.3106  0.8974
   24MOL   C38722053   5.802   5.876   1.950 -0.3241 -0.5023  0.2718
   24MOL   C38822054   5.955   5.905   1.929 -0.4290 -0.4057 -0.0461
   24MOL   O38922055   6.020   5.780   1.935 -0.7995 -0.0589 -0.3731
   24MOL   C39022056   6.143   5.770   1.886  0.5426  0.6349  0.3041
   24MOL   O39122057   6.191   5.860   1.813  0.4867 -0.0436  0.4554
   24MOL   C39222058   6.206   5.645   1.926  0.1380  0.2401  0.6772
   24MOL   C39322059   6.155   5.578   2.040  0.5058  0.3141  0.4184
   24MOL   C39422060   6.219   5.458   2.084 -0.1001 -0.5321  0.3406
   24MOL   C39522061   6.325   5.399   2.014 -0.2250  0.7816  0.0893
   24MOL   C39622062   6.390   5.274   2.067 -0.4362  0.4894  0.4119
   24MOL   O39722063   6.442   5.184   1.998  0.8992  0.1413  0.3495
   24MOL   O39822064   6.383   5.256   2.204 -0.3290  0.0430  0.0423
   24MOL   C39922065   6.372   5.463   1.894  0.5325  0.1436 -0.4830
   24MOL   C40022066   6.311   5.585   1.855  0.6907  0.2435  0.7560
   24MOL   H40122067   6.181   6.409   1.634  0.7402 -1.2263  0.6499
   24MOL   H40222068   6.085   6.402   1.478  1.2809  1.9810  0.4439
   24MOL   H40322069   6.079   6.198   1.692 -0.1414  1.4296  1.7534
   24MOL   H40422070   5.978   6.206   1.544 -0.7350  0.4467 -0.0094
   24MOL   H40522071   5.969   6.408   1.776  1.2964  0.9575 -1.6598
   24MOL   H40622072   5.886   6.433   1.632 -2.1153 -1.1467 -0.7807
   24MOL   H40722073   5.886   6.186   1.799 -0.2082 -0.9714 -0.2950
   24MOL   H40822074   5.766   6.222   1.668 -0.3724 -1.9890  0.6060
   24MOL   H40922075   5.791   6.381   1.923  0.5042  1.8941 -1.1046
   24MOL   H41022076   5.674   6.407   1.806 -0.6212  0.5747  1.7627
   24MOL   H41122077   5.580   6.277   2.009  0.6719  1.3379 -0.7344
   24MOL   H41222078   5.563   6.190   1.853  2.0110 -2.5284 -1.0142
   24MOL   H41322079   5.812   6.146   2.021  0.4780 -1.8173  1.5227
   24MOL   H41422080   5.660   6.099   2.093 -0.0648  2.1206 -0.1214
   24MOL   H41522081   5.603   5.939   1.907  0.2031  0.4814 -0.1470
   24MOL   H41622082   5.731   6.015   1.814 -1.7916  0.1664  0.2292
   24MOL   H41722083   5.768   5.787   1.897 -0.6925 -1.6851  2.4207
   24MOL   H41822084   5.789   5.844   2.053  0.4499  1.4497  1.0034
   24MOL   H41922085   5.996   5.968   2.007  1.2160 -0.1178 -1.1332
   24MOL   H42022086   5.961   5.964   1.837  2.2443  1.3714  1.2233
   24MOL   H42122087   6.085   5.631   2.103  0.9438  0.2035  1.0106
   24MOL   H42222088   6.182   5.418   2.177 -1.7956  0.0663 -0.0592
   24MOL   H42322089   6.451   5.425   1.832  1.6545  2.6902 -0.6712
   24MOL   H42422090   6.349   5.639   1.769  0.6098  0.3096  0.7624
   24MOL   O42522091   6.428   5.124   2.256 -0.0154  0.0231  0.4420
   24MOL   C42622092   6.309   5.049   2.275  0.0557  0.6158 -0.1258
   24MOL   C42722093   6.335   4.914   2.345  0.0780 -0.4075 -0.0920
   24MOL   C42822094   6.367   4.943   2.496 -0.6873 -0.3129 -0.1154
   24MOL   C42922095   6.259   5.006   2.582  0.1156  0.4702  0.2008
   24MOL   C43022096   6.151   4.906   2.636  0.8168  0.1124 -0.1636
   24MOL   C43122097   6.208   4.820   2.752  0.5962 -0.3275  0.1461
   24MOL   C43222098   6.238   4.681   2.694  0.0890  0.1084  0.0185
   24MOL   C43322099   6.297   4.579   2.792 -0.0055 -0.2099 -0.1341
   24MOL   C43422100   6.197   4.496   2.875  0.4248  0.2997 -0.0072
   24MOL   C43522101   6.266   4.402   2.971  0.0857  0.2675 -0.6293
   24MOL   O43622102   6.180   4.344   3.069 -0.3369  0.5682  0.2994
   24MOL   C43722103   6.100   4.238   3.037 -0.6407 -0.4779 -0.1599
   24MOL   O43822104   6.090   4.195   2.923  0.2171  0.3701 -0.2863
   24MOL   C43922105   6.023   4.197   3.158 -0.5577 -0.3116  0.2650
   24MOL   C44022106   6.049   4.239   3.291 -0.1748  0.5127  0.2393
   24MOL   C44122107   5.965   4.194   3.398 -0.5753 -0.3413  0.2217
   24MOL   C44222108   5.853   4.111   3.368 -0.2575  0.7890  0.3075
   24MOL   C44322109   5.772   4.057   3.484 -0.0570 -0.4981 -0.2564
   24MOL   O44422110   5.802   4.064   3.603  0.1152  0.3104 -0.2389
   24MOL   O44522111   5.649   4.011   3.441 -0.0024 -0.3208 -0.0865
   24MOL   C44622112   5.827   4.075   3.233  0.9037 -0.9486 -0.4530
   24MOL   C44722113   5.905   4.116   3.130  0.0639  0.2752  0.8892
   24MOL   H44822114   6.240   5.115   2.326  2.4347  1.8792  1.5351
   24MOL   H44922115   6.274   5.028   2.174 -0.9610 -1.7090  0.6733
   24MOL   H45022116   6.408   4.847   2.298 -0.6684 -2.2015  1.2551
   24MOL   H45122117   6.242   4.858   2.344  0.5218 -1.2145  2.3700
   24MOL   H45222118   6.420   4.859   2.542  0.1850  0.5952  0.5544
   24MOL   H45322119   6.458   5.002   2.501 -0.3475 -0.5631 -2.5366
   24MOL   H45422120   6.208   5.084   2.525  0.9173 -0.3306 -1.6577
   24MOL   H45522121   6.316   5.049   2.664  0.7868  0.9201 -0.4903
   24MOL   H45622122   6.078   4.972   2.683 -1.6822 -2.2686 -0.5594
   24MOL   H45722123   6.100   4.847   2.559  1.2683 -1.5192  0.7709
   24MOL   H45822124   6.290   4.874   2.799 -0.2336 -0.2734  1.5666
   24MOL   H45922125   6.134   4.802   2.830 -0.4762  1.2074 -0.5031
   24MOL   H46022126   6.140   4.639   2.668  0.1896 -1.1437  1.5773
   24MOL   H46122127   6.301   4.682   2.605 -0.5553  0.4609 -0.4370
   24MOL   H46222128   6.350   4.500   2.739 -1.0203 -0.6705 -0.4848
   24MOL   H46322129   6.366   4.638   2.852 -0.4009  1.3839 -1.2116
   24MOL   H46422130   6.144   4.429   2.807  0.9057 -0.2253  0.1272
   24MOL   H46522131   6.127   4.555   2.933 -0.7473 -1.3898  0.3582
   24MOL   H46622132   6.342   4.459   3.023 -0.1655 -0.1487  0.1978
   24MOL   H46722133   6.317   4.325   2.913  1.3199 -0.3224  1.1944
   24MOL   H46822134   6.143   4.287   3.312  0.0638  0.8793 -1.5522
   24MOL   H46922135   5.995   4.213   3.500  0.9406 -0.0534 -0.2712
   24MOL   H47022136   5.740   4.015   3.212 -0.5958  0.8205  0.5482
   24MOL   H47122137   5.893   4.079   3.028 -0.6389 -0.2428  1.1542
   24MOL   O47222138   5.567   3.956   3.560 -0.1468  0.2651 -0.6867
   24MOL   C47322139   5.521   3.822   3.528  0.4090 -0.8936  0.3196
   24MOL   C47422140   5.388   3.813   3.605  0.0240 -0.0884 -0.7533
   24MOL   C47522141   5.276   3.908   3.555 -0.6277 -0.3940 -0.1944
   24MOL   C47622142   5.157   3.921   3.648  0.4430  0.8017 -0.6249
   24MOL   C47722143   5.050   4.017   3.600 -0.6904 -0.5598 -0.4577
   24MOL   C47822144   4.928   4.032   3.687 -0.0101 -0.0252 -1.4617
   24MOL   C47922145   4.946   4.060   3.839 -0.1213 -0.1389 -0.7112
   24MOL   C48022146   4.810   4.057   3.917 -0.3423  0.2670  0.0230
   24MOL   C48122147   4.760   3.915   3.947 -0.3429  0.8022 -0.0212
   24MOL   C48222148   4.644   3.929   4.049  0.3796 -0.0559 -0.3216
   24MOL   O48322149   4.600   3.792   4.068 -0.5233  0.0389 -0.6996
   24MOL   C48422150   4.490   3.755   4.145 -0.6202 -0.0996 -0.3655
   24MOL   O48522151   4.396   3.828   4.171 -0.0237 -0.6163 -0.3830
   24MOL   C48622152   4.496   3.610   4.174 -0.3177  0.4679 -0.7447
   24MOL   C48722153   4.617   3.534   4.152  0.0213  0.0091 -0.0628
   24MOL   C48822154   4.627   3.397   4.188  0.2286 -0.0829  0.5100
   24MOL   C48922155   4.511   3.327   4.231  0.1249 -0.8303  0.2590
   24MOL   C49022156   4.507   3.179   4.250  0.7770 -0.5773 -0.2531
   24MOL   O49122157   4.395   3.125   4.247  0.6429 -0.2621 -0.1388
   24MOL   O49222158   4.615   3.116   4.252  0.3519  0.1113 -0.0951
   24MOL   C49322159   4.396   3.401   4.259  0.3939  0.3388  0.1787
   24MOL   C49422160   4.387   3.541   4.232  0.5619  0.1396  0.3901
   24MOL   H49522161   5.499   3.805   3.423 -0.6356  2.1757 -0.0060
   24MOL   H49622162   5.603   3.759   3.563  3.5070  0.6761 -3.7504
   24MOL   H49722163   5.406   3.847   3.707  0.8067 -0.1023 -0.8899
   24MOL   H49822164   5.365   3.708   3.623  0.5554  0.1800  1.7190
   24MOL   H49922165   5.321   4.006   3.547 -1.4438 -0.0256 -0.3369
   24MOL   H50022166   5.241   3.877   3.457 -1.2010 -0.0167 -0.1129
   24MOL   H50122167   5.202   3.952   3.743 -1.1029 -2.5217  1.2498
   24MOL   H50222168   5.113   3.823   3.666  1.3125  0.6816  1.0302
   24MOL   H50322169   5.094   4.110   3.563 -3.3652  0.4502 -1.2075
   24MOL   H50422170   4.999   3.974   3.515 -1.2959  0.0800 -0.4246
   24MOL   H50522171   4.857   4.096   3.636 -0.5329  0.5327 -0.0568
   24MOL   H50622172   4.882   3.933   3.695  0.7185 -0.2802 -0.2093
   24MOL   H50722173   5.004   3.975   3.874  0.3076  0.0641 -0.9319
   24MOL   H50822174   5.001   4.152   3.861  0.3531 -0.7791  0.8003
   24MOL   H50922175   4.831   4.116   4.006  1.0835 -0.0771 -0.0766
   24MOL   H51022176   4.738   4.116   3.860 -2.7841  0.7053  3.3710
   24MOL   H51122177   4.838   3.844   3.976 -0.8035  0.5800  0.6859
   24MOL   H51222178   4.709   3.881   3.857 -0.6767  0.2303  0.3792
   24MOL   H51322179   4.563   3.990   4.009 -1.4750 -0.5266  2.5599
   24MOL   H51422180   4.687   3.964   4.143  1.6350  0.1174 -0.9480
   24MOL   H51522181   4.704   3.589   4.120 -0.1806  0.4823  0.2096
   24MOL   H51622182   4.712   3.337   4.157 -0.6840 -0.4020 -1.4709
   24MOL   H51722183   4.304   3.356   4.292  0.0379 -0.1512 -1.4096
   24MOL   H51822184   4.296   3.598   4.248  0.6056  0.2728  0.1629
   24MOL   O51922185   4.598   2.967   4.237 -0.0022  1.6071 -0.3896
   24MOL   C52022186   4.579   2.894   4.365 -0.8231  0.4836 -0.5401
   24MOL   C52122187   4.710   2.922   4.455 -0.6432  0.2264 -0.2394
   24MOL   C52222188   4.701   2.838   4.583  0.5894 -0.6603  0.3435
   24MOL   C52322189   4.599   2.887   4.684  0.3505  0.1267 -0.0505
   24MOL   C52422190   4.612   2.819   4.827 -0.2663 -0.3956  0.0505
   24MOL   C52522191   4.724   2.866   4.913 -0.4613 -0.3683 -0.3079
   24MOL   C52622192   4.757   2.794   5.043 -0.4482  0.4571  0.0377
   24MOL   C52722193   4.808   2.654   5.025  0.3043 -0.8977 -0.1895
   24MOL   C52822194   4.787   2.571   5.155 -0.2179  0.0196  0.6089
   24MOL   C52922195   4.811   2.417   5.124 -0.1160 -0.6831 -0.3060
   24MOL   O53022196   4.713   2.330   5.176 -0.7109 -0.1179 -0.6494
   24MOL   C53122197   4.726   2.199   5.145  0.2911 -0.7355 -0.1678
   24MOL   O53222198   4.819   2.154   5.080 -0.1482  0.2087 -0.4264
   24MOL   C53322199   4.631   2.113   5.208  0.3282 -0.1962  0.0826
   24MOL   C53422200   4.632   1.977   5.180  0.5214  0.3208  0.2345
   24MOL   C53522201   4.531   1.888   5.237  0.4135 -0.7398 -0.2425
   24MOL   C53622202   4.448   1.931   5.344 -0.2811  0.1290 -0.3361
   24MOL   C53722203   4.367   1.833   5.418 -0.5396  0.4192 -0.5453
   24MOL   O53822204   4.365   1.709   5.391 -0.5139 -0.3302 -0.2022
   24MOL   O53922205   4.295   1.895   5.511  0.5670  0.6504 -0.1146
   24MOL   C54022206   4.456   2.069   5.383 -0.1089 -0.4542  0.3397
   24MOL   C54122207   4.541   2.162   5.309 -0.1245  0.8736  0.2225
   24MOL   H54222208   4.484   2.926   4.410 -0.5203  2.5210 -1.3118
   24MOL   H54322209   4.572   2.787   4.343  2.2892 -0.2799  1.8137
   24MOL   H54422210   4.729   3.026   4.479  1.3828 -0.7062  2.4853
   24MOL   H54522211   4.784   2.891   4.382 -1.8383 -1.0112 -0.9571
   24MOL   H54622212   4.676   2.733   4.568  0.0597 -0.3804 -0.7850
   24MOL   H54722213   4.799   2.831   4.632 -0.4363  0.8966  2.7301
   24MOL   H54822214   4.497   2.864   4.652 -0.1681  0.5240  1.2755
   24MOL   H54922215   4.603   2.996   4.693  2.2020  0.1402 -0.9586
   24MOL   H55022216   4.513   2.821   4.872 -1.6807 -2.0595 -2.8973
   24MOL   H55122217   4.629   2.713   4.812  2.1604 -0.1369  0.6335
   24MOL   H55222218   4.817   2.877   4.857 -2.0213  1.8717 -2.5732
   24MOL   H55322219   4.686   2.965   4.937  1.4388  0.1826  0.5689
   24MOL   H55422220   4.837   2.849   5.094  0.2159  1.6605 -2.2517
   24MOL   H55522221   4.669   2.799   5.108 -2.6110 -0.4780 -2.7493
   24MOL   H55622222   4.771   2.604   4.936  0.9361 -1.5279 -0.1031
   24MOL   H55722223   4.915   2.660   5.005 -0.0539  0.3441 -1.8224
   24MOL   H55822224   4.688   2.587   5.197 -0.3873  2.0171 -0.4923
   24MOL   H55922225   4.861   2.595   5.231  1.6149 -1.7026 -0.5601
   24MOL   H56022226   4.904   2.387   5.172 -0.4784  1.0896  1.5836
   24MOL   H56122227   4.816   2.394   5.018 -0.9868  2.1307 -1.0167
   24MOL   H56222228   4.693   1.946   5.096 -0.8137  0.4183 -0.7920
   24MOL   H56322229   4.520   1.789   5.195 -0.5743 -0.0609 -1.5751
   24MOL   H56422230   4.401   2.110   5.467  1.6588 -0.7273  1.6535
   24MOL   H56522231   4.539   2.266   5.335  1.7632  0.7508  0.8768
   24MOL   O56622232   4.195   1.805   5.576  0.3139  0.3064 -0.4042
   24MOL   C56722233   4.074   1.844   5.514 -0.1593  0.1335  0.0681
   24MOL   C56822234   3.954   1.801   5.607 -0.2936  0.5546  0.2686
   24MOL   C56922235   3.825   1.797   5.532  0.3595 -0.7405 -0.3635
   24MOL   C57022236   3.695   1.780   5.615 -0.2009  0.3104 -0.7883
   24MOL   C57122237   3.571   1.809   5.527  0.2044  0.2140  0.1460
   24MOL   C57222238   3.440   1.792   5.602  0.1412 -0.0853  0.1830
   24MOL   C57322239   3.324   1.778   5.510  0.0298  0.5128 -0.2927
   24MOL   C57422240   3.189   1.737   5.580  0.5333 -0.3006 -0.8024
   24MOL   C57522241   3.070   1.713   5.492  0.9196 -0.1873  0.0024
   24MOL   C57622242   2.935   1.688   5.563 -0.7239  0.0651 -0.3273
   24MOL   O57722243   2.945   1.563   5.635  0.3638 -0.2321  0.2189
   24MOL   C57822244   2.839   1.531   5.714  0.7657 -0.1211  0.3003
   24MOL   O57922245   2.744   1.611   5.737 -0.3740  0.4017  0.0480
   24MOL   C58022246   2.852   1.399   5.771  0.4389 -0.1587 -0.1451
   24MOL   C58122247   2.910   1.290   5.704  0.6324  0.4329  0.2589
   24MOL   C58222248   2.891   1.156   5.745 -0.5137  0.2733 -0.0931
   24MOL   C58322249   2.825   1.132   5.866 -0.2362 -0.7534 -0.2432
   24MOL   C58422250   2.811   0.988   5.917  0.2127 -1.1501 -0.2080
   24MOL   O58522251   2.761   0.966   6.029 -0.1945  0.2689  0.2437
   24MOL   O58622252   2.868   0.892   5.845 -0.1777  0.5807  0.7004
   24MOL   C58722253   2.766   1.243   5.939 -0.2305 -0.3231 -0.2620
   24MOL   C58822254   2.783   1.372   5.890 -0.0660 -0.2494 -0.1716
   24MOL   H58922255   4.070   1.952   5.499 -1.0339  0.2149  0.8072
   24MOL   H59022256   4.056   1.792   5.420 -1.2459  1.0965 -0.2772
   24MOL   H59122257   3.943   1.864   5.695 -0.0444 -0.4616  1.0238
   24MOL   H59222258   3.972   1.700   5.643  1.6705  0.7940  0.0220
   24MOL   H59322259   3.822   1.895   5.484  1.6842 -1.2977 -1.6273
   24MOL   H59422260   3.829   1.726   5.450  0.0826 -2.1106  0.7847
   24MOL   H59522261   3.694   1.853   5.696  1.4807 -0.6791  0.1345
   24MOL   H59622262   3.685   1.677   5.648 -1.7667  1.4288  2.3917
   24MOL   H59722263   3.576   1.913   5.493  1.4114 -0.2315 -1.0562
   24MOL   H59822264   3.574   1.756   5.432 -1.0282 -0.1864  0.3284
   24MOL   H59922265   3.441   1.709   5.672  0.1137 -2.3958 -2.4675
   24MOL   H60022266   3.418   1.881   5.662  0.6122  0.6857 -0.7829
   24MOL   H60122267   3.301   1.876   5.467  0.5883  0.9543  0.4113
   24MOL   H60222268   3.362   1.709   5.435 -0.2342  1.5194 -1.3710
   24MOL   H60322269   3.213   1.645   5.633 -0.6075 -1.1748 -1.7929
   24MOL   H60422270   3.169   1.817   5.651 -0.1338  0.1622 -1.5061
   24MOL   H60522271   3.081   1.640   5.411 -1.3964 -0.2830 -0.2456
   24MOL   H60622272   3.066   1.811   5.444 -0.6844  0.8405  2.1463
   24MOL   H60722273   2.851   1.695   5.494 -0.9337 -1.9936 -0.3150
   24MOL   H60822274   2.922   1.763   5.642  1.1666 -1.5606  1.5973
   24MOL   H60922275   2.956   1.294   5.607  1.9506  3.3790  0.9400
   24MOL   H61022276   2.937   1.074   5.692  1.2715  0.2547  1.4443
   24MOL   H61122277   2.702   1.232   6.025  0.0564  1.5046  0.1950
   24MOL   H61222278   2.738   1.455   5.942 -0.6608 -1.2953  1.0165
   24MOL   O61322279   2.803   0.760   5.896  0.5509 -0.6529  0.6644
   24MOL   C61422280   2.709   0.721   5.798 -0.3238 -0.4034 -0.3770
   24MOL   C61522281   2.775   0.598   5.730  0.1310  0.1615 -0.9353
   24MOL   C61622282   2.911   0.634   5.667  0.2029 -0.0693  0.8111
   24MOL   C61722283   2.990   0.530   5.584 -0.3319 -0.2525 -0.6998
   24MOL   C61822284   2.944   0.512   5.436 -0.0753 -0.6713  0.3363
   24MOL   C61922285   3.026   0.408   5.368  0.2704  0.6323 -0.4000
   24MOL   C62022286   2.991   0.412   5.219 -0.6454  0.0918 -0.3519
   24MOL   C62122287   3.075   0.325   5.124 -0.4055  0.0449  1.1292
   24MOL   C62222288   3.209   0.389   5.075  0.4103  0.9988 -0.7507
   24MOL   C62322289   3.203   0.542   5.055 -0.3627  1.2441 -0.3055
   24MOL   O62422290   3.332   0.590   5.017  0.4976 -0.0641  1.1057
   24MOL   C62522291   3.344   0.726   5.006  0.2088  0.1040  0.0309
   24MOL   O62622292   3.257   0.809   5.038 -0.2300  0.5340  0.0636
   24MOL   C62722293   3.476   0.772   4.958 -0.2787 -0.3605 -0.6294
   24MOL   C62822294   3.577   0.681   4.930  0.1008  0.1557 -0.5397
   24MOL   C62922295   3.696   0.725   4.874 -0.6967  0.9058  0.0835
   24MOL   C63022296   3.720   0.861   4.845 -0.7500  0.3897 -0.8522
   24MOL   C63122297   3.857   0.897   4.801 -0.2170  0.8091  0.1437
   24MOL   O63222298   3.947   0.812   4.786  0.1274 -0.0191  0.0240
   24MOL   O63322299   3.867   1.026   4.765 -0.2182  0.0510  0.6685
   24MOL   C63422300   3.617   0.958   4.878  0.3224 -0.2344 -0.0580
   24MOL   C63522301   3.496   0.911   4.935  0.4202  0.5912 -0.1344
   24MOL   H63622302   2.617   0.693   5.849 -1.0973 -0.2825 -1.6705
   24MOL   H63722303   2.691   0.812   5.741  0.6884  0.0184 -0.0463
   24MOL   H63822304   2.706   0.577   5.648 -0.9831  0.1020  0.0081
   24MOL   H63922305   2.772   0.506   5.789 -0.2779 -1.0990 -2.8843
   24MOL   H64022306   2.896   0.723   5.606  0.4519 -0.5462  0.0425
   24MOL   H64122307   2.984   0.671   5.739 -0.9604  0.3702  1.7753
   24MOL   H64222308   3.010   0.433   5.629 -1.1961  0.2184  0.7345
   24MOL   H64322309   3.089   0.572   5.571 -0.2351 -0.3343 -0.2259
   24MOL   H64422310   2.838   0.486   5.435 -0.1570 -0.3375  0.1607
   24MOL   H64522311   2.947   0.614   5.397 -0.1432  0.4011  2.9772
   24MOL   H64622312   3.131   0.437   5.362  0.0008  1.8253  0.5992
   24MOL   H64722313   3.021   0.308   5.413  0.2384  0.2223 -1.3002
   24MOL   H64822314   2.885   0.387   5.209 -0.8813  0.3072  1.5096
   24MOL   H64922315   2.989   0.512   5.174  3.7724 -1.0094 -3.2603
   24MOL   H65022316   3.098   0.235   5.180  1.1374  0.2491  0.8453
   24MOL   H65122317   3.013   0.292   5.041  1.7345 -1.3415  0.0319
   24MOL   H65222318   3.257   0.335   4.993  0.0645 -3.2518  1.7097
   24MOL   H65322319   3.281   0.384   5.157 -0.9330 -2.0124  0.2906
   24MOL   H65422320   3.172   0.592   5.146 -2.2682 -0.1215 -0.1648
   24MOL   H65522321   3.131   0.571   4.978  0.7249 -0.3158 -1.9676
   24MOL   H65622322   3.568   0.578   4.960  0.6310  0.7823  1.8706
   24MOL   H65722323   3.780   0.659   4.855  0.2392  1.2856  2.7069
   24MOL   H65822324   3.614   1.064   4.861 -0.2963 -0.4286 -1.2035
   24MOL   H65922325   3.412   0.978   4.951 -0.1756 -0.1110 -0.3017
   24MOL   O66022326   3.994   1.065   4.698 -0.7879 -0.3149  0.0496
   24MOL   C66122327   4.083   1.130   4.778 -0.4212  0.2521  0.3320
   24MOL   C66222328   4.223   1.092   4.713  0.6939  0.5597 -0.8511
   24MOL   C66322329   4.337   1.183   4.764  0.3300  1.0961 -0.4610
   24MOL   C66422330   4.340   1.322   4.715  0.1964 -0.3660  0.3454
   24MOL   C66522331   4.472   1.389   4.750 -0.6461  0.6052 -0.2339
   24MOL   C66622332   4.494   1.511   4.666  0.0795 -0.5166 -0.6620
   24MOL   C66722333   4.642   1.546   4.668 -0.2089 -0.0805  0.0760
   24MOL   C66822334   4.656   1.691   4.621  0.0774 -0.3815  0.5760
   24MOL   C66922335   4.804   1.736   4.593 -0.1128  0.2668 -0.2155
   24MOL   C67022336   4.809   1.886   4.562 -0.6358 -0.3242 -0.4630
   24MOL   O67122337   4.939   1.924   4.512  0.2263 -0.3718  0.8328
   24MOL   C67222338   4.952   2.047   4.471 -0.0849  0.2518 -0.1780
   24MOL   O67322339   4.864   2.135   4.475  1.0109 -0.2277 -0.4255
   24MOL   C67422340   5.082   2.068   4.400  0.1384 -0.0307  0.0056
   24MOL   C67522341   5.152   1.956   4.357  0.4601 -0.0809  0.0446
   24MOL   C67622342   5.276   1.974   4.291  0.9027 -0.9558 -0.0685
   24MOL   C67722343   5.325   2.105   4.265 -0.5524 -0.0298 -1.0833
   24MOL   C67822344   5.459   2.131   4.208 -0.1006  0.2840  0.1333
   24MOL   O67922345   5.543   2.041   4.188  0.0918 -0.5287 -0.1080
   24MOL   O68022346   5.487   2.268   4.189  0.5977  0.1675  0.1297
   24MOL   C68122347   5.237   2.217   4.291  0.1332  0.3628  0.2756
   24MOL   C68222348   5.120   2.196   4.368 -0.3007 -0.2382  0.8110
   24MOL   H68322349   4.072   1.238   4.783  0.9875  0.7204 -4.2009
   24MOL   H68422350   4.083   1.090   4.879 -1.3874 -0.0473  0.2210
   24MOL   H68522351   4.220   1.087   4.604  0.3630 -1.9636 -0.7549
   24MOL   H68622352   4.255   0.991   4.740  0.6799  0.7459 -0.1372
   24MOL   H68722353   4.340   1.184   4.873 -0.9660  0.4350 -0.3970
   24MOL   H68822354   4.429   1.130   4.740  1.1591  2.7531 -0.9854
   24MOL   H68922355   4.251   1.371   4.753  0.3421  0.4400 -0.3369
   24MOL   H69022356   4.340   1.322   4.606  2.0129 -0.1288  0.3367
   24MOL   H69122357   4.476   1.412   4.856  1.0227  0.4012 -0.2361
   24MOL   H69222358   4.555   1.319   4.737 -0.0054  1.4680 -0.8676
   24MOL   H69322359   4.465   1.493   4.562 -0.6192  0.1580 -0.5845
   24MOL   H69422360   4.431   1.592   4.704 -1.9299 -2.6441  0.7205
   24MOL   H69522361   4.682   1.537   4.769 -0.9591  3.1012  0.6906
   24MOL   H69622362   4.688   1.473   4.600 -3.4714 -1.8229 -0.3394
   24MOL   H69722363   4.595   1.703   4.531  2.4280  1.1050 -0.8749
   24MOL   H69822364   4.608   1.761   4.689 -2.5157 -1.1576 -0.3716
   24MOL   H69922365   4.844   1.687   4.505 -0.8808 -0.7419 -0.0032
   24MOL   H70022366   4.868   1.713   4.679 -0.9869  0.3871  0.4780
   24MOL   H70122367   4.787   1.938   4.655  1.5786 -1.0217  0.4872
   24MOL   H70222368   4.731   1.916   4.493 -0.3292 -0.8153 -1.0265
   24MOL   H70322369   5.105   1.859   4.362 -1.0959  0.7739  4.0630
   24MOL   H70422370   5.334   1.887   4.265  0.2779 -1.7736  1.2029
   24MOL   H70522371   5.266   2.317   4.261 -0.0829  0.7217  1.2426
   24MOL   H70622372   5.064   2.278   4.409 -0.9865 -1.4920  2.4414
   24MOL   O70722373   5.618   2.292   4.127 -0.5987 -0.1194  0.0401
   24MOL   C70822374   5.600   2.355   3.999  0.0041  0.0272  0.2662
   24MOL   C70922375   5.560   2.504   4.024 -0.1997  0.3340  0.3587
   24MOL   C71022376   5.441   2.554   3.941  0.0919  0.1776 -0.4861
   24MOL   C71122377   5.312   2.502   4.011 -0.4671 -0.0068  0.0291
   24MOL   C71222378   5.184   2.540   3.936  0.3184  0.0106  0.6942
   24MOL   C71322379   5.045   2.519   4.008  0.3914  1.1543  0.6618
   24MOL   C71422380   5.026   2.582   4.147  1.1545 -0.1864 -0.3550
   24MOL   C71522381   4.882   2.574   4.208  0.3113 -0.0259  0.3015
   24MOL   C71622382   4.842   2.427   4.241  0.2126  0.4988  0.3810
   24MOL   C71722383   4.708   2.406   4.319 -0.0330 -0.5950 -0.1909
   24MOL   O71822384   4.604   2.421   4.229 -0.2623  0.1672  0.0510
   24MOL   C71922385   4.486   2.482   4.264 -0.6587  0.1222 -0.0379
   24MOL   O72022386   4.460   2.518   4.375 -0.1810 -0.2794  0.0496
   24MOL   C72122387   4.386   2.501   4.152 -0.6734  0.1674  0.3625
   24MOL   C72222388   4.411   2.447   4.022  0.2929 -0.3851 -0.1244
   24MOL   C72322389   4.327   2.478   3.909 -0.3627  0.4953  0.5789
   24MOL   C72422390   4.209   2.553   3.929  0.1051 -0.8921 -0.7468
   24MOL   C72522391   4.107   2.567   3.821  0.6794 -0.1013 -0.4668
   24MOL   O72622392   3.985   2.588   3.841  0.0314  0.3693 -0.1653
   24MOL   O72722393   4.166   2.541   3.706 -0.5195  0.3353  0.2036
   24MOL   C72822394   4.177   2.597   4.062  0.0957 -0.1110  0.2207
   24MOL   C72922395   4.268   2.575   4.173 -0.3684  0.0883 -0.0719
   24MOL   H73022396   5.693   2.337   3.946  0.1594  0.5498  0.3577
   24MOL   H73122397   5.527   2.316   3.928  1.9232  1.0912 -2.3866
   24MOL   H73222398   5.649   2.565   4.012  0.7609 -0.9577  0.9017
   24MOL   H73322399   5.540   2.533   4.128  0.3186 -2.7816  1.3582
   24MOL   H73422400   5.444   2.662   3.924 -0.3967  0.1496 -0.7738
   24MOL   H73522401   5.450   2.512   3.841  2.4872 -1.7013  0.4617
   24MOL   H73622402   5.303   2.551   4.108  2.0089 -2.5363  1.6329
   24MOL   H73722403   5.319   2.394   4.030  1.0418  0.1588  0.5174
   24MOL   H73822404   5.200   2.646   3.919 -1.5055  1.0025  4.5644
   24MOL   H73922405   5.188   2.501   3.835  2.7142 -0.1350  0.8226
   24MOL   H74022406   4.973   2.559   3.937  0.0094 -1.2758 -0.3726
   24MOL   H74122407   5.015   2.415   4.013  0.3339  1.1112 -0.4593
   24MOL   H74222408   5.091   2.532   4.219 -0.6707 -0.6030  1.0218
   24MOL   H74322409   5.057   2.685   4.130 -0.3537 -0.0152 -2.2192
   24MOL   H74422410   4.872   2.623   4.304 -0.0143 -0.1877  0.3510
   24MOL   H74522411   4.811   2.625   4.143  1.8636  1.6278 -0.1305
   24MOL   H74622412   4.919   2.391   4.310 -0.3030  0.0365  0.7230
   24MOL   H74722413   4.839   2.369   4.149 -1.0406 -0.3705  0.9487
   24MOL   H74822414   4.686   2.484   4.392 -0.0724 -0.7789 -0.0026
   24MOL   H74922415   4.709   2.310   4.372 -0.2327  0.4405  1.7406
   24MOL   H75022416   4.497   2.383   4.011 -0.8009 -1.7875 -0.7253
   24MOL   H75122417   4.346   2.445   3.809  1.7759  2.6575  0.2263
   24MOL   H75222418   4.090   2.655   4.091  0.5052 -0.0084  1.2836
   24MOL   H75322419   4.254   2.611   4.273 -0.7365  0.6316 -0.3154
   24MOL   O75422420   4.079   2.553   3.582 -0.0271  0.0583  0.2769
   24MOL   C75522421   4.021   2.424   3.554  0.3054  0.0821 -0.1227
   24MOL   C75622422   3.966   2.409   3.408  0.1151  0.4842 -0.0021
   24MOL   C75722423   3.861   2.519   3.377 -0.4255  0.6110  0.4751
   24MOL   C75822424   3.829   2.519   3.219  0.0653  0.4420 -0.0645
   24MOL   C75922425   3.713   2.611   3.190  0.1537 -0.7618  0.2462
   24MOL   C76022426   3.674   2.611   3.049  0.1604  0.2215 -0.4269
   24MOL   C76122427   3.572   2.719   3.016 -0.5954 -0.7331 -0.0367
   24MOL   C76222428   3.439   2.700   3.092  0.1108  0.1335 -0.1779
   24MOL   C76322429   3.321   2.767   3.035  0.5424 -0.2112 -0.2298
   24MOL   C76422430   3.290   2.913   3.071  0.3158 -0.2112  0.3631
   24MOL   O76522431   3.377   3.011   3.024 -0.1144  0.4809 -0.6217
   24MOL   C76622432   3.352   3.147   3.039  0.0911 -0.0116  0.0730
   24MOL   O76722433   3.262   3.189   3.108  0.3564 -0.6238 -0.0278
   24MOL   C76822434   3.455   3.229   2.965 -0.5873 -0.2005  0.0361
   24MOL   C76922435   3.552   3.182   2.871 -0.9384  0.5054 -0.5064
   24MOL   C77022436   3.643   3.269   2.818  0.0273 -0.2771  0.2053
   24MOL   C77122437   3.642   3.410   2.847 -0.7024 -1.1701 -0.9638
   24MOL   C77222438   3.743   3.503   2.791 -0.3550 -0.0011 -0.3396
   24MOL   O77322439   3.765   3.614   2.847 -0.2717 -0.1627 -0.0908
   24MOL   O77422440   3.811   3.444   2.691 -0.4707  0.4651  0.0989
   24MOL   C77522441   3.541   3.460   2.927 -0.6796 -0.1021 -0.2696
   24MOL   C77622442   3.448   3.368   2.983 -0.7673 -0.1014  0.2433
   24MOL   H77722443   4.095   2.345   3.566 -0.6276 -1.2920 -3.0429
   24MOL   H77822444   3.942   2.408   3.628  0.6281  2.0489  0.6686
   24MOL   H77922445   3.918   2.311   3.401 -0.1186  0.4329  1.9959
   24MOL   H78022446   4.048   2.408   3.337 -0.4863 -0.1825 -0.6920
   24MOL   H78122447   3.777   2.501   3.444 -0.6554 -0.6543 -0.1380
   24MOL   H78222448   3.907   2.614   3.401  1.8757 -0.2673 -0.3601
   24MOL   H78322449   3.817   2.415   3.186  0.8178 -0.0629  1.1860
   24MOL   H78422450   3.911   2.549   3.154  0.2698 -1.1957 -0.6102
   24MOL   H78522451   3.633   2.573   3.253 -1.0233  0.5471 -0.4133
   24MOL   H78622452   3.729   2.713   3.225 -3.8121  0.0222 -0.0329
   24MOL   H78722453   3.767   2.622   2.993 -0.3688 -0.0567 -1.3568
   24MOL   H78822454   3.630   2.515   3.023 -0.6379  0.8391 -1.3778
   24MOL   H78922455   3.611   2.819   3.036  2.7376 -1.7204 -1.2671
   24MOL   H79022456   3.559   2.721   2.908 -1.1953 -0.0031  0.0415
   24MOL   H79122457   3.430   2.593   3.074  2.2288 -0.3782  1.6011
   24MOL   H79222458   3.442   2.697   3.201 -2.2051  0.3393 -0.0910
   24MOL   H79322459   3.229   2.717   3.064 -0.4962  0.4535 -2.2752
   24MOL   H79422460   3.312   2.759   2.927 -0.0059  0.3388 -0.2326
   24MOL   H79522461   3.309   2.919   3.178  2.0470 -1.4347  0.1414
   24MOL   H79622462   3.182   2.930   3.060  0.5970  0.7789 -0.9710
   24MOL   H79722463   3.559   3.075   2.858  1.0207  0.6200 -0.5337
   24MOL   H79822464   3.723   3.222   2.762  0.4832  0.9586 -0.1992
   24MOL   H79922465   3.534   3.565   2.949 -1.0921 -0.1582 -0.1200
   24MOL   H80022466   3.375   3.413   3.050  0.4663 -0.9345  2.1753
   24MOL   O80122467   3.918   3.524   2.613  0.1849  0.0476 -0.3411
   24MOL   C80222468   4.039   3.503   2.671 -0.2034  0.0463  0.2925
   24MOL   C80322469   4.152   3.577   2.597 -0.0224 -0.5387 -0.0648
   24MOL   C80422470   4.163   3.533   2.454 -0.7441 -0.4834  0.1339
   24MOL   C80522471   4.234   3.401   2.424 -0.4546 -0.3184 -0.0534
   24MOL   C80622472   4.142   3.274   2.420  0.0917  0.1308 -0.5659
   24MOL   C80722473   4.049   3.277   2.304  0.4628 -0.6997 -0.4652
   24MOL   C80822474   4.005   3.137   2.264 -0.3631  0.0429  0.2104
   24MOL   C80922475   3.939   3.048   2.372 -0.1249  0.2883 -0.5616
   24MOL   C81022476   3.904   2.901   2.324 -0.2813 -0.2138  0.2100
   24MOL   C81122477   4.023   2.803   2.304  0.4241 -0.2737  0.1251
   24MOL   O81222478   4.104   2.816   2.418 -0.3134  0.3101 -0.1038
   24MOL   C81322479   4.179   2.714   2.450  0.0722 -0.5730 -0.6539
   24MOL   O81422480   4.181   2.608   2.393 -0.0767 -0.1595 -0.3317
   24MOL   C81522481   4.250   2.755   2.578 -0.5146  0.7628 -0.2986
   24MOL   C81622482   4.239   2.886   2.633  0.1648  0.0108 -0.6064
   24MOL   C81722483   4.293   2.916   2.755  0.5032  0.0588 -0.0669
   24MOL   C81822484   4.367   2.822   2.836 -0.0147 -0.0922  0.2059
   24MOL   C81922485   4.414   2.856   2.973  0.4804 -0.2358  0.9813
   24MOL   O82022486   4.437   2.972   3.015 -0.0335  0.2070  0.1174
   24MOL   O82122487   4.441   2.751   3.058  0.7898 -0.0625  0.1504
   24MOL   C82222488   4.372   2.690   2.786 -0.5534  0.5791 -1.3421
   24MOL   C82322489   4.313   2.655   2.660  0.3498  0.1524 -0.1184
   24MOL   H82422490   4.029   3.539   2.773  1.0798 -1.5604  1.0030
   24MOL   H82522491   4.067   3.398   2.669 -0.5125 -0.0270 -0.1955
   24MOL   H82622492   4.246   3.563   2.651 -0.3678  2.5964  1.4821
   24MOL   H82722493   4.139   3.685   2.594  0.6007 -0.3631  2.3051
   24MOL   H82822494   4.071   3.544   2.398  0.1838 -0.1632 -1.3669
   24MOL   H82922495   4.227   3.606   2.406  0.0918 -1.4281 -0.2146
   24MOL   H83022496   4.306   3.389   2.505 -1.1975  0.7568  0.7831
   24MOL   H83122497   4.289   3.416   2.331  2.2256 -1.1590  1.3474
   24MOL   H83222498   4.215   3.195   2.397  0.9078  0.1949  1.6723
   24MOL   H83322499   4.088   3.261   2.514 -1.5200 -2.1710 -1.7676
   24MOL   H83422500   3.965   3.341   2.329  1.7600  1.3774 -1.2657
   24MOL   H83522501   4.094   3.330   2.220  1.8965  1.3682  1.5324
   24MOL   H83622502   3.934   3.156   2.183  0.7053 -0.1953 -0.8015
   24MOL   H83722503   4.092   3.089   2.220 -1.6782 -1.0085 -1.2851
   24MOL   H83822504   4.020   3.040   2.444 -1.9964  2.4567  1.8414
   24MOL   H83922505   3.869   3.100   2.437 -0.8330  0.4399 -1.4314
   24MOL   H84022506   3.850   2.917   2.231 -1.1627 -0.8177  0.6114
   24MOL   H84122507   3.839   2.853   2.397 -1.0837  1.3658  0.5441
   24MOL   H84222508   4.077   2.819   2.211  0.3564 -0.6124  0.0236
   24MOL   H84322509   3.987   2.700   2.295  3.7527 -1.5085  0.3284
   24MOL   H84422510   4.188   2.966   2.583 -0.5845 -0.8219 -1.1927
   24MOL   H84522511   4.293   3.019   2.787  3.1444  0.7626 -2.1642
   24MOL   H84622512   4.434   2.614   2.831 -1.5408 -0.2395 -1.3472
   24MOL   H84722513   4.318   2.551   2.631  1.9421  0.1303  0.1678
   24MOL   O84822514   4.442   2.787   3.208 -0.2526 -0.4302  0.2795
   24MOL   C84922515   4.577   2.798   3.247 -0.5024  0.4477 -0.0708
   24MOL   C85022516   4.582   2.831   3.400  0.2622 -0.1457 -0.5530
   24MOL   C85122517   4.721   2.835   3.455 -0.5917 -0.4586  0.0868
   24MOL   C85222518   4.779   2.707   3.518 -0.0572 -0.4883  0.0903
   24MOL   C85322519   4.900   2.731   3.603 -0.9313 -0.4127  1.1240
   24MOL   C85422520   5.025   2.670   3.545 -0.1536  0.7295  0.5746
   24MOL   C85522521   5.063   2.765   3.427 -0.5798  0.4622  0.6095
   24MOL   C85622522   5.209   2.739   3.385  0.4663  0.2508  0.0545
   24MOL   C85722523   5.231   2.603   3.326 -0.5445  0.2264  0.1440
   24MOL   C85822524   5.379   2.575   3.302  0.0265  0.1037 -0.1097
   24MOL   O85922525   5.392   2.446   3.239 -0.0983 -0.2485 -0.3061
   24MOL   C86022526   5.487   2.436   3.148 -0.1574  0.0840  0.8367
   24MOL   O86122527   5.577   2.519   3.128  0.3328 -0.1508 -0.3655
   24MOL   C86222528   5.485   2.306   3.069 -0.6450  0.2263  0.2615
   24MOL   C86322529   5.409   2.196   3.110  0.4537 -0.0337  0.1835
   24MOL   C86422530   5.416   2.067   3.048  0.2111 -0.9728  0.2246
   24MOL   C86522531   5.497   2.056   2.932 -0.0020 -0.3470  0.2430
   24MOL   C86622532   5.505   1.924   2.858 -0.3050 -0.2641 -0.8323
   24MOL   O86722533   5.563   1.902   2.754  0.3359 -0.6797 -0.2611
   24MOL   O86822534   5.443   1.818   2.914  0.1546  0.3582 -0.0348
   24MOL   C86922535   5.569   2.166   2.881 -0.7295 -0.3833 -0.2736
   24MOL   C87022536   5.568   2.288   2.951  0.2906  0.1029  0.4480
   24MOL   H87122537   4.633   2.709   3.219  2.3525  1.6873  1.5065
   24MOL   H87222538   4.618   2.889   3.202 -0.3515  2.1001  3.2741
   24MOL   H87322539   4.533   2.750   3.454 -1.6750  3.8957  4.1063
   24MOL   H87422540   4.531   2.924   3.425  2.2640  0.3947  1.7755
   24MOL   H87522541   4.801   2.854   3.383  0.6984 -0.5406  1.4820
   24MOL   H87622542   4.731   2.916   3.527  0.1446 -1.2739  0.9074
   24MOL   H87722543   4.804   2.631   3.443  0.2995 -0.8333  0.5576
   24MOL   H87822544   4.709   2.648   3.578 -1.9087  2.3714  0.8169
   24MOL   H87922545   4.907   2.835   3.634 -0.8173  0.2119 -0.9721
   24MOL   H88022546   4.878   2.682   3.699 -2.1028 -1.5390  0.3075
   24MOL   H88122547   5.105   2.673   3.620 -0.4512 -0.6432  0.9622
   24MOL   H88222548   5.013   2.569   3.506 -0.4703  1.3760 -1.0306
   24MOL   H88322549   4.985   2.762   3.351 -2.1424 -2.2214  2.2389
   24MOL   H88422550   5.052   2.861   3.478 -0.5004  0.2899  0.9551
   24MOL   H88522551   5.239   2.821   3.319 -1.8990  0.6848 -0.5186
   24MOL   H88622552   5.266   2.745   3.478 -1.8040 -2.4268  1.6943
   24MOL   H88722553   5.174   2.593   3.233 -0.3501  0.5819 -0.0123
   24MOL   H88822554   5.198   2.522   3.392 -3.5956  2.0342  0.9726
   24MOL   H88922555   5.439   2.573   3.393  1.6856 -0.6421 -1.1967
   24MOL   H89022556   5.419   2.661   3.247  0.7442  1.8322  2.9824
   24MOL   H89122557   5.355   2.205   3.204  0.5805 -0.1692  0.2705
   24MOL   H89222558   5.370   1.976   3.084 -1.3718 -0.7305 -1.1197
   24MOL   H89322559   5.627   2.144   2.792 -2.5912 -0.9648 -1.3709
   24MOL   H89422560   5.622   2.373   2.912 -0.3098  0.5245  0.5335
   24MOL   O89522561   5.434   1.699   2.826  0.1389 -0.2459 -0.5721
   24MOL   C89622562   5.310   1.718   2.762  0.0859 -0.1610 -0.2421
   24MOL   C89722563   5.194   1.711   2.863 -0.1404 -0.8687  0.6013
   24MOL   C89822564   5.187   1.577   2.937  0.4644 -0.1914 -0.3103
   24MOL   C89922565   5.050   1.562   3.013  0.9617  0.6016  0.3384
   24MOL   C90022566   5.025   1.655   3.131 -0.2781 -0.2829 -0.6392
   24MOL   C90122567   4.918   1.610   3.229  0.2438 -0.7073 -0.4307
   24MOL   C90222568   4.868   1.719   3.328  0.1556  0.3793 -0.2197
   24MOL   C90322569   4.961   1.767   3.440  0.4211 -0.6309  0.6098
   24MOL   C90422570   4.882   1.881   3.514  0.8803  0.7017 -0.7582
   24MOL   C90522571   4.910   2.025   3.467  0.7879  0.1100 -0.4290
   24MOL   O90622572   5.049   2.061   3.487  0.1507  0.0050  0.0347
   24MOL   C90722573   5.086   2.179   3.518  0.2254  0.0377 -0.0791
   24MOL   O90822574   5.008   2.276   3.526 -0.5207 -0.0070  0.5278
   24MOL   C90922575   5.236   2.188   3.541  0.9978 -0.0639  0.9843
   24MOL   C91022576   5.319   2.087   3.488  0.4846  0.4324 -0.0847
   24MOL   C91122577   5.460   2.094   3.507  0.8253  0.1533  0.4627
   24MOL   C91222578   5.518   2.194   3.585 -0.2681  0.3013  0.4878
   24MOL   C91322579   5.660   2.190   3.618  0.0838 -0.2979  0.3689
   24MOL   O91422580   5.715   2.271   3.687  0.5820  0.0026  0.4023
   24MOL   O91522581   5.730   2.087   3.568 -0.3882 -0.0749  0.4570
   24MOL   C91622582   5.433   2.297   3.636 -0.2123 -0.1427  0.6734
   24MOL   C91722583   5.293   2.298   3.602  0.1708 -0.0504  0.1231
   24MOL   H91822584   5.302   1.811   2.706 -1.4032 -0.4944 -0.6098
   24MOL   H91922585   5.299   1.647   2.680 -1.0318  1.2348 -1.3197
   24MOL   H92022586   5.100   1.730   2.811  0.0077 -2.1852 -0.1513
   24MOL   H92122587   5.201   1.797   2.931 -1.4671  0.7256 -1.2307
   24MOL   H92222588   5.202   1.493   2.869 -1.4318 -1.5635  0.9235
   24MOL   H92322589   5.271   1.571   3.006 -1.5691  0.4511  2.2800
   24MOL   H92422590   5.060   1.463   3.056 -0.1911  0.5175  0.4180
   24MOL   H92522591   4.972   1.567   2.937  1.9428 -2.1617 -0.9230
   24MOL   H92622592   5.119   1.683   3.179  0.1796  0.6245 -2.0317
   24MOL   H92722593   4.995   1.754   3.094 -0.7964 -0.6771 -1.2883
   24MOL   H92822594   4.831   1.584   3.170 -0.4758 -0.4076  0.4713
   24MOL   H92922595   4.944   1.515   3.276 -0.6554 -0.5585  0.3871
   24MOL   H93022596   4.824   1.796   3.264 -1.9867 -0.4418  0.2018
   24MOL   H93122597   4.780   1.673   3.375  2.1523 -3.4145  0.0054
   24MOL   H93222598   4.980   1.674   3.495  0.7478 -0.4814  0.7509
   24MOL   H93322599   5.061   1.794   3.407  0.9642 -2.4682  0.6960
   24MOL   H93422600   4.890   1.871   3.623 -2.3124  2.1393 -0.3425
   24MOL   H93522601   4.776   1.868   3.492  1.1826  0.3940 -2.0531
   24MOL   H93622602   4.859   2.103   3.523 -0.1922 -0.1859 -0.9070
   24MOL   H93722603   4.862   2.037   3.370  0.9328  0.2756 -0.4792
   24MOL   H93822604   5.284   2.014   3.417  1.7239 -0.2309 -0.0317
   24MOL   H93922605   5.521   2.010   3.474  0.2998 -0.5805  1.3173
   24MOL   H94022606   5.476   2.373   3.699  0.5011  1.7574 -2.0071
   24MOL   H94122607   5.228   2.374   3.641  0.5480  1.3694 -1.9303
   24MOL   H94222608   5.820   2.092   3.596 -0.2874  0.6308  0.0067
   25MOL     O122609   2.133   7.497   6.384 -0.4708  0.4886  0.4458
   25MOL     C222610   2.017   7.464   6.454  0.2176 -0.3504 -0.3881
   25MOL     C322611   1.930   7.591   6.443  0.7283  0.1304  0.4343
   25MOL     C422612   1.811   7.579   6.540  0.2621 -0.2426 -0.2383
   25MOL     C522613   1.718   7.700   6.551  0.4461 -0.0893  0.0636
   25MOL     C622614   1.589   7.669   6.624  0.0771 -0.2595 -0.7636
   25MOL     C722615   1.478   7.777   6.610 -0.2640 -1.0588 -0.3438
   25MOL     C822616   1.346   7.746   6.677  0.0381  0.0771  0.6803
   25MOL     C922617   1.232   7.847   6.647 -0.6302 -0.1290 -0.0502
   25MOL    C1022618   1.194   7.848   6.500  0.0090 -0.5014  0.1563
   25MOL    C1122619   1.062   7.922   6.483  0.6137  0.1952 -0.2781
   25MOL    O1222620   1.080   0.079   6.520  0.4395  0.3189  0.8735
   25MOL    C1322621   1.153   0.150   6.424  0.4976 -0.7037 -0.1645
   25MOL    O1422622   1.195   0.099   6.319  0.5371  0.2611 -0.2796
   25MOL    C1522623   1.161   0.298   6.458  0.0109  0.0417  0.0392
   25MOL    C1622624   1.240   0.380   6.375  0.1998  0.3637 -0.4199
   25MOL    C1722625   1.249   0.510   6.422 -0.6277 -0.0387  0.2944
   25MOL    C1822626   1.178   0.570   6.524  0.2512  0.0532 -0.0587
   25MOL    C1922627   1.196   0.717   6.553  0.9025 -0.2623 -0.0208
   25MOL    O2022628   1.185   0.756   6.667  0.0462 -0.1455  0.2221
   25MOL    O2122629   1.232   0.788   6.450 -0.4072  0.3110 -0.3102
   25MOL    C2222630   1.098   0.485   6.605 -0.3130  0.1409 -0.6845
   25MOL    C2322631   1.093   0.347   6.572  0.3054 -0.1620 -0.6244
   25MOL    H2422632   1.971   7.379   6.403  0.8997  0.1176 -1.8250
   25MOL    H2522633   2.043   7.441   6.558 -2.9596  0.7051  0.6932
   25MOL    H2622634   1.904   7.612   6.339 -1.4745 -0.3689  0.8600
   25MOL    H2722635   1.991   7.678   6.470  0.9191  0.1032  0.1014
   25MOL    H2822636   1.757   7.496   6.493  0.3388 -0.7625  0.5732
   25MOL    H2922637   1.859   7.551   6.634  0.5819 -1.0340 -0.6382
   25MOL    H3022638   1.696   7.727   6.448 -0.0813 -1.5394 -0.2116
   25MOL    H3122639   1.774   7.779   6.601  1.7843 -0.2969 -1.0757
   25MOL    H3222640   1.554   7.574   6.583  1.4638 -2.0997  2.1463
   25MOL    H3322641   1.605   7.655   6.731 -2.6906  0.5622 -0.1993
   25MOL    H3422642   1.506   7.873   6.653 -0.3357 -1.3135  0.2688
   25MOL    H3522643   1.460   7.803   6.505  1.1195 -2.3321 -0.9162
   25MOL    H3622644   1.321   7.646   6.642  2.1308 -0.3186  0.2208
   25MOL    H3722645   1.360   7.735   6.784 -2.0029 -0.2107  0.9351
   25MOL    H3822646   1.136   7.820   6.692 -0.3382 -1.0520  0.0394
   25MOL    H3922647   1.256   7.944   6.691 -0.2752 -1.1204  2.0334
   25MOL    H4022648   1.183   7.747   6.460  2.4563 -0.1227 -1.6315
   25MOL    H4122649   1.279   7.884   6.443 -0.3352  0.3324  0.1609
   25MOL    H4222650   0.978   7.881   6.540  0.1337  1.1262 -0.2954
   25MOL    H4322651   1.018   7.929   6.383 -0.9327 -4.2083 -0.0260
   25MOL    H4422652   1.293   0.342   6.289  0.3845 -0.4876  0.0656
   25MOL    H4522653   1.313   0.573   6.361 -0.1001  1.1140  2.0245
   25MOL    H4622654   1.027   0.520   6.679 -1.2038 -2.8888 -0.0183
   25MOL    H4722655   1.019   0.282   6.616 -1.0071  2.1894  0.6845
   25MOL    H4822656   2.109   7.482   6.293 -1.7630  1.4412  0.6181
   25MOL    O4922657   1.284   0.926   6.489  0.2337 -0.2903  0.0799
   25MOL    C5022658   1.418   0.941   6.440  0.8454  0.1770 -0.1046
   25MOL    C5122659   1.499   1.059   6.488  0.1088  0.5454  0.2284
   25MOL    C5222660   1.541   1.046   6.630 -0.6647  0.3522 -0.4051
   25MOL    C5322661   1.661   0.947   6.639 -0.1566  0.1809  0.8297
   25MOL    C5422662   1.714   0.921   6.786 -0.0983 -0.7279  0.2167
   25MOL    C5522663   1.846   0.841   6.793 -0.3115 -0.0535  0.3582
   25MOL    C5622664   1.823   0.686   6.780  0.6288 -0.2731 -0.1496
   25MOL    C5722665   1.952   0.606   6.799  0.7058 -0.5136  0.1410
   25MOL    C5822666   1.925   0.461   6.827  0.2785 -0.4703 -0.6902
   25MOL    C5922667   2.052   0.386   6.824 -0.1899  0.0355  0.2241
   25MOL    O6022668   2.038   0.247   6.861  0.1492  0.3735  0.2956
   25MOL    C6122669   2.068   0.151   6.763  0.1172  0.0012  0.0631
   25MOL    O6222670   2.104   0.178   6.645 -0.0979  0.0155 -0.0837
   25MOL    C6322671   2.056   0.011   6.814 -0.0013 -0.4103 -0.0113
   25MOL    C6422672   2.030   7.970   6.953  0.4947 -0.4601  0.5341
   25MOL    C6522673   2.016   7.840   7.003 -0.2050  0.2038 -0.0919
   25MOL    C6622674   2.025   7.728   6.912  0.3496 -0.2297  0.7164
   25MOL    C6722675   2.026   7.583   6.957 -0.2764 -0.1374 -0.1000
   25MOL    O6822676   2.079   7.498   6.886  0.1703 -0.0693 -0.1945
   25MOL    O6922677   1.972   7.560   7.075 -0.9002  0.0418  0.3844
   25MOL    C7022678   2.045   7.752   6.779  0.0166  0.4383 -0.3747
   25MOL    C7122679   2.054   7.879   6.727  0.5505 -0.5058 -0.0548
   25MOL    H7222680   1.470   0.846   6.453  0.1744 -0.1225  0.4183
   25MOL    H7322681   1.400   0.962   6.334 -0.4859 -0.3392  0.0149
   25MOL    H7422682   1.425   1.139   6.483 -0.4429 -0.0773 -1.4875
   25MOL    H7522683   1.575   1.073   6.412 -0.0820 -0.2361 -0.1105
   25MOL    H7622684   1.574   1.141   6.673  1.6729 -0.1275 -1.0928
   25MOL    H7722685   1.458   1.017   6.694  0.0408 -1.9124 -0.4776
   25MOL    H7822686   1.735   0.999   6.579 -1.6925  1.2821 -0.1510
   25MOL    H7922687   1.646   0.850   6.592 -1.2829 -0.5297  2.5722
   25MOL    H8022688   1.714   1.009   6.850 -0.0897 -0.7750  0.2816
   25MOL    H8122689   1.637   0.864   6.838 -1.9559  0.1644 -1.4750
   25MOL    H8222690   1.915   0.861   6.711 -1.1151 -1.1153 -0.5954
   25MOL    H8322691   1.914   0.858   6.876 -0.9354  3.2370  0.2461
   25MOL    H8422692   1.750   0.661   6.856  0.1003 -0.0116 -0.5717
   25MOL    H8522693   1.779   0.667   6.682  0.8255 -2.8637  0.2264
   25MOL    H8622694   2.021   0.612   6.714  1.7941 -1.0484  0.9756
   25MOL    H8722695   2.015   0.650   6.876 -0.2882  1.3594 -0.0906
   25MOL    H8822696   1.853   0.420   6.756 -1.8816 -0.6142  1.4786
   25MOL    H8922697   1.885   0.455   6.928  2.8905  5.7019  0.9764
   25MOL    H9022698   2.116   0.438   6.896  0.5177 -2.1986  1.2696
   25MOL    H9122699   2.112   0.388   6.733  0.9148  0.0103  0.9401
   25MOL    H9222700   2.022   0.071   7.026 -0.7172 -0.5566  0.5163
   25MOL    H9322701   2.005   7.815   7.107  0.2160 -1.4030 -0.4094
   25MOL    H9422702   2.043   7.670   6.709 -0.8188  0.5553 -0.4990
   25MOL    H9522703   2.070   7.895   6.621 -0.3146 -0.4839 -0.1910
   25MOL    O9622704   1.934   7.418   7.093 -0.8872 -0.0219  0.0049
   25MOL    C9722705   2.018   7.363   7.191 -0.2306 -0.9309  0.2037
   25MOL    C9822706   1.936   7.257   7.269 -0.1550  0.0092  0.4836
   25MOL    C9922707   1.884   7.138   7.184  0.1253 -0.1200 -0.5233
   25MOL   C10022708   1.757   7.089   7.258  0.3212  0.1281  1.3133
   25MOL   C10122709   1.669   6.996   7.165  0.1521 -0.7636 -0.6161
   25MOL   C10222710   1.529   6.965   7.229 -0.0352  0.4471 -0.5095
   25MOL   C10322711   1.435   7.081   7.219  0.1134  0.0090 -0.7856
   25MOL   C10422712   1.304   7.077   7.298  0.1839 -0.5635 -0.7700
   25MOL   C10522713   1.246   7.217   7.336 -0.2017 -0.8701  0.2825
   25MOL   C10622714   1.106   7.216   7.396  0.0848  0.2490 -0.4213
   25MOL   O10722715   1.112   7.176   7.527 -0.3238  0.0028 -0.1674
   25MOL   C10822716   1.123   7.270   7.621  0.5417 -0.1576 -0.6175
   25MOL   O10922717   1.119   7.389   7.598  0.5363 -0.6345 -0.0945
   25MOL   C11022718   1.155   7.206   7.755 -0.2757  0.1897  0.7933
   25MOL   C11122719   1.178   7.302   7.858 -0.4035 -0.0762 -0.3656
   25MOL   C11222720   1.198   7.258   0.010 -0.7522 -0.1935  0.5639
   25MOL   C11322721   1.202   7.115   0.037 -0.4076 -0.2044  0.1335
   25MOL   C11422722   1.230   7.056   0.167  0.3819  0.0133  0.3051
   25MOL   O11522723   1.233   6.935   0.189  0.3488  0.3015 -0.1045
   25MOL   O11622724   1.247   7.148   0.261 -0.1686  0.0554  0.6040
   25MOL   C11722725   1.181   7.019   7.907  0.3889 -0.2232  0.4926
   25MOL   C11822726   1.157   7.068   7.778  0.0409 -0.0892  0.0324
   25MOL   H11922727   2.121   7.336   7.170  0.5292  0.7275  1.6747
   25MOL   H12022728   2.029   7.454   7.250 -1.4436  0.0364 -1.0234
   25MOL   H12122729   1.866   7.313   7.330 -2.7337  0.8326 -3.0591
   25MOL   H12222730   1.991   7.196   7.341  0.1303 -2.8434 -2.0207
   25MOL   H12322731   1.852   7.173   7.086  2.0361 -0.4474 -1.2919
   25MOL   H12422732   1.959   7.061   7.170 -0.0510 -0.1804 -1.1307
   25MOL   H12522733   1.695   7.173   7.291  1.2991  1.1664  0.5540
   25MOL   H12622734   1.792   7.032   7.345  0.3106 -1.4279  0.3064
   25MOL   H12722735   1.663   7.037   7.064  1.3351 -0.4862 -0.5757
   25MOL   H12822736   1.736   6.911   7.154  0.3348 -0.5069 -1.4835
   25MOL   H12922737   1.484   6.882   7.176  0.0408 -1.2028  1.9531
   25MOL   H13022738   1.547   6.927   7.330 -0.4649 -0.9770 -0.9672
   25MOL   H13122739   1.484   7.169   7.262 -1.2169 -0.0162  0.8419
   25MOL   H13222740   1.420   7.112   7.116  1.5667  1.8223 -0.4844
   25MOL   H13322741   1.234   7.027   7.231 -0.8113  0.0621 -0.2161
   25MOL   H13422742   1.318   7.016   7.388  1.2533 -0.4962 -0.8868
   25MOL   H13522743   1.231   7.284   7.251  1.8316 -0.6007  0.1116
   25MOL   H13622744   1.310   7.273   7.404  0.3949 -0.5229 -0.5506
   25MOL   H13722745   1.040   7.141   7.352  0.7207 -0.1494 -0.7017
   25MOL   H13822746   1.053   7.308   7.372  0.6337  0.2079 -1.8277
   25MOL   H13922747   1.173   7.409   7.848 -0.5158 -0.0147  0.2964
   25MOL   H14022748   1.197   7.320   0.098 -0.3562 -2.3182  2.1068
   25MOL   H14122749   1.175   6.913   7.925 -0.1703 -0.6895 -2.3464
   25MOL   H14222750   1.140   6.998   7.698  0.8341 -0.0230 -0.2029
   25MOL   O14322751   1.272   7.094   0.396 -0.1260 -0.1557  0.2808
   25MOL   C14422752   1.406   7.086   0.428 -0.3039  0.0456 -0.4453
   25MOL   C14522753   1.412   6.985   0.531  0.4371  0.3324 -0.1296
   25MOL   C14622754   1.370   7.041   0.668  0.5905  0.6593 -0.3423
   25MOL   C14722755   1.348   6.927   0.766  0.2079 -0.0008  0.2828
   25MOL   C14822756   1.479   6.858   0.814 -0.3675  0.4236 -0.0026
   25MOL   C14922757   1.455   6.729   0.892 -0.2498 -0.6881 -0.2107
   25MOL   C15022758   1.555   6.695   1.003 -0.3269 -0.0272 -0.7442
   25MOL   C15122759   1.705   6.672   0.966  0.5451  0.8466  0.6984
   25MOL   C15222760   1.817   6.691   1.078  0.1136 -1.4004 -0.1987
   25MOL   C15322761   1.857   6.839   1.100 -0.3855 -0.1549  0.0185
   25MOL   O15422762   1.743   6.917   1.135 -0.8456  0.1931 -0.1434
   25MOL   C15522763   1.714   7.033   1.062  0.6737 -0.9991 -0.2625
   25MOL   O15622764   1.782   7.077   0.968 -0.5483  0.2396  0.3968
   25MOL   C15722765   1.584   7.087   1.114 -0.3685  0.1261  0.0785
   25MOL   C15822766   1.504   7.019   1.216 -0.0514 -0.0317 -0.0925
   25MOL   C15922767   1.383   7.079   1.264  0.7283 -0.3830  0.0246
   25MOL   C16022768   1.331   7.191   1.202 -0.4239 -0.5728 -0.1774
   25MOL   C16122769   1.196   7.242   1.235  0.1848  0.5443  0.4654
   25MOL   O16222770   1.125   7.199   1.329  0.6175 -0.7019 -0.5354
   25MOL   O16322771   1.147   7.341   1.156 -0.3904 -0.0684  0.4121
   25MOL   C16422772   1.405   7.253   1.100 -0.0452  0.2431  0.5201
   25MOL   C16522773   1.526   7.199   1.058  0.7492 -0.3203 -0.0798
   25MOL   H16622774   1.459   7.038   0.345  2.8637  1.2589  0.8196
   25MOL   H16722775   1.461   7.172   0.466 -1.4263  0.2911  0.6580
   25MOL   H16822776   1.514   6.945   0.536  0.9726  1.5332 -1.1902
   25MOL   H16922777   1.341   6.909   0.498 -1.5396  1.2931  1.8048
   25MOL   H17022778   1.449   7.099   0.716 -0.5537  0.8208  1.3852
   25MOL   H17122779   1.283   7.106   0.670  0.1230  0.0289  0.0380
   25MOL   H17222780   1.277   6.849   0.738  1.0238  0.3551 -2.9544
   25MOL   H17322781   1.304   6.970   0.855 -0.2013  0.4634 -0.1431
   25MOL   H17422782   1.551   6.831   0.737 -0.2939 -1.1893  0.5976
   25MOL   H17522783   1.525   6.925   0.886  0.1489 -0.3896  0.4370
   25MOL   H17622784   1.359   6.725   0.944 -0.1135  2.3145  0.3878
   25MOL   H17722785   1.461   6.642   0.827 -1.5237 -1.8400  1.1594
   25MOL   H17822786   1.549   6.779   1.071  0.0213 -1.0798  0.6036
   25MOL   H17922787   1.512   6.607   1.052 -2.6896  1.3230 -0.3139
   25MOL   H18022788   1.707   6.572   0.924  1.3164  0.5931  1.3293
   25MOL   H18122789   1.726   6.739   0.882  2.3762  0.0609  0.5032
   25MOL   H18222790   1.906   6.637   1.047  2.1525  1.6347  0.2720
   25MOL   H18322791   1.776   6.654   1.172  0.3241  2.3493  1.4372
   25MOL   H18422792   1.899   6.883   1.010  1.2833  0.4166  1.0529
   25MOL   H18522793   1.941   6.832   1.170 -1.3059 -3.0968  0.9347
   25MOL   H18622794   1.532   6.935   1.278  1.1472  0.3161 -0.1400
   25MOL   H18722795   1.322   7.031   1.339 -0.2414 -0.1217 -0.5798
   25MOL   H18822796   1.362   7.339   1.052 -2.4713 -1.7171 -0.9377
   25MOL   H18922797   1.576   7.237   0.971 -0.1179  1.5451  0.2026
   25MOL   O19022798   0.998   7.335   1.148  0.0097 -0.4272 -0.0515
   25MOL   C19122799   0.964   7.251   1.033 -0.4258 -0.0439 -0.1371
   25MOL   C19222800   0.998   7.322   0.900  1.0636  0.2293  0.2856
   25MOL   C19322801   0.951   7.236   0.774 -0.1165  0.8357 -0.0807
   25MOL   C19422802   0.991   7.272   0.630  0.0833 -0.4271  0.2983
   25MOL   C19522803   0.919   7.187   0.527 -0.4699  0.0734 -1.0598
   25MOL   C19622804   0.936   7.248   0.385  0.9188  0.1526  0.8209
   25MOL   C19722805   0.831   7.201   0.284  0.8135  0.3585 -0.2335
   25MOL   C19822806   0.853   7.254   0.142  1.2438  0.4075  0.5824
   25MOL   C19922807   0.748   7.215   0.043  0.2487 -0.3709  0.2903
   25MOL   C20022808   0.779   7.237   7.876  0.0919 -0.2938 -0.1177
   25MOL   O20122809   0.781   7.376   7.847 -0.0874 -0.1187 -0.1005
   25MOL   C20222810   0.798   7.418   7.718 -0.5148  0.1676 -0.3209
   25MOL   O20322811   0.809   7.343   7.619  0.4068 -0.4576 -0.0547
   25MOL   C20422812   0.789   7.565   7.704 -0.0415 -0.8320 -0.5537
   25MOL   C20522813   0.800   7.655   7.817  0.3250  0.2778  0.6405
   25MOL   C20622814   0.819   7.792   7.804  0.3476 -0.3878 -0.0944
   25MOL   C20722815   0.814   7.845   7.673 -0.3180  0.0820  0.2661
   25MOL   C20822816   0.833   0.009   7.650 -1.0771  0.4046  0.0526
   25MOL   O20922817   0.831   0.067   7.537 -0.0141 -0.4267  0.1386
   25MOL   O21022818   0.843   0.077   7.757  0.3777 -0.2202  0.2600
   25MOL   C21122819   0.794   7.762   7.558 -0.0321  0.3537 -0.3588
   25MOL   C21222820   0.784   7.621   7.574  0.1160 -0.7214  0.3176
   25MOL   H21322821   1.012   7.154   1.045  1.1149  0.4342 -2.1057
   25MOL   H21422822   0.858   7.228   1.038 -0.5927  0.5018 -1.1211
   25MOL   H21522823   1.100   7.360   0.905  2.1191 -2.4518 -0.1160
   25MOL   H21622824   0.935   7.411   0.902 -1.0763 -1.2580  1.8419
   25MOL   H21722825   0.992   7.135   0.784  2.5086  2.0617  2.3767
   25MOL   H21822826   0.843   7.226   0.768 -0.1611 -0.3709  2.3168
   25MOL   H21922827   1.098   7.253   0.622 -0.2336 -3.1225  2.1149
   25MOL   H22022828   0.977   7.380   0.618 -0.0861 -0.5344 -0.5259
   25MOL   H22122829   0.954   7.084   0.525  1.1295  0.5713  0.1530
   25MOL   H22222830   0.812   7.176   0.546  0.0781 -0.4201  2.0069
   25MOL   H22322831   0.910   7.353   0.387  0.4639  0.0327  1.8015
   25MOL   H22422832   1.040   7.232   0.357  0.1290 -0.0439 -2.1641
   25MOL   H22522833   0.848   7.094   0.272 -0.0612  0.0426  1.2745
   25MOL   H22622834   0.731   7.228   0.318  0.8277  0.6806 -0.4448
   25MOL   H22722835   0.858   7.361   0.124  0.2561  0.2040 -1.0418
   25MOL   H22822836   0.951   7.218   0.108  0.1127 -0.9438 -1.3972
   25MOL   H22922837   0.654   7.257   0.077  0.4760  0.2703  0.1261
   25MOL   H23022838   0.740   7.107   0.055  2.5623 -0.8304 -1.8280
   25MOL   H23122839   0.705   7.191   7.810  0.2296 -1.7996  0.7692
   25MOL   H23222840   0.877   7.196   7.851  1.1449  1.1518  1.4948
   25MOL   H23322841   0.805   7.620   7.919  2.6303  1.8345  1.1086
   25MOL   H23422842   0.829   7.855   7.892 -1.1919 -0.7641  0.3493
   25MOL   H23522843   0.779   7.809   7.462 -0.3334 -1.0834 -1.0386
   25MOL   H23622844   0.769   7.558   7.487  1.2173  0.9602 -1.1301
   25MOL   O23722845   0.861   0.223   7.731  0.1112  0.5393 -0.0205
   25MOL   C23822846   1.004   0.259   7.720  0.5243 -0.0170 -0.5804
   25MOL   C23922847   1.090   0.215   7.836  0.8948  0.0834 -0.0874
   25MOL   C24022848   1.224   0.301   7.836 -0.2609 -0.1060  0.1667
   25MOL   C24122849   1.331   0.232   7.927  0.2827  0.1558  0.2603
   25MOL   C24222850   1.470   0.302   7.930 -0.6093  0.7605 -0.1550
   25MOL   C24322851   1.554   0.264   0.077 -0.1010 -0.0904 -0.6243
   25MOL   C24422852   1.709   0.291   0.061  0.7164  0.8886  0.0415
   25MOL   C24522853   1.800   0.242   0.182  0.3607  0.1114  0.0455
   25MOL   C24622854   1.943   0.300   0.176 -0.2086  0.2614  0.1807
   25MOL   C24722855   2.034   0.253   0.283 -0.1450 -0.3863 -0.4155
   25MOL   O24822856   1.976   0.246   0.414 -0.2406  0.4561  0.3371
   25MOL   C24922857   1.961   0.128   0.470 -0.7855 -0.6101  0.6352
   25MOL   O25022858   1.982   0.022   0.412  0.2275  0.1966  0.0328
   25MOL   C25122859   1.901   0.144   0.608  0.2969 -0.6657 -0.1845
   25MOL   C25222860   1.875   0.031   0.684  0.3578  0.2085  0.1578
   25MOL   C25322861   1.833   0.038   0.819  0.6334 -0.0202 -0.1917
   25MOL   C25422862   1.803   0.159   0.880 -0.1369  0.1574  0.4517
   25MOL   C25522863   1.757   0.170   1.024 -0.3842 -0.7037  0.5875
   25MOL   O25622864   1.757   0.070   1.097 -0.3154  0.3160  0.0325
   25MOL   O25722865   1.714   0.290   1.059 -0.0606 -0.7286 -0.5467
   25MOL   C25822866   1.817   0.273   0.797 -0.1809 -0.4187  0.3625
   25MOL   C25922867   1.866   0.264   0.662 -0.0950  0.1437  0.2353
   25MOL   H26022868   1.042   0.204   7.633 -0.9584 -0.8318 -0.7297
   25MOL   H26122869   1.019   0.366   7.708 -0.6661  0.0122 -1.9487
   25MOL   H26222870   1.117   0.110   7.827  1.0763  0.0574  0.6529
   25MOL   H26322871   1.038   0.209   7.932 -1.3712 -2.1303 -1.3929
   25MOL   H26422872   1.266   0.313   7.736 -0.5451  1.0633  0.1812
   25MOL   H26522873   1.211   0.402   7.875  2.1648  0.7867 -1.2549
   25MOL   H26622874   1.354   0.126   7.917 -0.8720 -0.2706  1.8173
   25MOL   H26722875   1.295   0.244   0.051  2.3872  1.5006  0.8929
   25MOL   H26822876   1.515   0.261   7.840 -1.9917  0.5842 -0.7874
   25MOL   H26922877   1.464   0.410   7.917 -0.6195  0.5413 -2.1718
   25MOL   H27022878   1.520   0.330   0.156  2.7718 -0.4286  0.9506
   25MOL   H27122879   1.543   0.159   0.103  0.6215  0.3761  1.6125
   25MOL   H27222880   1.747   0.251   7.945 -1.0911 -1.1426  0.1325
   25MOL   H27322881   1.722   0.398   0.047  2.0271  1.0021  1.9163
   25MOL   H27422882   1.748   0.277   0.272 -2.0468  0.4082 -1.4086
   25MOL   H27522883   1.800   0.133   0.178  2.8014  0.0861  0.0615
   25MOL   H27622884   1.937   0.408   0.185 -0.7615 -0.0213  3.6224
   25MOL   H27722885   1.986   0.271   0.080  1.4190 -0.3128  1.0633
   25MOL   H27822886   2.113   0.328   0.288  0.7703 -1.2069 -2.3762
   25MOL   H27922887   2.082   0.161   0.250  0.4419 -0.3323  0.2869
   25MOL   H28022888   1.894   7.913   0.639  1.4032  0.2577  0.5017
   25MOL   H28122889   1.832   7.922   0.874 -0.8084  0.2178  0.2277
   25MOL   H28222890   1.796   0.373   0.833 -0.7419 -0.7085  0.8530
   25MOL   H28322891   1.898   0.350   0.604  0.7013 -0.2535  0.0799
   25MOL   O28422892   1.662   0.298   1.211  0.1491  0.2698 -0.1264
   25MOL   C28522893   1.772   0.337   1.296  0.4320 -0.6962 -0.3900
   25MOL   C28622894   1.748   0.324   1.445 -0.4914 -0.9656  0.4188
   25MOL   C28722895   1.749   0.184   1.485 -0.1002  0.2830 -0.6051
   25MOL   C28822896   1.725   0.170   1.635 -0.1368  0.2745 -0.0341
   25MOL   C28922897   1.693   0.022   1.670 -0.0126 -0.5105  0.2704
   25MOL   C29022898   1.672   0.006   1.823 -0.2236 -0.2127  0.3757
   25MOL   C29122899   1.609   7.853   1.851  0.0788 -0.4733  0.4273
   25MOL   C29222900   1.453   7.855   1.851  0.6418  0.3276  0.3242
   25MOL   C29322901   1.393   7.714   1.875 -0.6233  0.4524 -0.0368
   25MOL   C29422902   1.244   7.727   1.889  0.3323 -0.1332  0.0908
   25MOL   O29522903   1.187   7.618   1.948  0.1113  0.5559 -0.3439
   25MOL   C29622904   1.112   7.533   1.873 -0.1333  0.3020 -0.4571
   25MOL   O29722905   1.112   7.536   1.750 -0.1899 -0.1487  0.5940
   25MOL   C29822906   1.025   7.428   1.944  0.3564 -0.7168 -0.1390
   25MOL   C29922907   0.954   7.338   1.863 -0.6487 -0.1500  0.0950
   25MOL   C30022908   0.881   7.229   1.919 -0.7989  0.2827  0.3573
   25MOL   C30122909   0.869   7.222   2.058 -0.6439  0.2521  0.2128
   25MOL   C30222910   0.799   7.106   2.128  0.6770 -0.0973 -0.8201
   25MOL   O30322911   0.765   7.113   2.244 -1.0411 -1.2365  0.9120
   25MOL   O30422912   0.795   6.991   2.045  0.1188  0.3777  0.1732
   25MOL   C30522913   0.924   7.323   2.140 -0.9374  0.1217 -0.3766
   25MOL   C30622914   1.005   7.422   2.087 -0.6148  0.2292  0.6728
   25MOL   H30722915   1.864   0.282   1.279 -0.2923 -2.2628  0.6977
   25MOL   H30822916   1.783   0.443   1.272 -1.1349 -0.6377 -0.9546
   25MOL   H30922917   1.644   0.353   1.453 -0.8281 -2.1491  0.3964
   25MOL   H31022918   1.803   0.393   1.508 -0.7214 -0.9327  0.5825
   25MOL   H31122919   1.688   0.116   1.426 -0.5310  0.6002 -0.5289
   25MOL   H31222920   1.853   0.152   1.480  0.6144  2.3071  0.5451
   25MOL   H31322921   1.639   0.229   1.666 -0.2717 -0.0703  0.2516
   25MOL   H31422922   1.809   0.198   1.699 -0.1020 -3.5452  1.7283
   25MOL   H31522923   1.603   7.960   1.624 -0.0045 -1.8664  1.3920
   25MOL   H31622924   1.778   7.933   1.662  1.4016  1.1987  0.5806
   25MOL   H31722925   1.769   0.013   1.871  1.4535 -0.6991 -2.8458
   25MOL   H31822926   1.608   0.086   1.861 -0.6619 -0.4835  0.2221
   25MOL   H31922927   1.654   7.780   1.784 -0.6811 -2.5059  2.0796
   25MOL   H32022928   1.644   7.825   1.950  0.6648 -0.0710  0.3330
   25MOL   H32122929   1.418   7.914   1.936  1.0739  0.7080  0.2357
   25MOL   H32222930   1.406   7.894   1.761  3.3836  2.7038 -0.1405
   25MOL   H32322931   1.429   7.664   1.965 -1.3348  0.7265  0.4052
   25MOL   H32422932   1.426   7.646   1.795 -1.8620  0.7422 -0.8096
   25MOL   H32522933   1.196   7.747   1.793 -0.6090 -0.8499  0.3971
   25MOL   H32622934   1.229   7.814   1.953 -0.0559  0.4967 -0.8376
   25MOL   H32722935   0.965   7.340   1.756 -2.1163  3.9908 -0.0483
   25MOL   H32822936   0.819   7.166   1.857 -0.0250 -0.1995  0.0645
   25MOL   H32922937   0.924   7.309   2.247 -0.7817 -1.9895 -0.6455
   25MOL   H33022938   1.067   7.482   2.152  1.2170 -2.0747  1.1343
   25MOL   O33122939   0.736   6.872   2.120  0.0334 -0.4014 -0.0392
   25MOL   C33222940   0.599   6.874   2.096  0.5609  0.2437  0.1873
   25MOL   C33322941   0.527   6.740   2.142 -0.2866  0.5043 -0.6430
   25MOL   C33422942   0.374   6.732   2.113  0.2517  0.0069  0.0475
   25MOL   C33522943   0.283   6.851   2.154  0.1107  0.8367 -0.2442
   25MOL   C33622944   0.295   6.879   2.301 -0.5997  0.0727  0.2001
   25MOL   C33722945   0.225   6.784   2.398  0.2570  0.9316 -0.1597
   25MOL   C33822946   0.200   6.849   2.535 -0.5122 -0.1025  0.0063
   25MOL   C33922947   0.124   6.757   2.632  0.4922  0.1973  1.0403
   25MOL   C34022948   0.215   6.642   2.681 -0.2149  0.0987 -0.0862
   25MOL   C34122949   0.161   6.574   2.811  0.2720 -0.4649  0.8014
   25MOL   O34222950   0.226   6.453   2.827 -0.1628  0.2014  0.2529
   25MOL   C34322951   0.289   6.419   2.942 -0.1842  0.4646 -0.7037
   25MOL   O34422952   0.299   6.506   3.031  0.2652  0.5204  0.3217
   25MOL   C34522953   0.357   6.284   2.942  0.3684 -0.5169 -0.3720
   25MOL   C34622954   0.324   6.198   2.838 -0.4589  0.4184 -0.5134
   25MOL   C34722955   0.379   6.061   2.835  0.6790  0.9777  0.5485
   25MOL   C34822956   0.463   6.012   2.935  0.3544 -0.5355  0.1549
   25MOL   C34922957   0.516   5.871   2.935 -0.5822 -0.6671 -0.0114
   25MOL   O35022958   0.548   5.823   3.049  0.0765  0.2946  0.1815
   25MOL   O35122959   0.520   5.812   2.818  0.1809  0.3370  0.1020
   25MOL   C35222960   0.493   6.102   3.040 -0.4103  0.1687 -0.7343
   25MOL   C35322961   0.445   6.236   3.041 -0.0004 -0.3463  0.4020
   25MOL   H35422962   0.550   6.957   2.145  0.2646  0.9219 -1.2399
   25MOL   H35522963   0.570   6.890   1.992 -0.4202  1.1043  0.5894
   25MOL   H35622964   0.554   6.728   2.247 -0.6717 -1.3874 -0.7505
   25MOL   H35722965   0.576   6.657   2.091 -1.1537  0.3506 -1.2413
   25MOL   H35822966   0.375   6.712   2.005 -1.6135  0.9627 -0.1659
   25MOL   H35922967   0.335   6.633   2.136 -1.2217  0.4955 -0.2909
   25MOL   H36022968   0.183   6.836   2.114  1.0720 -1.7346 -1.8054
   25MOL   H36122969   0.322   6.943   2.109  0.4398  1.1297  0.6271
   25MOL   H36222970   0.402   6.896   2.314 -0.4945  0.5403 -1.1909
   25MOL   H36322971   0.250   6.978   2.293  0.0707  0.2847 -0.9502
   25MOL   H36422972   0.130   6.752   2.354  1.5318 -2.4702 -0.6212
   25MOL   H36522973   0.282   6.691   2.403  0.3056  0.9091 -1.1025
   25MOL   H36622974   0.295   6.889   2.571 -0.5718 -0.9167  1.0885
   25MOL   H36722975   0.141   6.939   2.522 -1.3208 -0.3205  2.0324
   25MOL   H36822976   0.085   6.819   2.712 -0.0722  1.2264 -0.0202
   25MOL   H36922977   0.050   6.718   2.563  1.7472 -0.6068  0.1111
   25MOL   H37022978   0.316   6.680   2.698 -0.7378  1.9514 -1.0099
   25MOL   H37122979   0.254   6.569   2.610  2.4855  0.3509  1.0649
   25MOL   H37222980   0.053   6.567   2.795  0.1260 -1.8061  2.2599
   25MOL   H37322981   0.178   6.650   2.887 -1.7641  0.3848  0.4543
   25MOL   H37422982   0.267   6.233   2.754 -2.3329  0.2747  0.6708
   25MOL   H37522983   0.339   5.995   2.759 -1.7418  0.1201  2.4599
   25MOL   H37622984   0.573   6.092   3.112 -0.7316 -0.4148 -0.4596
   25MOL   H37722985   0.479   6.298   3.123 -0.6234 -2.4351  2.3069
   25MOL   O37822986   0.567   5.664   2.820  0.1320  0.4045 -0.2361
   25MOL   C37922987   0.445   5.594   2.809 -0.2890  0.3583 -0.1277
   25MOL   C38022988   0.474   5.440   2.840  0.0667 -0.0750 -0.6268
   25MOL   C38122989   0.343   5.352   2.832  0.0281 -0.2556 -0.0271
   25MOL   C38222990   0.273   5.341   2.697  0.2911 -0.5298 -0.1507
   25MOL   C38322991   0.355   5.268   2.587  0.3423  0.0133  0.7198
   25MOL   C38422992   0.272   5.233   2.470  0.5766  0.2932 -0.6300
   25MOL   C38522993   0.180   5.110   2.486 -0.2371 -0.7360  0.3962
   25MOL   C38622994   0.112   5.072   2.355  0.4407 -0.4117  0.2899
   25MOL   C38722995   0.026   4.949   2.374  0.5473  0.2104  0.3611
   25MOL   C38822996   7.858   4.992   2.383  0.4810 -0.0692  0.1739
   25MOL   O38922997   7.787   4.871   2.416  0.0912 -0.2991  0.8675
   25MOL   C39022998   7.660   4.856   2.398 -0.4141 -0.3682  0.3618
   25MOL   O39122999   7.585   4.939   2.344 -0.6559 -0.1588  0.8573
   25MOL   C39223000   7.614   4.724   2.456  0.3034 -0.1759 -0.0889
   25MOL   C39323001   7.704   4.628   2.486 -0.1514 -0.5376  0.1810
   25MOL   C39423002   7.659   4.495   2.520  0.1033  0.6450  0.1516
   25MOL   C39523003   7.522   4.465   2.513  0.5726 -0.0064  0.1116
   25MOL   C39623004   7.476   4.326   2.533 -0.1208 -0.0058 -0.0622
   25MOL   O39723005   7.551   4.225   2.533  0.4330  0.3990  0.4252
   25MOL   O39823006   7.352   4.317   2.557 -0.1750 -0.1706  0.0735
   25MOL   C39923007   7.429   4.565   2.479  0.6990 -0.3322 -0.1444
   25MOL   C40023008   7.474   4.698   2.460  0.3441 -0.8672 -0.4541
   25MOL   H40123009   0.373   5.644   2.872 -0.5751  1.8504 -1.5872
   25MOL   H40223010   0.415   5.593   2.704  0.3607 -0.4777 -0.3162
   25MOL   H40323011   0.523   5.439   2.938 -1.5469 -1.3374  0.1970
   25MOL   H40423012   0.553   5.410   2.771 -0.3208  0.8284 -1.4573
   25MOL   H40523013   0.364   5.249   2.861  0.5677  0.2034  1.2828
   25MOL   H40623014   0.268   5.388   2.903  1.0267  1.4788  0.1892
   25MOL   H40723015   0.255   5.443   2.662  2.4148 -0.1102 -0.1380
   25MOL   H40823016   0.179   5.287   2.699  0.1791 -0.3125  0.2875
   25MOL   H40923017   0.438   5.331   2.553  2.1367 -1.9460  1.3800
   25MOL   H41023018   0.403   5.179   2.628 -1.1432 -1.0917  0.0757
   25MOL   H41123019   0.213   5.318   2.436  1.8270  1.3142 -0.2553
   25MOL   H41223020   0.339   5.211   2.388  2.6031  0.3503  0.9581
   25MOL   H41323021   0.235   5.023   2.523 -0.7985 -0.4910  1.8745
   25MOL   H41423022   0.107   5.120   2.566  0.4888 -0.4102  1.0301
   25MOL   H41523023   0.052   5.160   2.332  1.2686 -0.3711 -1.8127
   25MOL   H41623024   0.183   5.065   2.273  0.2449  4.0808 -0.4062
   25MOL   H41723025   0.052   4.904   2.470 -0.8442  0.7107  0.9960
   25MOL   H41823026   0.044   4.867   2.305  0.5703 -0.3279  0.9973
   25MOL   H41923027   7.824   5.028   2.286 -0.4229 -1.7902 -0.1598
   25MOL   H42023028   7.841   5.083   2.441  1.1319 -1.4380  2.6119
   25MOL   H42123029   7.811   4.640   2.485 -0.0851 -1.1133 -0.3698
   25MOL   H42223030   7.728   4.414   2.536  1.2333  1.0477 -2.4390
   25MOL   H42323031   7.323   4.546   2.481  0.5969  0.1887 -0.5271
   25MOL   H42423032   7.403   4.776   2.438  0.0637 -1.5917 -2.2108
   25MOL   O42523033   7.307   4.183   2.604  0.2080  0.2562  0.5835
   25MOL   C42623034   7.217   4.134   2.504  0.6278  0.2147 -0.6507
   25MOL   C42723035   7.095   4.230   2.504  0.0557  0.0091 -0.4976
   25MOL   C42823036   6.992   4.216   2.617 -0.1124 -0.7937  0.3610
   25MOL   C42923037   6.911   4.087   2.621  0.7029 -0.1237 -0.4414
   25MOL   C43023038   6.874   4.027   2.761 -0.4324 -0.5547 -0.7265
   25MOL   C43123039   6.816   3.888   2.747 -0.5233 -0.3363 -0.4019
   25MOL   C43223040   6.913   3.773   2.728 -0.6095 -0.8321  0.4358
   25MOL   C43323041   6.836   3.645   2.691  0.0703 -0.4727 -0.1440
   25MOL   C43423042   6.926   3.516   2.682  0.4824 -0.0745 -0.4221
   25MOL   C43523043   6.831   3.392   2.659 -0.2007 -0.1123 -0.3672
   25MOL   O43623044   6.740   3.362   2.779 -0.2601 -0.2945 -0.4580
   25MOL   C43723045   6.763   3.266   2.865  0.6817 -0.4846  0.0327
   25MOL   O43823046   6.857   3.192   2.849 -0.9041  0.2402 -0.1132
   25MOL   C43923047   6.666   3.260   2.980 -0.2594 -0.2703 -0.1122
   25MOL   C44023048   6.570   3.358   3.006 -0.9259  0.0238  0.0942
   25MOL   C44123049   6.472   3.334   3.103  0.4733 -0.2465  0.0663
   25MOL   C44223050   6.486   3.218   3.191  0.5665 -0.5708 -0.2341
   25MOL   C44323051   6.399   3.210   3.315  0.3447 -0.1913 -0.7352
   25MOL   O44423052   6.404   3.110   3.384  0.8684  0.1038 -0.8247
   25MOL   O44523053   6.332   3.324   3.343 -0.2073  0.4508 -0.2224
   25MOL   C44623054   6.574   3.117   3.160  0.1826 -0.3395 -0.4380
   25MOL   C44723055   6.666   3.134   3.049  0.5960  0.2106  0.4927
   25MOL   H44823056   7.276   4.127   2.412  1.1243 -1.1903 -0.2477
   25MOL   H44923057   7.196   4.038   2.551  2.4334  0.5072  0.8292
   25MOL   H45023058   7.047   4.212   2.407  0.0786 -0.6193 -0.3955
   25MOL   H45123059   7.129   4.333   2.512 -0.5681  0.3238 -1.7644
   25MOL   H45223060   7.041   4.213   2.715 -0.3555  0.5602  0.5293
   25MOL   H45323061   6.917   4.295   2.620  0.0833 -0.6570  2.0521
   25MOL   H45423062   6.981   4.013   2.580 -0.2382 -1.4032  0.2324
   25MOL   H45523063   6.826   4.085   2.554  0.1101 -0.3182  0.3126
   25MOL   H45623064   6.960   4.027   2.827 -0.5613 -2.9531 -0.5180
   25MOL   H45723065   6.808   4.098   2.812  0.2880  1.1919 -2.1736
   25MOL   H45823066   6.758   3.874   2.838  0.3685 -0.6285  0.1266
   25MOL   H45923067   6.744   3.888   2.665  0.8158  0.9729 -1.6285
   25MOL   H46023068   6.968   3.801   2.638 -1.8756 -0.0949 -0.1242
   25MOL   H46123069   6.989   3.747   2.801 -0.7158 -3.2555 -0.2781
   25MOL   H46223070   6.766   3.628   2.772  1.8562 -2.3086  1.0671
   25MOL   H46323071   6.792   3.652   2.592  0.2071 -1.3177 -0.2633
   25MOL   H46423072   7.001   3.515   2.761  1.1956 -1.6364 -1.0796
   25MOL   H46523073   7.001   3.528   2.603  2.5677  0.0913  1.5382
   25MOL   H46623074   6.892   3.304   2.639 -0.0485 -0.1144  0.0851
   25MOL   H46723075   6.766   3.407   2.573  1.3738  1.7055 -1.2808
   25MOL   H46823076   6.558   3.455   2.960 -1.2253  0.5749  1.3122
   25MOL   H46923077   6.389   3.402   3.116  2.0726  1.6211  0.6618
   25MOL   H47023078   6.573   3.025   3.217  1.7445 -0.4314 -0.5357
   25MOL   H47123079   6.725   3.052   3.010  0.3164  0.0735  0.3602
   25MOL   O47223080   6.225   3.307   3.445 -0.0385  0.2759  0.4543
   25MOL   C47323081   6.277   3.349   3.566 -0.3986 -0.3563  0.2668
   25MOL   C47423082   6.312   3.501   3.572 -0.0337 -1.0214  0.1141
   25MOL   C47523083   6.367   3.531   3.718  0.3364 -0.0693  0.5113
   25MOL   C47623084   6.397   3.681   3.743  0.3621  0.4851 -0.6959
   25MOL   C47723085   6.271   3.764   3.761  0.4534 -0.1995  0.4082
   25MOL   C47823086   6.297   3.912   3.745  0.3420  0.2133  0.1824
   25MOL   C47923087   6.174   3.993   3.792  0.1314  0.2362  0.6050
   25MOL   C48023088   6.206   4.143   3.788  0.4431  0.5673 -0.1096
   25MOL   C48123089   6.088   4.235   3.835 -0.7644  0.0754 -0.1191
   25MOL   C48223090   6.122   4.385   3.814 -1.4346 -0.5411 -0.2709
   25MOL   O48323091   6.035   4.463   3.892 -0.5663  0.3877  0.4161
   25MOL   C48423092   6.051   4.593   3.913  0.3553  0.7122 -0.4648
   25MOL   O48523093   6.116   4.670   3.840  0.4997 -0.2520 -0.3036
   25MOL   C48623094   5.975   4.640   4.037 -0.2253 -0.0267  0.9181
   25MOL   C48723095   5.885   4.555   4.115 -0.0887 -0.1091 -0.1298
   25MOL   C48823096   5.810   4.613   4.228 -0.9432  0.4160 -0.1458
   25MOL   C48923097   5.833   4.748   4.262  0.7694  0.2255  0.2667
   25MOL   C49023098   5.772   4.813   4.389 -0.6743  0.4689  0.4210
   25MOL   O49123099   5.746   4.932   4.404  0.3996  0.1825  0.2931
   25MOL   O49223100   5.734   4.721   4.474 -0.0798 -0.1668 -0.1187
   25MOL   C49323101   5.921   4.826   4.187  0.1898  0.2961 -1.0773
   25MOL   C49423102   5.989   4.776   4.074  0.2011  0.3778  0.4546
   25MOL   H49523103   6.195   3.327   3.635 -0.0803 -1.6885  0.2373
   25MOL   H49623104   6.350   3.278   3.605 -0.0830 -0.2816 -0.1900
   25MOL   H49723105   6.231   3.569   3.544 -0.2284 -0.7324  1.3305
   25MOL   H49823106   6.384   3.530   3.497 -0.6914  1.4691  0.3959
   25MOL   H49923107   6.305   3.487   3.797  0.0700 -0.0633  0.3083
   25MOL   H50023108   6.455   3.467   3.720 -0.3312 -0.9870  1.2009
   25MOL   H50123109   6.450   3.720   3.656  1.1375 -0.3435 -0.6133
   25MOL   H50223110   6.478   3.684   3.816 -0.3005  1.0249  0.0189
   25MOL   H50323111   6.204   3.729   3.683  1.4464 -1.5425  0.1420
   25MOL   H50423112   6.218   3.734   3.852  0.0857 -1.4422 -0.1975
   25MOL   H50523113   6.383   3.943   3.805  0.0974 -0.8234  1.0791
   25MOL   H50623114   6.309   3.939   3.640 -0.1260  0.2755  0.1428
   25MOL   H50723115   6.080   3.977   3.738  0.0468  0.8648  0.5586
   25MOL   H50823116   6.138   3.964   3.890 -1.0763 -0.3853 -0.0062
   25MOL   H50923117   6.281   4.147   3.867 -1.9757 -1.8883  2.4266
   25MOL   H51023118   6.249   4.169   3.691  0.4939 -1.3355 -0.6182
   25MOL   H51123119   6.068   4.211   3.939  1.1971  0.6852  0.4128
   25MOL   H51223120   5.997   4.226   3.775 -0.9667 -0.8975  0.3188
   25MOL   H51323121   6.125   4.426   3.713 -0.7154 -1.1931 -0.5190
   25MOL   H51423122   6.223   4.391   3.854 -2.6746 -1.3086  3.1437
   25MOL   H51523123   5.884   4.451   4.086  0.9890 -0.6796  1.7708
   25MOL   H51623124   5.759   4.543   4.293  2.0045 -0.3747  1.4554
   25MOL   H51723125   5.941   4.927   4.222  1.2955  0.0886 -1.1059
   25MOL   H51823126   6.045   4.847   4.015 -0.3106  1.2599  1.0100
   25MOL   O51923127   5.650   4.777   4.591 -0.0853  0.4619  0.1060
   25MOL   C52023128   5.724   4.759   4.717  0.5749 -0.1825  0.4193
   25MOL   C52123129   5.750   4.613   4.756 -0.6181  0.1076  0.4521
   25MOL   C52223130   5.623   4.536   4.813  0.2136  0.1288  0.2358
   25MOL   C52323131   5.632   4.386   4.824 -0.2963 -0.7780  0.3113
   25MOL   C52423132   5.498   4.331   4.874  0.3224  0.9802  0.5599
   25MOL   C52523133   5.518   4.189   4.929 -1.1538 -0.6580 -0.5785
   25MOL   C52623134   5.383   4.142   4.987 -0.5620  0.7589 -0.3051
   25MOL   C52723135   5.397   4.004   5.049 -0.3159  0.2945  0.7108
   25MOL   C52823136   5.259   3.965   5.102 -0.5070 -0.1512 -0.1748
   25MOL   C52923137   5.257   3.829   5.171  0.1685  0.3636  0.7091
   25MOL   O53023138   5.294   3.826   5.312 -0.0458  0.1381  0.2160
   25MOL   C53123139   5.424   3.810   5.352 -0.3234  0.4298  0.9952
   25MOL   O53223140   5.520   3.792   5.273 -0.3066  0.0380 -0.6942
   25MOL   C53323141   5.439   3.800   5.501 -0.3303 -0.3008  0.7287
   25MOL   C53423142   5.559   3.763   5.566 -0.1134 -0.0189  0.2954
   25MOL   C53523143   5.573   3.765   5.706 -0.4423  0.2903 -0.1551
   25MOL   C53623144   5.470   3.814   5.789 -0.3978 -0.5341  0.3215
   25MOL   C53723145   5.495   3.831   5.935  0.2264  0.4505  0.7565
   25MOL   O53823146   5.404   3.877   6.008  0.7607  0.0933 -0.5582
   25MOL   O53923147   5.617   3.800   5.978  0.1227 -0.4620  0.0445
   25MOL   C54023148   5.348   3.856   5.730  0.7823  0.3893 -0.4434
   25MOL   C54123149   5.338   3.854   5.592  0.5889  0.6395 -0.2133
   25MOL   H54223150   5.822   4.807   4.716  1.2247 -1.4895 -0.1459
   25MOL   H54323151   5.661   4.794   4.799  1.0708 -1.3709  1.3210
   25MOL   H54423152   5.834   4.606   4.825  0.4987  2.7498 -0.5870
   25MOL   H54523153   5.778   4.561   4.665 -2.0509 -0.5441  0.3751
   25MOL   H54623154   5.590   4.573   4.910 -2.8938  0.5575 -0.9198
   25MOL   H54723155   5.546   4.570   4.744 -0.4522 -0.1818  0.8304
   25MOL   H54823156   5.697   4.359   4.907 -0.5545 -1.3286  0.3336
   25MOL   H54923157   5.666   4.343   4.730  2.6358  0.3271  0.8265
   25MOL   H55023158   5.458   4.408   4.940  0.5941  1.0333  0.6607
   25MOL   H55123159   5.434   4.322   4.785  0.8798 -3.3973  0.4918
   25MOL   H55223160   5.555   4.123   4.852  0.2652 -2.3340  1.4924
   25MOL   H55323161   5.594   4.184   5.007 -0.6502 -1.8885 -1.1341
   25MOL   H55423162   5.351   4.209   5.067  0.2073 -0.8426  1.3775
   25MOL   H55523163   5.308   4.148   4.908 -2.1969  2.7767  1.3509
   25MOL   H55623164   5.425   3.924   4.980 -0.6513  0.1363  0.7567
   25MOL   H55723165   5.472   4.004   5.129 -0.5312 -0.4040  0.9138
   25MOL   H55823166   5.191   3.971   5.017  0.1425  2.8059 -0.5580
   25MOL   H55923167   5.226   4.038   5.176  2.3914 -1.6944  2.8007
   25MOL   H56023168   5.321   3.761   5.115  0.3981  1.5997 -0.5550
   25MOL   H56123169   5.159   3.781   5.164 -0.0127  0.5483  1.8509
   25MOL   H56223170   5.645   3.731   5.509 -0.1921  3.1363 -1.7143
   25MOL   H56323171   5.671   3.741   5.746 -0.0665  0.1568 -1.1396
   25MOL   H56423172   5.267   3.904   5.783  0.9110 -1.4136  1.4274
   25MOL   H56523173   5.260   3.911   5.543  0.0190  1.7651  1.9734
   25MOL   O56623174   5.630   3.828   6.131  0.1054  0.5587 -0.7866
   25MOL   C56723175   5.622   3.706   6.199  0.1459  0.6419  1.1359
   25MOL   C56823176   5.682   3.729   6.337  0.1021 -0.4330  0.1011
   25MOL   C56923177   5.605   3.832   6.427  0.3959  0.5171  0.1888
   25MOL   C57023178   5.679   3.850   6.562  0.5796 -0.4540 -0.5502
   25MOL   C57123179   5.771   3.969   6.554 -0.6500 -0.4342  0.2526
   25MOL   C57223180   5.699   4.101   6.579  0.4053  0.0614 -1.2193
   25MOL   C57323181   5.678   4.123   6.734 -0.6426 -0.0411  0.8141
   25MOL   C57423182   5.660   4.276   6.764  0.1777 -0.2282 -0.1266
   25MOL   C57523183   5.668   4.307   6.911  0.6183 -0.1683  0.2269
   25MOL   C57623184   5.686   4.461   6.932  0.4303 -0.9369  0.2637
   25MOL   O57723185   5.668   4.498   7.071 -0.2025 -0.6712 -0.2240
   25MOL   C57823186   5.767   4.486   7.162  0.2587 -0.7424  0.3837
   25MOL   O57923187   5.883   4.460   7.139 -0.5193  0.5554  0.0358
   25MOL   C58023188   5.715   4.511   7.302 -0.1101  0.0516 -0.0523
   25MOL   C58123189   5.797   4.485   7.414  0.2291  0.4170  0.1518
   25MOL   C58223190   5.761   4.518   7.546 -0.4970 -0.9771  0.3586
   25MOL   C58323191   5.632   4.570   7.561 -0.1132 -0.1166 -0.5959
   25MOL   C58423192   5.590   4.609   7.698 -0.4271 -0.0462  0.1832
   25MOL   O58523193   5.669   4.605   7.795 -0.4105  0.1626  0.2141
   25MOL   O58623194   5.462   4.655   7.706 -0.3082  0.8175 -0.1238
   25MOL   C58723195   5.549   4.597   7.453  0.3432  0.7290  0.2516
   25MOL   C58823196   5.589   4.564   7.324 -0.1440 -0.4206  0.7830
   25MOL   H58923197   5.519   3.674   6.214  1.0003 -2.2419  1.0601
   25MOL   H59023198   5.679   3.630   6.145  3.3880  2.1254  2.3165
   25MOL   H59123199   5.784   3.760   6.318 -0.1905  2.9599  3.5430
   25MOL   H59223200   5.713   3.641   6.393 -2.7578 -1.9887 -0.6577
   25MOL   H59323201   5.598   3.927   6.374 -1.2654 -1.6733 -3.7131
   25MOL   H59423202   5.506   3.786   6.438  0.2953  0.5296 -0.6446
   25MOL   H59523203   5.736   3.762   6.589  1.1074 -0.4471 -1.6368
   25MOL   H59623204   5.602   3.872   6.636 -0.2449  0.0898 -1.5399
   25MOL   H59723205   5.854   3.953   6.624  0.1227 -5.1958 -1.5315
   25MOL   H59823206   5.817   3.969   6.455  0.5731 -2.1152  0.7823
   25MOL   H59923207   5.772   4.175   6.546  0.7995  0.2025 -0.0616
   25MOL   H60023208   5.608   4.130   6.526  0.1612 -0.2889 -0.9946
   25MOL   H60123209   5.587   4.071   6.763 -0.6260 -0.3091  0.3976
   25MOL   H60223210   5.769   4.091   6.784 -1.4013 -0.6477  1.8280
   25MOL   H60323211   5.719   4.341   6.700  0.9565 -2.6555 -1.9508
   25MOL   H60423212   5.555   4.291   6.736  0.1018 -2.0335 -0.8675
   25MOL   H60523213   5.760   4.270   6.956  0.5915 -1.1456 -0.5043
   25MOL   H60623214   5.582   4.255   6.954 -0.8569  0.5057 -1.8019
   25MOL   H60723215   5.601   4.509   6.883  0.0819 -0.9426  0.8433
   25MOL   H60823216   5.782   4.494   6.894 -0.6358 -0.3381 -1.9893
   25MOL   H60923217   5.898   4.453   7.392  0.0589 -0.8109  1.1099
   25MOL   H61023218   5.830   4.503   7.628  2.0594  1.5664 -1.2656
   25MOL   H61123219   5.450   4.639   7.471  2.1047  3.9830  3.0771
   25MOL   H61223220   5.520   4.589   7.245  0.0537 -0.1010  0.7118
   25MOL   O61323221   5.444   4.757   7.813 -0.1534 -0.3364  0.2600
   25MOL   C61423222   5.451   4.886   7.756 -0.7969 -0.1016 -0.2188
   25MOL   C61523223   5.444   5.001   7.861  0.2040 -0.4377 -0.2968
   25MOL   C61623224   5.304   5.025   7.914  0.6071  0.4981  0.2510
   25MOL   C61723225   5.306   5.133   0.039 -0.0887 -0.4108  0.2382
   25MOL   C61823226   5.166   5.161   0.105 -0.0760  0.1814  0.1349
   25MOL   C61923227   5.138   5.308   0.135  0.4606 -0.2856  0.2937
   25MOL   C62023228   5.197   5.353   0.266  0.5136 -0.6923 -0.2869
   25MOL   C62123229   5.147   5.494   0.311 -0.0119  0.2364 -1.2907
   25MOL   C62223230   5.200   5.530   0.452 -0.3204  0.0147 -0.0896
   25MOL   C62323231   5.147   5.667   0.504 -0.5075 -0.5727  0.2711
   25MOL   O62423232   5.159   5.775   0.415  0.6020 -0.3648  0.1359
   25MOL   C62523233   5.254   5.868   0.436  0.1150 -0.2296 -0.5364
   25MOL   O62623234   5.308   5.885   0.543  0.5275  0.4389  0.1556
   25MOL   C62723235   5.270   5.959   0.319 -0.1393  0.5792  0.2672
   25MOL   C62823236   5.337   6.084   0.336 -0.8601  0.4737  0.1933
   25MOL   C62923237   5.356   6.164   0.222 -0.5099  0.4742 -0.7235
   25MOL   C63023238   5.314   6.127   0.095 -0.0594 -0.0421  0.7365
   25MOL   C63123239   5.322   6.234   7.963  0.6672  0.2855  0.8009
   25MOL   O63223240   5.318   6.356   7.977 -0.0749 -0.2502  0.2602
   25MOL   O63323241   5.354   6.176   7.841 -0.5180  0.4613  0.0501
   25MOL   C63423242   5.262   6.001   0.074 -0.6573  0.9645 -0.2110
   25MOL   C63523243   5.241   5.914   0.188 -0.0922  0.2288  1.0165
   25MOL   H63623244   5.542   4.891   7.695 -0.3422  0.9471  0.5193
   25MOL   H63723245   5.367   4.903   7.689  0.6372  0.8993 -1.7968
   25MOL   H63823246   5.477   5.099   7.828 -1.1661  0.1593  0.0924
   25MOL   H63923247   5.512   4.978   7.943  0.5113  2.3817  0.2695
   25MOL   H64023248   5.245   5.061   7.830  2.1225  0.4364 -0.8691
   25MOL   H64123249   5.260   4.933   7.953  2.1096 -0.7419 -0.9194
   25MOL   H64223250   5.345   5.223   7.969  2.1029 -2.0570 -1.1668
   25MOL   H64323251   5.372   5.109   0.123 -1.0232  0.3259  1.2127
   25MOL   H64423252   5.091   5.140   0.029  1.1178  0.5659 -1.1766
   25MOL   H64523253   5.144   5.110   0.199 -0.4112 -0.6649 -0.4012
   25MOL   H64623254   5.166   5.377   0.055  2.6637 -0.8420  0.5650
   25MOL   H64723255   5.030   5.308   0.150  0.2167 -0.0569 -1.3175
   25MOL   H64823256   5.195   5.278   0.345  1.4354 -0.4863 -0.0622
   25MOL   H64923257   5.305   5.361   0.258  0.4810 -1.1303 -1.2600
   25MOL   H65023258   5.175   5.574   0.242 -1.7007 -0.3297 -2.6534
   25MOL   H65123259   5.038   5.491   0.314  0.0306 -1.6272 -0.5820
   25MOL   H65223260   5.308   5.512   0.448 -0.3935  0.0688 -3.4087
   25MOL   H65323261   5.161   5.450   0.515  0.4720  0.7798  1.4102
   25MOL   H65423262   5.199   5.685   0.598 -0.8611  0.3446  0.2952
   25MOL   H65523263   5.043   5.665   0.536 -0.7234 -3.4832 -0.4491
   25MOL   H65623264   5.356   6.128   0.433 -1.0507  0.7102  0.1246
   25MOL   H65723265   5.389   6.266   0.236  1.5675 -0.2356 -0.2818
   25MOL   H65823266   5.218   5.970   7.959 -1.0596 -1.5479  0.7749
   25MOL   H65923267   5.188   5.820   0.177 -0.5421  0.6651 -0.7174
   25MOL   O66023268   5.362   6.260   7.717 -0.9020  0.2787  0.5080
   25MOL   C66123269   5.496   6.304   7.708 -0.5840  0.1013  0.2733
   25MOL   C66223270   5.597   6.192   7.670 -0.5574 -0.1599  0.6980
   25MOL   C66323271   5.558   6.129   7.528  0.5237  0.4316 -0.4583
   25MOL   C66423272   5.655   6.014   7.482 -0.3180  0.7658 -0.7183
   25MOL   C66523273   5.627   5.961   7.344  0.4796  0.0642  0.0110
   25MOL   C66623274   5.489   5.905   7.335 -0.8712 -0.1246 -0.7542
   25MOL   C66723275   5.496   5.807   7.223 -0.0208  0.2504 -0.1536
   25MOL   C66823276   5.367   5.729   7.202 -0.1697 -0.6977  0.1413
   25MOL   C66923277   5.346   5.670   7.060  0.2660  0.2538 -0.4952
   25MOL   C67023278   5.220   5.576   7.060  0.1833  0.4979  0.2474
   25MOL   O67123279   5.227   5.510   6.945 -0.1201  0.1986  0.4738
   25MOL   C67223280   5.150   5.406   6.910  0.9747 -0.4971 -0.4889
   25MOL   O67323281   5.066   5.354   6.985  0.0262  0.2824  0.2510
   25MOL   C67423282   5.187   5.354   6.777  0.5703  0.8713 -0.3469
   25MOL   C67523283   5.127   5.232   6.736 -0.3083  0.6143  0.2685
   25MOL   C67623284   5.161   5.180   6.614 -0.5298 -0.4791 -0.0244
   25MOL   C67723285   5.260   5.243   6.533 -0.0057  0.1785  0.1439
   25MOL   C67823286   5.304   5.163   6.409 -0.1034 -0.0733 -0.2917
   25MOL   O67923287   5.224   5.099   6.338  0.5793  0.4263  0.0024
   25MOL   O68023288   5.437   5.168   6.400 -0.3469 -0.0328 -0.5523
   25MOL   C68123289   5.322   5.363   6.575  0.8485 -0.0879  0.5237
   25MOL   C68223290   5.282   5.422   6.695 -0.1741  0.2517  0.3794
   25MOL   H68323291   5.497   6.377   7.627  0.8042  0.4559  0.5882
   25MOL   H68423292   5.524   6.345   7.805 -2.5907 -0.9097  1.2882
   25MOL   H68523293   5.595   6.114   7.746  1.0856 -3.0639 -2.1431
   25MOL   H68623294   5.699   6.231   7.678 -0.2576 -1.0463  1.3131
   25MOL   H68723295   5.461   6.084   7.548  0.4558  0.1341 -1.4480
   25MOL   H68823296   5.550   6.213   7.459 -0.6650  0.5122 -0.2196
   25MOL   H68923297   5.659   5.928   7.549  0.3148  1.2100 -0.1846
   25MOL   H69023298   5.757   6.052   7.479  0.0727  0.1169  2.8050
   25MOL   H69123299   5.662   6.035   7.272  0.9136 -0.6490 -0.5164
   25MOL   H69223300   5.704   5.885   7.336  1.7130  0.8975  3.3709
   25MOL   H69323301   5.447   5.858   7.424 -1.8267  0.2386 -0.9972
   25MOL   H69423302   5.425   5.986   7.297 -1.0032 -0.1293 -0.5412
   25MOL   H69523303   5.522   5.850   7.127  0.6735 -1.1081 -0.5848
   25MOL   H69623304   5.575   5.736   7.247 -0.5604  0.2831  1.7968
   25MOL   H69723305   5.364   5.641   7.266  1.7650 -2.1960 -1.7512
   25MOL   H69823306   5.277   5.785   7.225 -0.2627 -1.7615  2.5612
   25MOL   H69923307   5.436   5.615   7.032 -0.3361  0.2433 -2.4412
   25MOL   H70023308   5.344   5.742   6.979 -0.8525 -1.4232 -1.9931
   25MOL   H70123309   5.128   5.632   7.078 -0.4097 -0.1586 -0.7340
   25MOL   H70223310   5.231   5.505   7.142 -0.2677 -0.5827 -0.6206
   25MOL   H70323311   5.062   5.173   6.799 -0.0384  2.2834  2.1641
   25MOL   H70423312   5.123   5.083   6.588  2.2901 -1.2816 -1.3450
   25MOL   H70523313   5.397   5.406   6.510 -0.5649 -1.1164 -1.8653
   25MOL   H70623314   5.333   5.510   6.732  0.8830 -0.6823  1.1629
   25MOL   O70723315   5.487   5.061   6.315  0.0607 -0.1127  0.0115
   25MOL   C70823316   5.524   4.942   6.395  0.0143 -0.2529  0.4683
   25MOL   C70923317   5.674   4.957   6.427 -0.5701 -0.7151 -0.1725
   25MOL   C71023318   5.730   4.818   6.470  0.1367  0.3956  0.2076
   25MOL   C71123319   5.666   4.756   6.601 -0.4150  0.2043  0.5875
   25MOL   C71223320   5.695   4.849   6.721 -0.1388 -0.9311 -0.0087
   25MOL   C71323321   5.837   4.847   6.769 -0.6176  0.1968  0.1016
   25MOL   C71423322   5.845   4.912   6.906 -0.8926  0.3162  0.5999
   25MOL   C71523323   5.778   4.823   7.017  0.2063  0.3072 -0.1134
   25MOL   C71623324   5.749   4.895   7.147  0.7768 -1.2747 -0.2218
   25MOL   C71723325   5.872   4.919   7.235 -0.5872  0.6682 -0.0723
   25MOL   O71823326   5.837   4.983   7.350  1.2129 -0.1252 -0.1412
   25MOL   C71923327   5.856   4.923   7.473 -0.2863 -0.5527 -0.8127
   25MOL   O72023328   5.901   4.811   7.490 -0.1234  1.0274  0.4416
   25MOL   C72123329   5.821   5.017   7.586  0.8020 -0.4156 -0.3064
   25MOL   C72223330   5.748   5.138   7.561 -0.2289 -0.1361 -1.3018
   25MOL   C72323331   5.708   5.221   7.663  0.0145 -0.2153  0.0610
   25MOL   C72423332   5.740   5.191   7.801 -0.7120  0.3067 -0.1186
   25MOL   C72523333   5.703   5.281   7.915 -0.1560  0.8749 -0.1942
   25MOL   O72623334   5.641   5.390   7.897 -0.3799  0.3659  0.1905
   25MOL   O72723335   5.741   5.230   0.064 -0.6492 -0.1056  0.5442
   25MOL   C72823336   5.802   5.065   7.824 -0.5005  0.1210  0.0742
   25MOL   C72923337   5.840   4.980   7.721  0.3482 -0.3403  0.1881
   25MOL   H73023338   5.465   4.937   6.486  0.6828 -3.2081  0.8009
   25MOL   H73123339   5.508   4.849   6.339 -1.4315 -1.1254  2.2971
   25MOL   H73223340   5.683   5.027   6.510 -0.6676 -3.5077  2.2942
   25MOL   H73323341   5.728   5.001   6.343 -2.4418 -0.9166 -1.5096
   25MOL   H73423342   5.703   4.755   6.386  1.9203  1.4217 -1.1563
   25MOL   H73523343   5.839   4.814   6.477  0.1321 -0.3366 -0.1126
   25MOL   H73623344   5.700   4.653   6.609 -2.5491 -0.5891 -0.2938
   25MOL   H73723345   5.558   4.751   6.583 -0.4671  1.2652  0.5831
   25MOL   H73823346   5.666   4.953   6.708 -0.0430 -1.1126 -1.8404
   25MOL   H73923347   5.618   4.829   6.796 -0.3490 -1.1396 -0.2786
   25MOL   H74023348   5.874   4.745   6.762 -0.5897  0.2656 -0.7519
   25MOL   H74123349   5.898   4.907   6.701 -1.3448  0.9562  0.1029
   25MOL   H74223350   5.950   4.928   6.934  0.3605 -0.4614 -3.4251
   25MOL   H74323351   5.812   5.016   6.905  1.1311  0.9731  0.1757
   25MOL   H74423352   5.684   4.777   6.985  1.5417 -1.0938 -2.1550
   25MOL   H74523353   5.848   4.741   7.032  2.7392  2.6843  1.3889
   25MOL   H74623354   5.672   4.843   7.204  0.0353 -0.6126 -0.5967
   25MOL   H74723355   5.693   4.981   7.111 -0.7443 -1.6701  1.1524
   25MOL   H74823356   5.940   4.984   7.181 -1.0831  0.3398 -1.1124
   25MOL   H74923357   5.918   4.823   7.258 -0.2305  0.5246 -1.3540
   25MOL   H75023358   5.709   5.159   7.462 -1.7252 -1.0865 -0.9303
   25MOL   H75123359   5.646   5.306   7.642 -1.9788 -1.4633  0.7121
   25MOL   H75223360   5.842   5.045   7.922 -0.3151  1.1479  0.2073
   25MOL   H75323361   5.907   4.897   7.734  0.5173 -0.3198 -0.5438
   25MOL   O75423362   5.711   5.320   0.175  0.1449  0.1779 -0.1142
   25MOL   C75523363   5.584   5.298   0.233  0.5133  0.3369 -0.1130
   25MOL   C75623364   5.592   5.368   0.374  0.1296  0.4469 -0.3065
   25MOL   C75723365   5.697   5.306   0.473 -0.7445  0.0053  0.7221
   25MOL   C75823366   5.696   5.365   0.610  0.1468  0.1899 -0.4060
   25MOL   C75923367   5.797   5.282   0.700  0.1790  0.5690 -0.0553
   25MOL   C76023368   5.810   5.340   0.842  0.3007 -0.9972 -0.1784
   25MOL   C76123369   5.894   5.474   0.843  0.7002  0.1084 -0.3638
   25MOL   C76223370   5.918   5.527   0.986  0.3071 -0.2307 -0.2105
   25MOL   C76323371   5.967   5.672   0.979 -0.1144  0.5786  0.5000
   25MOL   C76423372   5.986   5.752   1.118 -0.6424  0.4099  0.5355
   25MOL   O76523373   6.075   5.859   1.092  1.1533  0.1891 -0.0938
   25MOL   C76623374   6.031   5.971   1.047 -0.4744  0.7216 -0.3723
   25MOL   O76723375   5.912   5.997   1.016 -0.0432  0.0289 -0.4693
   25MOL   C76823376   6.134   6.081   1.065  0.4359 -0.2164  0.2383
   25MOL   C76923377   6.273   6.051   1.069  0.3609  0.0881 -0.5280
   25MOL   C77023378   6.365   6.147   1.114 -0.3139  0.2074 -0.4983
   25MOL   C77123379   6.324   6.283   1.131  0.0785 -0.8306  0.5458
   25MOL   C77223380   6.421   6.387   1.167 -0.0368 -0.5925  0.5558
   25MOL   O77323381   6.545   6.362   1.164 -0.0970 -0.0835  0.9362
   25MOL   O77423382   6.368   6.504   1.204 -0.3753  0.5220  0.0942
   25MOL   C77523383   6.184   6.318   1.114 -0.1384  0.4308 -0.0994
   25MOL   C77623384   6.093   6.214   1.091  0.7906  0.0154 -0.5173
   25MOL   H77723385   5.507   5.354   0.180 -2.4390 -3.2414  0.1600
   25MOL   H77823386   5.550   5.195   0.228  1.2535  0.0623  0.3757
   25MOL   H77923387   5.492   5.372   0.418  0.5119 -2.2893  0.9129
   25MOL   H78023388   5.629   5.468   0.353  1.2423  0.5797  2.2050
   25MOL   H78123389   5.677   5.199   0.480 -0.8561 -0.0558 -0.3689
   25MOL   H78223390   5.792   5.315   0.420  0.9120  1.9072  3.8930
   25MOL   H78323391   5.593   5.366   0.645 -0.0092 -0.0088 -0.8520
   25MOL   H78423392   5.725   5.469   0.601 -0.4868  0.2155 -2.4276
   25MOL   H78523393   5.773   5.176   0.703 -3.1871  1.3099  1.8861
   25MOL   H78623394   5.893   5.294   0.651  0.4658  2.0325  0.8435
   25MOL   H78723395   5.715   5.347   0.895  0.7132  1.3014  0.2982
   25MOL   H78823396   5.869   5.262   0.890 -0.6067 -2.1858 -0.9826
   25MOL   H78923397   5.980   5.468   0.776 -0.4191  2.4849 -2.1088
   25MOL   H79023398   5.833   5.543   0.784 -0.9980 -1.8749 -1.0077
   25MOL   H79123399   5.833   5.528   1.056  1.1201  0.6987  0.7863
   25MOL   H79223400   5.989   5.453   1.022  1.7174  1.1087 -0.1698
   25MOL   H79323401   5.896   5.730   0.921  0.6586  1.0382  0.0018
   25MOL   H79423402   6.059   5.683   0.921 -1.0046  1.9815 -0.6581
   25MOL   H79523403   6.027   5.692   1.200  0.0692 -1.0628 -0.8698
   25MOL   H79623404   5.894   5.798   1.155 -1.2154 -0.4860  0.2577
   25MOL   H79723405   6.309   5.951   1.048  1.4400  1.0479 -3.6323
   25MOL   H79823406   6.469   6.126   1.139  0.1545  3.3490  0.4632
   25MOL   H79923407   6.158   6.422   1.131  0.2606  0.5471 -0.2006
   25MOL   H80023408   5.988   6.239   1.095  0.7771 -0.2730  1.3452
   25MOL   O80123409   6.465   6.602   1.261 -0.0532  0.3714 -0.2639
   25MOL   C80223410   6.482   6.591   1.407 -0.3372  0.0699 -0.3179
   25MOL   C80323411   6.537   6.726   1.459 -0.3461 -0.2801 -0.2400
   25MOL   C80423412   6.548   6.727   1.608 -0.2502  0.1919  0.7917
   25MOL   C80523413   6.607   6.864   1.653 -0.2240  0.1479  0.7090
   25MOL   C80623414   6.760   6.872   1.632  0.7265  0.1659  0.0773
   25MOL   C80723415   6.815   7.014   1.653  0.1462 -0.2537  0.2432
   25MOL   C80823416   6.963   7.018   1.653 -0.0924  0.0721  0.1573
   25MOL   C80923417   7.029   7.129   1.733  0.5008 -0.9905  0.5877
   25MOL   C81023418   7.016   7.263   1.676  0.0683 -0.0447 -0.2254
   25MOL   C81123419   7.110   7.372   1.740  0.1189 -0.4669  0.6698
   25MOL   O81223420   7.070   7.504   1.700 -0.1190 -0.5816 -0.5294
   25MOL   C81323421   7.086   7.607   1.778 -0.0339 -0.0572 -0.1738
   25MOL   O81423422   7.133   7.600   1.895  0.0032 -0.1554 -0.2334
   25MOL   C81523423   7.051   7.738   1.708 -0.6180  0.0103 -0.1348
   25MOL   C81623424   7.026   7.749   1.566 -1.0196  0.2405  0.3224
   25MOL   C81723425   7.000   7.872   1.510  1.0348 -0.4186 -0.8165
   25MOL   C81823426   6.984   0.009   1.599 -0.2459 -0.2358 -0.1351
   25MOL   C81923427   6.939   0.137   1.532 -0.5533  0.3725  0.9881
   25MOL   O82023428   6.928   0.141   1.408  0.1385  0.3557 -0.5989
   25MOL   O82123429   6.911   0.236   1.615 -0.1741 -0.1726 -0.2072
   25MOL   C82223430   7.008   7.973   1.735  0.2818  0.1618 -0.4045
   25MOL   C82323431   7.046   7.849   1.789 -0.3463  0.2757 -0.2669
   25MOL   H82423432   6.387   6.562   1.450  0.1491 -2.1425 -0.6672
   25MOL   H82523433   6.551   6.508   1.427 -0.3202 -0.4439 -2.3893
   25MOL   H82623434   6.470   6.806   1.427 -0.1159  0.2988  0.7125
   25MOL   H82723435   6.627   6.750   1.403 -0.7794 -1.8640 -1.6543
   25MOL   H82823436   6.460   6.699   1.665 -0.0873 -2.2140 -0.0857
   25MOL   H82923437   6.615   6.648   1.641  0.8918  0.3745 -0.9822
   25MOL   H83023438   6.594   6.887   1.759 -0.8650 -0.3426  0.7438
   25MOL   H83123439   6.571   6.955   1.605  1.3028 -0.0197 -0.7834
   25MOL   H83223440   6.814   6.805   1.698  2.3031  2.9494  1.7109
   25MOL   H83323441   6.783   6.830   1.534 -0.6407 -2.6720  0.9166
   25MOL   H83423442   6.781   7.079   1.573 -0.4277 -0.5863  0.2124
   25MOL   H83523443   6.781   7.046   1.752  3.2952 -1.4457  1.8002
   25MOL   H83623444   7.002   6.927   1.698  0.3022 -0.1228 -0.5738
   25MOL   H83723445   7.005   7.009   1.553 -0.6801  3.3828 -0.4221
   25MOL   H83823446   6.999   7.117   1.837  0.4606  1.1988  0.8406
   25MOL   H83923447   7.130   7.093   1.752  1.0302  0.3211  0.2832
   25MOL   H84023448   6.918   7.307   1.693  0.0006 -0.0224 -0.6789
   25MOL   H84123449   7.024   7.265   1.568 -0.7030  0.7959 -0.2789
   25MOL   H84223450   7.212   7.353   1.706  0.1516  0.1981  0.3831
   25MOL   H84323451   7.109   7.356   1.848 -3.7278 -1.1546  0.6007
   25MOL   H84423452   7.017   7.657   1.510  0.4854 -0.0541  0.5564
   25MOL   H84523453   6.971   7.886   1.407 -1.7171 -2.0452 -0.3241
   25MOL   H84623454   7.006   0.086   1.794  1.2787  1.1443 -1.8455
   25MOL   H84723455   7.066   7.849   1.896 -0.0616  1.4303 -0.3216
   25MOL   O84823456   6.855   0.354   1.539  0.3250 -0.3250  0.3877
   25MOL   C84923457   6.711   0.343   1.528 -0.2310  0.4143  0.3562
   25MOL   C85023458   6.628   0.414   1.637 -0.4270 -0.9059 -0.5425
   25MOL   C85123459   6.663   0.355   1.775  0.0723 -0.4818  0.5093
   25MOL   C85223460   6.641   0.210   1.805 -1.2518  0.7372  0.3971
   25MOL   C85323461   6.489   0.181   1.815  1.0332  0.5010  0.0011
   25MOL   C85423462   6.450   0.035   1.853 -0.7848 -0.2193 -0.3266
   25MOL   C85523463   6.301   0.013   1.860  0.1492  0.5922 -0.8601
   25MOL   C85623464   6.252   7.851   1.888 -0.6212 -0.0265  0.0034
   25MOL   C85723465   6.276   7.795   2.034 -0.5508 -0.3758 -0.3480
   25MOL   C85823466   6.188   7.859   2.144  0.7966 -0.0443  0.0345
   25MOL   O85923467   6.054   7.834   2.117  0.0845  0.4182  0.0434
   25MOL   C86023468   5.966   7.787   2.215  0.9181  0.1071  0.0866
   25MOL   O86123469   6.002   7.749   2.322 -0.1746 -0.7573 -0.3278
   25MOL   C86223470   5.827   7.794   2.169  0.0585  0.4416 -0.0015
   25MOL   C86323471   5.788   7.893   2.079  0.2016  0.1018  0.0285
   25MOL   C86423472   5.653   7.889   2.031  0.7324  0.5119  0.0141
   25MOL   C86523473   5.559   7.794   2.080 -0.4207 -0.1559  0.4829
   25MOL   C86623474   5.418   7.795   2.031  0.3290 -0.0056  0.0156
   25MOL   O86723475   5.345   7.696   2.034 -0.2297 -0.6275 -0.2542
   25MOL   O86823476   5.370   7.916   1.991 -0.6083 -0.0061  0.4603
   25MOL   C86923477   5.596   7.704   2.181 -0.3771 -0.4091 -0.0825
   25MOL   C87023478   5.732   7.705   2.218  0.3434 -0.3045  0.3828
   25MOL   H87123479   6.699   0.384   1.428 -0.6076 -0.8365 -0.1284
   25MOL   H87223480   6.668   0.242   1.529  0.1547  0.2301 -1.2485
   25MOL   H87323481   6.523   0.390   1.620  0.0974 -2.2154 -2.0351
   25MOL   H87423482   6.653   0.520   1.636  0.6399 -1.1551 -0.6349
   25MOL   H87523483   6.764   0.381   1.806  0.2207 -0.2558 -0.1445
   25MOL   H87623484   6.595   0.404   1.844  1.4908  2.0899  0.1445
   25MOL   H87723485   6.690   0.179   1.897  0.0110  1.1422 -0.1240
   25MOL   H87823486   6.673   0.155   1.717 -0.3473  0.8101  0.6728
   25MOL   H87923487   6.444   0.233   1.899  0.5417  0.5667 -0.2989
   25MOL   H88023488   6.432   0.222   1.731  2.3725 -1.2608 -1.8193
   25MOL   H88123489   6.495   7.950   1.776  0.5272  0.8230 -0.4175
   25MOL   H88223490   6.505   0.015   1.945  0.4980 -1.4862 -1.3374
   25MOL   H88323491   6.245   0.077   1.928  1.4307  0.0545  0.7383
   25MOL   H88423492   6.260   0.042   1.763 -0.1364  0.9728 -0.6267
   25MOL   H88523493   6.148   7.829   1.869 -0.6617 -1.4311  1.6937
   25MOL   H88623494   6.309   7.781   1.827 -2.1925 -0.8901 -0.4978
   25MOL   H88723495   6.379   7.808   2.065 -1.0296  0.4837  0.9073
   25MOL   H88823496   6.263   7.688   2.021 -0.1210 -0.6437  1.3692
   25MOL   H88923497   6.197   7.965   2.165  1.1533 -0.1191  0.2531
   25MOL   H89023498   6.216   7.809   2.237 -0.4653  0.5197  0.7325
   25MOL   H89123499   5.860   7.960   2.036 -0.3028  0.7509  0.1845
   25MOL   H89223500   5.631   7.961   1.953  1.5903 -0.4441 -1.1216
   25MOL   H89323501   5.519   7.644   2.227  0.0079 -0.1314  0.9377
   25MOL   H89423502   5.765   7.638   2.296 -1.1088  0.8868  2.0555
   25MOL   O89523503   5.223   7.916   1.970  0.1652  0.6499 -0.3506
   25MOL   C89623504   5.186   7.879   1.837 -0.0269 -0.3399  0.4892
   25MOL   C89723505   5.267   7.975   1.734 -0.6508  0.1937 -0.6518
   25MOL   C89823506   5.200   0.134   1.716 -0.0131  0.2010 -0.1908
   25MOL   C89923507   5.283   0.225   1.624 -0.4817 -0.7813  0.0089
   25MOL   C90023508   5.214   0.354   1.581  0.7751 -0.0637 -0.4222
   25MOL   C90123509   5.090   0.332   1.484  0.3163 -0.2373 -0.2525
   25MOL   C90223510   5.000   0.455   1.444  0.0451  0.2754 -0.7500
   25MOL   C90323511   4.881   0.483   1.537 -0.2891 -0.4828 -0.2423
   25MOL   C90423512   4.808   0.616   1.505 -0.0157  0.3958 -0.3336
   25MOL   C90523513   4.708   0.625   1.382 -0.0662  0.6395 -0.1220
   25MOL   O90623514   4.621   0.742   1.380 -0.2656 -0.4415  0.7542
   25MOL   C90723515   4.608   0.813   1.267  0.8399 -0.1451  0.0520
   25MOL   O90823516   4.689   0.802   1.174 -0.5994 -0.4426 -0.7733
   25MOL   C90923517   4.490   0.908   1.270 -0.0497  0.5149  0.3536
   25MOL   C91023518   4.416   0.918   1.385  0.1121  0.7317  1.2406
   25MOL   C91123519   4.305   1.008   1.387 -0.1575  0.0784  0.0930
   25MOL   C91223520   4.283   1.101   1.283 -0.1881 -0.0107  0.6466
   25MOL   C91323521   4.168   1.198   1.300  0.0456  0.0002  0.6813
   25MOL   O91423522   4.137   1.244   1.406 -0.0664 -0.0780 -0.2535
   25MOL   O91523523   4.105   1.234   1.182  0.1323 -0.4173  0.0457
   25MOL   C91623524   4.365   1.094   1.166 -0.7697 -0.8635  0.5574
   25MOL   C91723525   4.469   0.999   1.159  0.1520 -0.0427 -0.3686
   25MOL   H91823526   5.217   7.776   1.816 -1.0202 -0.5272 -0.0805
   25MOL   H91923527   5.078   7.881   1.827 -0.0110  0.8693  0.5347
   25MOL   H92023528   5.267   7.925   1.637 -2.7115 -0.3221 -0.4187
   25MOL   H92123529   5.373   0.004   1.755 -0.4977 -2.5480 -0.3145
   25MOL   H92223530   5.106   0.113   1.665 -0.8314  1.7935  0.6222
   25MOL   H92323531   5.180   0.174   1.816  1.8852 -0.4514  0.4703
   25MOL   H92423532   5.289   0.172   1.529 -0.0782  0.9591 -0.9612
   25MOL   H92523533   5.381   0.234   1.671 -0.9410  1.9710  0.5323
   25MOL   H92623534   5.181   0.417   1.664  1.2484 -1.7372  1.0827
   25MOL   H92723535   5.280   0.421   1.527  0.8694 -0.1282 -0.3856
   25MOL   H92823536   5.138   0.295   1.393 -0.7681  3.8625 -2.6218
   25MOL   H92923537   5.027   0.254   1.525 -0.1860 -1.8496 -3.8427
   25MOL   H93023538   5.069   0.539   1.437 -0.2761  0.5961 -0.1552
   25MOL   H93123539   4.956   0.443   1.345 -1.5445  0.2206 -0.0463
   25MOL   H93223540   4.809   0.403   1.547  0.9762 -1.9132 -2.1701
   25MOL   H93323541   4.925   0.505   1.634  0.0979  1.6744 -0.8695
   25MOL   H93423542   4.876   0.695   1.474  1.1565 -0.0768  1.0033
   25MOL   H93523543   4.752   0.644   1.594 -0.8907 -0.2348 -0.6790
   25MOL   H93623544   4.647   0.537   1.399  0.0883  0.7143  0.8649
   25MOL   H93723545   4.766   0.603   1.293  2.3518 -2.1154  2.0175
   25MOL   H93823546   4.439   0.857   1.471  0.6972 -0.2110  0.4309
   25MOL   H93923547   4.237   1.009   1.472 -1.6874 -2.7558 -1.0329
   25MOL   H94023548   4.336   1.167   1.093 -0.1285 -1.5300 -0.3748
   25MOL   H94123549   4.529   0.998   1.069 -0.5253  1.5974 -0.8532
   25MOL   H94223550   4.033   1.295   1.187 -1.2986 -2.1314  0.8180
   26MOL     O123551   6.782   1.243   3.911  0.6269 -0.4444 -0.0615
   26MOL     C223552   6.906   1.241   3.847  0.2531 -0.4939  1.3129
   26MOL     C323553   7.015   1.187   3.940 -0.4794 -0.0404  0.1258
   26MOL     C423554   7.044   1.270   4.068  0.2217  0.7399  0.3934
   26MOL     C523555   7.159   1.219   4.138 -0.3160 -0.1045 -0.8348
   26MOL     C623556   7.187   1.299   4.269  0.9262  0.1829  0.3680
   26MOL     C723557   7.299   1.256   4.364  0.4824 -0.1203 -0.2400
   26MOL     C823558   7.330   1.363   4.470 -0.0510 -0.6564  0.8009
   26MOL     C923559   7.473   1.366   4.519 -0.0522  0.3933 -0.1954
   26MOL    C1023560   7.510   1.474   4.616 -0.1402 -0.1737  0.3144
   26MOL    C1123561   7.547   1.606   4.544 -0.1815 -0.0486  0.4975
   26MOL    O1223562   7.546   1.714   4.638 -0.7070 -0.3487  0.6837
   26MOL    C1323563   7.459   1.813   4.641  0.0572  0.2563 -0.0293
   26MOL    O1423564   7.371   1.816   4.558 -0.1192  0.5426  0.0343
   26MOL    C1523565   7.478   1.906   4.750  0.2334  0.2402  0.4244
   26MOL    C1623566   7.569   1.884   4.853 -0.0864  0.9877  0.1725
   26MOL    C1723567   7.598   1.983   4.949 -0.6205 -0.2601 -0.2069
   26MOL    C1823568   7.529   2.108   4.938  0.0412  0.0111 -0.4200
   26MOL    C1923569   7.564   2.220   5.024 -0.9029 -0.5034 -0.1991
   26MOL    O2023570   7.617   2.203   5.133 -0.5515  0.4435  0.2466
   26MOL    O2123571   7.517   2.331   4.967  0.0044  0.4814  0.2086
   26MOL    C2223572   7.428   2.125   4.842 -0.8135  0.1712  0.1515
   26MOL    C2323573   7.407   2.031   4.746  0.4089  0.2859 -0.1149
   26MOL    H2423574   6.904   1.179   3.758  2.0986  1.0697  0.1268
   26MOL    H2523575   6.925   1.340   3.806 -0.5345 -1.4377 -1.4349
   26MOL    H2623576   7.105   1.163   3.885  1.6648 -0.9773  3.8708
   26MOL    H2723577   6.978   1.089   3.972 -2.1574  1.0654  1.6943
   26MOL    H2823578   7.059   1.375   4.042  1.2881  0.3936 -0.4645
   26MOL    H2923579   6.957   1.280   4.132 -0.3494  0.2931 -0.3004
   26MOL    H3023580   7.245   1.231   4.073  0.6288 -0.3726  0.3488
   26MOL    H3123581   7.147   1.113   4.158 -0.9803  0.4213  1.7393
   26MOL    H3223582   7.197   1.405   4.244  2.2655  0.1642  0.7921
   26MOL    H3323583   7.097   1.304   4.331 -0.7998  0.8289 -2.1232
   26MOL    H3423584   7.266   1.163   4.410  0.9054  0.4618  1.3121
   26MOL    H3523585   7.389   1.238   4.306  1.4569  0.5685  1.0245
   26MOL    H3623586   7.295   1.458   4.430 -0.8225 -1.1495  0.2758
   26MOL    H3723587   7.263   1.338   4.552  1.3455 -1.1935  1.7952
   26MOL    H3823588   7.476   1.268   4.567 -1.4396 -0.1804 -1.2374
   26MOL    H3923589   7.543   1.369   4.435  0.0249 -1.6662 -0.2318
   26MOL    H4023590   7.596   1.448   4.679 -0.0377  0.3175  0.3770
   26MOL    H4123591   7.423   1.485   4.681  0.7531 -1.8543  1.8635
   26MOL    H4223592   7.476   1.623   4.464 -1.5590  0.3980  1.7790
   26MOL    H4323593   7.639   1.605   4.487 -0.6971  0.2030 -0.3438
   26MOL    H4423594   7.624   1.792   4.843  1.8837  2.3122 -1.4856
   26MOL    H4523595   7.671   1.967   5.028 -2.1470  1.3594  1.5907
   26MOL    H4623596   7.367   2.213   4.823 -3.2578 -1.3942  0.5899
   26MOL    H4723597   7.344   2.053   4.662  1.0384 -0.1068 -0.6969
   26MOL    H4823598   6.792   1.301   3.985  0.0286 -1.2149  0.6359
   26MOL    O4923599   7.533   2.455   5.050 -0.5072 -0.0750 -0.3211
   26MOL    C5023600   7.402   2.490   5.083 -0.5779  0.2631 -0.1386
   26MOL    C5123601   7.425   2.624   5.158 -0.0693 -0.5036  0.4775
   26MOL    C5223602   7.452   2.621   5.305 -0.1919  0.1055 -0.2466
   26MOL    C5323603   7.430   2.756   5.378 -0.0856  0.5885 -0.9537
   26MOL    C5423604   7.457   2.740   5.531  0.0274 -0.3550  0.0458
   26MOL    C5523605   7.354   2.658   5.610  0.4470  0.1012 -0.4414
   26MOL    C5623606   7.212   2.725   5.599 -1.0987 -0.0038  0.0684
   26MOL    C5723607   7.110   2.677   5.698 -0.4210  0.8061 -0.0076
   26MOL    C5823608   7.068   2.536   5.666 -0.4440  0.8023 -0.4087
   26MOL    C5923609   7.018   2.453   5.786 -0.5486 -0.1669 -0.3449
   26MOL    O6023610   6.975   2.326   5.736 -0.0578  0.0386  0.0132
   26MOL    C6123611   6.949   2.224   5.828 -0.3275  0.0574 -0.8073
   26MOL    O6223612   6.969   2.240   5.946 -0.1354  0.0087  0.4047
   26MOL    C6323613   6.905   2.103   5.759 -0.8435  0.0549 -0.5263
   26MOL    C6423614   6.903   2.093   5.617  0.1768  0.0897 -0.2478
   26MOL    C6523615   6.834   1.983   5.564  0.1395  0.3431 -0.6155
   26MOL    C6623616   6.788   1.873   5.639 -0.9714  0.0759 -0.2955
   26MOL    C6723617   6.732   1.746   5.581 -0.6209  0.3672 -0.0908
   26MOL    O6823618   6.709   1.643   5.645  0.7328 -0.1060  0.0942
   26MOL    O6923619   6.706   1.762   5.452 -0.4550  0.6641  0.0531
   26MOL    C7023620   6.791   1.881   5.786  0.2601 -0.2069  0.3665
   26MOL    C7123621   6.854   2.001   5.840 -0.2152  0.7144 -0.1240
   26MOL    H7223622   7.331   2.488   5.001 -2.1278 -2.3054  1.1694
   26MOL    H7323623   7.368   2.417   5.158  1.0591  0.4604  0.8267
   26MOL    H7423624   7.350   2.697   5.129  1.6520  1.0509 -0.1981
   26MOL    H7523625   7.510   2.673   5.110  0.6116 -1.7018  0.4402
   26MOL    H7623626   7.391   2.546   5.355  0.0317  0.6350  0.8352
   26MOL    H7723627   7.551   2.577   5.321 -0.2524 -0.1743 -0.6370
   26MOL    H7823628   7.325   2.779   5.359 -0.4314  1.3685  1.7445
   26MOL    H7923629   7.493   2.832   5.332  0.0510 -0.5428 -2.6793
   26MOL    H8023630   7.559   2.713   5.556 -0.1667 -0.3817  0.8061
   26MOL    H8123631   7.462   2.839   5.575  0.7045 -0.8600  1.1245
   26MOL    H8223632   7.349   2.557   5.569 -0.6948  0.3051 -0.8253
   26MOL    H8323633   7.395   2.655   5.711 -0.1851 -1.4586 -0.2216
   26MOL    H8423634   7.220   2.833   5.589 -0.2774 -0.2121 -1.6538
   26MOL    H8523635   7.170   2.702   5.501 -1.5844 -1.7506  0.6584
   26MOL    H8623636   7.156   2.683   5.796 -3.7140  1.1164  1.6146
   26MOL    H8723637   7.024   2.744   5.708 -1.7861 -1.1326  1.4819
   26MOL    H8823638   7.148   2.480   5.618  0.0401  1.0602  0.0909
   26MOL    H8923639   6.979   2.538   5.603 -1.0722 -1.2250  0.3786
   26MOL    H9023640   6.933   2.502   5.833 -0.0591 -0.7149  1.1274
   26MOL    H9123641   7.096   2.435   5.859  0.3885 -0.6009 -1.4262
   26MOL    H9223642   6.936   2.175   5.554  0.0882 -0.2243 -0.7106
   26MOL    H9323643   6.816   1.963   5.459  0.1991 -0.2614 -0.5103
   26MOL    H9423644   6.755   1.803   5.851  1.3952 -0.5909  0.5330
   26MOL    H9523645   6.852   2.015   5.947 -1.3486 -0.4232  0.0161
   26MOL    O9623646   6.614   1.654   5.398 -0.2676  0.0935 -0.3459
   26MOL    C9723647   6.693   1.544   5.348  1.0300  0.6577 -0.0582
   26MOL    C9823648   6.686   1.550   5.195 -0.6451  0.9252  0.1348
   26MOL    C9923649   6.725   1.419   5.127 -0.3747 -0.4026  0.1299
   26MOL   C10023650   6.722   1.437   4.978  0.3996  0.1290  1.2692
   26MOL   C10123651   6.752   1.307   4.903  0.2469  0.2927  0.5807
   26MOL   C10223652   6.634   1.221   4.878 -0.5536 -0.2133 -0.4736
   26MOL   C10323653   6.658   1.080   4.826  0.1712 -0.0318 -0.3651
   26MOL   C10423654   6.704   0.985   4.947  0.5524 -0.3527  0.3057
   26MOL   C10523655   6.705   0.835   4.914  0.2434  0.1938  0.2889
   26MOL   C10623656   6.744   0.735   5.023  0.0827 -0.1363 -0.7791
   26MOL   O10723657   6.659   0.745   5.130 -0.2480 -0.0356  0.3131
   26MOL   C10823658   6.539   0.686   5.116 -0.1790 -0.6627 -0.0611
   26MOL   O10923659   6.504   0.614   5.022  0.6338 -0.3190 -0.1799
   26MOL   C11023660   6.448   0.726   5.232  0.6255 -0.3088 -0.3547
   26MOL   C11123661   6.492   0.788   5.356 -0.3246 -0.4058 -0.1272
   26MOL   C11223662   6.398   0.820   5.456  0.4930  0.2148 -0.3190
   26MOL   C11323663   6.256   0.787   5.439 -0.0272 -1.0450 -0.3268
   26MOL   C11423664   6.156   0.823   5.540 -0.8878 -0.0893 -0.6569
   26MOL   O11523665   6.035   0.812   5.530 -0.0758  0.0145  0.0445
   26MOL   O11623666   6.207   0.875   5.647  0.8197 -0.3485 -0.6995
   26MOL   C11723667   6.215   0.730   5.322  0.2531 -0.4370  0.0180
   26MOL   C11823668   6.312   0.703   5.222  0.4651 -0.3081  0.2237
   26MOL   H11923669   6.790   1.544   5.397 -0.7610 -0.3606  3.6527
   26MOL   H12023670   6.641   1.450   5.370  1.6279  0.4622  0.5143
   26MOL   H12123671   6.737   1.642   5.165 -2.3953  1.3865 -1.4957
   26MOL   H12223672   6.581   1.572   5.174 -1.1537  0.8315  2.4328
   26MOL   H12323673   6.824   1.396   5.166 -0.4642  1.8301  1.7466
   26MOL   H12423674   6.654   1.338   5.145  0.5960 -1.3524 -0.2640
   26MOL   H12523675   6.799   1.507   4.946 -0.1793 -0.2143 -0.9524
   26MOL   H12623676   6.635   1.495   4.948  1.1294  0.4530 -0.2465
   26MOL   H12723677   6.793   1.325   4.804  1.0858 -0.1158  0.8472
   26MOL   H12823678   6.828   1.247   4.953  1.3693 -1.1203 -2.6385
   26MOL   H12923679   6.583   1.214   4.974 -1.4531 -1.4427 -1.0386
   26MOL   H13023680   6.577   1.267   4.797  0.6985 -1.4963 -2.1282
   26MOL   H13123681   6.568   1.050   4.772 -0.1729 -1.9635  1.2336
   26MOL   H13223682   6.735   1.091   4.749  1.3047  0.2692  0.7817
   26MOL   H13323683   6.802   0.999   4.991  0.3973  0.4468  0.3986
   26MOL   H13423684   6.631   1.000   5.027  1.2691  0.7021  0.7676
   26MOL   H13523685   6.777   0.831   4.833  0.3979  0.6957  0.4002
   26MOL   H13623686   6.608   0.806   4.873  0.5372  0.3496 -0.5236
   26MOL   H13723687   6.840   0.772   5.059 -1.1123 -0.2203  2.6143
   26MOL   H13823688   6.765   0.636   4.980 -1.1223 -0.8592  0.2826
   26MOL   H13923689   6.597   0.812   5.367 -0.0583 -1.1713 -0.9356
   26MOL   H14023690   6.426   0.851   5.556 -1.2581  0.1255  0.2012
   26MOL   H14123691   6.110   0.710   5.307  0.5162 -1.3097 -0.7025
   26MOL   H14223692   6.276   0.660   5.130  1.4349 -2.9288  1.0331
   26MOL   O14323693   6.118   0.886   5.765  0.4627 -0.3228  0.0010
   26MOL   C14423694   6.099   1.021   5.787 -0.3720 -0.5183 -1.0875
   26MOL   C14523695   6.231   1.090   5.826 -0.0088 -0.0402 -0.1878
   26MOL   C14623696   6.207   1.241   5.873  0.6827  0.4788  0.5620
   26MOL   C14723697   6.143   1.281   6.007 -0.4676 -0.3202 -0.4316
   26MOL   C14823698   6.221   1.230   6.128  1.0429 -0.6126  0.2052
   26MOL   C14923699   6.164   1.265   6.263  0.5917  0.2144  0.6468
   26MOL   C15023700   6.261   1.218   6.369  0.6264 -0.4584  0.5150
   26MOL   C15123701   6.246   1.066   6.412 -0.6952 -0.3383 -0.0103
   26MOL   C15223702   6.364   1.006   6.501 -0.5852  0.0015 -0.0014
   26MOL   C15323703   6.354   0.854   6.526 -0.3984 -0.3213 -0.0212
   26MOL   O15423704   6.481   0.811   6.579  0.2061 -0.5857  0.1126
   26MOL   C15523705   6.499   0.779   6.705 -0.3581  0.3549 -0.5696
   26MOL   O15623706   6.414   0.786   6.788 -0.3076  0.0409 -0.0659
   26MOL   C15723707   6.634   0.713   6.728  0.7625  0.3064 -0.3214
   26MOL   C15823708   6.654   0.660   6.858  0.2710 -0.1955 -0.1268
   26MOL   C15923709   6.780   0.605   6.896 -0.5772  0.6955  0.2716
   26MOL   C16023710   6.888   0.621   6.806  0.5033 -0.0433  0.6539
   26MOL   C16123711   7.026   0.577   6.840  0.0366  0.3191 -0.0256
   26MOL   O16223712   7.113   0.553   6.757  0.4654 -0.5978 -0.0073
   26MOL   O16323713   7.049   0.549   6.971 -0.4394  0.0771 -0.2712
   26MOL   C16423714   6.868   0.671   6.677 -0.4891  0.2771  0.0449
   26MOL   C16523715   6.740   0.719   6.637 -0.5853  0.2787 -0.2128
   26MOL   H16623716   6.062   1.075   5.700  1.6955  1.2308 -0.9456
   26MOL   H16723717   6.027   1.029   5.868  1.4528  0.5112  0.4568
   26MOL   H16823718   6.305   1.093   5.746  1.3158  2.8585  1.0839
   26MOL   H16923719   6.263   1.030   5.911  0.1254 -0.4518 -0.5276
   26MOL   H17023720   6.314   1.262   5.874  0.7488  0.1382  0.4148
   26MOL   H17123721   6.155   1.297   5.796 -2.5072 -3.3029 -0.1500
   26MOL   H17223722   6.042   1.243   6.019 -0.4135 -0.9200 -1.8153
   26MOL   H17323723   6.134   1.390   6.010  2.7162 -0.0329  0.6156
   26MOL   H17423724   6.254   1.127   6.119  0.5420 -0.7231 -0.3635
   26MOL   H17523725   6.303   1.301   6.131  0.8022 -0.3416  0.5385
   26MOL   H17623726   6.157   1.373   6.275 -0.9674  0.0493  1.4111
   26MOL   H17723727   6.064   1.224   6.279  1.6356 -2.0227  1.7340
   26MOL   H17823728   6.366   1.233   6.344  0.6406  0.6108  1.1625
   26MOL   H17923729   6.238   1.285   6.452  1.1301  1.0885 -0.5910
   26MOL   H18023730   6.152   1.060   6.466  0.2468  1.0463  1.8124
   26MOL   H18123731   6.238   1.010   6.318  0.5477  2.3077 -1.7447
   26MOL   H18223732   6.360   1.059   6.596  1.5377 -1.3543  0.8854
   26MOL   H18323733   6.457   1.032   6.450 -0.3902 -0.5933  0.0463
   26MOL   H18423734   6.345   0.806   6.428 -2.1749 -3.1117  1.4359
   26MOL   H18523735   6.267   0.818   6.582 -1.5763  0.1786 -1.4854
   26MOL   H18623736   6.569   0.643   6.922 -1.8014 -1.2874 -3.0603
   26MOL   H18723737   6.786   0.564   6.996  1.0188  0.6708  0.1810
   26MOL   H18823738   6.951   0.672   6.609 -2.0804 -1.4766 -1.9833
   26MOL   H18923739   6.731   0.757   6.536  1.0981 -1.1823 -0.9537
   26MOL   O19023740   7.189   0.510   7.013 -0.1868  0.0668  0.0997
   26MOL   C19123741   7.208   0.367   7.009  0.0343 -0.9275  0.5611
   26MOL   C19223742   7.118   0.301   7.109  0.1528  0.2528  0.2043
   26MOL   C19323743   7.134   0.148   7.113 -0.2881  1.4785 -0.5420
   26MOL   C19423744   7.039   0.071   7.002  0.3002  0.2993 -0.5695
   26MOL   C19523745   6.887   0.102   7.023 -0.2495  0.0330 -0.0340
   26MOL   C19623746   6.832   0.184   6.902 -0.3055  0.0103  1.0869
   26MOL   C19723747   6.690   0.235   6.930 -0.4668 -0.0595 -0.3509
   26MOL   C19823748   6.610   0.298   6.817 -0.2703 -0.3856  0.4548
   26MOL   C19923749   6.452   0.311   6.843  0.0770  0.4054  0.3407
   26MOL   C20023750   6.358   0.199   6.795  0.7184  0.3790  0.2643
   26MOL   O20123751   6.394   0.085   6.863  0.2369  0.2935 -0.0928
   26MOL   C20223752   6.322   7.952   6.826 -0.7952 -0.6076  0.0051
   26MOL   O20323753   6.232   7.944   6.741  0.0472  0.2889 -1.1421
   26MOL   C20423754   6.368   7.833   6.888 -0.1641  0.3301  0.1731
   26MOL   C20523755   6.344   7.704   6.831  0.0467  0.2482  0.3526
   26MOL   C20623756   6.384   7.584   6.893 -0.3910 -0.8231  0.1509
   26MOL   C20723757   6.461   7.588   7.012 -0.1455 -0.1795  1.2388
   26MOL   C20823758   6.500   7.460   7.074 -0.4253 -0.0497  0.3601
   26MOL   O20923759   6.442   7.356   7.055  0.2136 -0.1532 -0.6574
   26MOL   O21023760   6.616   7.473   7.148 -0.7219  0.4100 -0.0406
   26MOL   C21123761   6.492   7.715   7.066 -0.5198  0.2373  0.6965
   26MOL   C21223762   6.452   7.831   7.004  0.0288 -0.6033  0.0965
   26MOL   H21323763   7.192   0.328   6.909 -1.1523 -0.3780  0.5264
   26MOL   H21423764   7.315   0.351   7.027  0.7903  1.6600 -1.2571
   26MOL   H21523765   7.015   0.332   7.096  0.0956  0.5471  1.2524
   26MOL   H21623766   7.148   0.338   7.207  1.2541 -0.0373 -0.0181
   26MOL   H21723767   7.239   0.118   7.113 -1.3381 -2.4955  0.8995
   26MOL   H21823768   7.107   0.127   7.216 -0.2507 -1.7382 -1.1170
   26MOL   H21923769   7.064   7.945   7.022 -2.4796  0.0701  2.1094
   26MOL   H22023770   7.067   0.101   6.901 -0.6248 -1.2209 -1.2952
   26MOL   H22123771   6.834   0.007   7.021 -1.9285  0.9583 -0.1729
   26MOL   H22223772   6.886   0.150   7.121  1.9369  2.5267 -1.1460
   26MOL   H22323773   6.890   0.273   6.876  0.6237 -0.1736  2.4505
   26MOL   H22423774   6.832   0.117   6.816 -0.0328  1.8287 -0.3642
   26MOL   H22523775   6.627   0.154   6.967 -1.7453  0.8004 -0.6169
   26MOL   H22623776   6.706   0.305   7.012  1.2738 -0.3149 -0.4604
   26MOL   H22723777   6.653   0.396   6.797 -2.2925  0.2990 -0.5828
   26MOL   H22823778   6.615   0.259   6.715 -1.2903  2.7738 -0.8741
   26MOL   H22923779   6.414   0.402   6.796 -1.0662 -0.8390 -1.2040
   26MOL   H23023780   6.435   0.333   6.948 -1.4538  0.8764  0.0142
   26MOL   H23123781   6.365   0.183   6.688 -3.4336 -1.1342  0.1494
   26MOL   H23223782   6.257   0.239   6.807 -0.2920 -1.6165 -1.4435
   26MOL   H23323783   6.282   7.697   6.743 -1.0900  1.0110  1.0734
   26MOL   H23423784   6.358   7.491   6.844  0.2628 -1.6324  1.3279
   26MOL   H23523785   6.535   7.726   7.164  1.3002 -2.6569  0.2939
   26MOL   H23623786   6.475   7.924   7.054  0.8903 -0.5629 -0.3792
   26MOL   O23723787   6.671   7.343   7.177 -0.5901  0.6002  0.0421
   26MOL   C23823788   6.787   7.327   7.093 -0.1362  0.2103  0.7007
   26MOL   C23923789   6.862   7.191   7.131  0.2769  0.7001 -0.3329
   26MOL   C24023790   7.006   7.180   7.072 -0.5072 -0.3394 -0.1806
   26MOL   C24123791   7.088   7.059   7.126  0.1545  0.0560  0.4837
   26MOL   C24223792   7.226   7.050   7.055  0.1386 -0.4610  0.4172
   26MOL   C24323793   7.221   6.999   6.912  0.3556  0.1199 -0.3866
   26MOL   C24423794   7.363   6.981   6.852 -0.4816  0.2589 -0.0871
   26MOL   C24523795   7.374   6.911   6.721  1.1000  0.6264 -0.0981
   26MOL   C24623796   7.515   6.876   6.667  0.2390  0.2851  0.7215
   26MOL   C24723797   7.517   6.812   6.523 -0.3604  0.2761  0.0685
   26MOL   O24823798   7.469   6.680   6.522  0.2633  0.1680 -0.1136
   26MOL   C24923799   7.441   6.622   6.403 -0.0682  1.1237 -0.2190
   26MOL   O25023800   7.456   6.689   6.300  0.0776 -0.1779  0.3093
   26MOL   C25123801   7.380   6.483   6.410 -0.0128  0.3124 -0.2559
   26MOL   C25223802   7.327   6.414   6.293  0.1982 -0.2703  0.3052
   26MOL   C25323803   7.286   6.279   6.305 -0.4395 -0.9231  0.3194
   26MOL   C25423804   7.269   6.220   6.432 -0.6034  0.2078  0.2578
   26MOL   C25523805   7.189   6.096   6.449  0.2549 -0.8566 -0.1592
   26MOL   O25623806   7.165   6.052   6.562 -0.6544  0.3525 -0.3735
   26MOL   O25723807   7.145   6.038   6.335  0.1391 -0.1766 -0.7125
   26MOL   C25823808   7.310   6.292   6.549 -0.5657  0.7463 -0.1697
   26MOL   C25923809   7.371   6.420   6.534 -1.0673 -0.0360  0.9572
   26MOL   H26023810   6.771   7.348   6.987  3.1597 -0.7060 -0.0405
   26MOL   H26123811   6.856   7.410   7.109 -1.5093  1.9123 -1.8230
   26MOL   H26223812   6.797   7.106   7.106 -0.0297  0.3376  1.6155
   26MOL   H26323813   6.870   7.189   7.240  0.3013 -0.5934 -0.3491
   26MOL   H26423814   7.015   7.192   6.964  0.6466 -2.1021 -0.3093
   26MOL   H26523815   7.048   7.272   7.112 -1.4244  0.3383 -0.7561
   26MOL   H26623816   7.038   6.964   7.112  0.5935  0.0521 -1.1686
   26MOL   H26723817   7.103   7.062   7.234  2.6170 -1.3053  0.2164
   26MOL   H26823818   7.270   7.149   7.053 -0.1323 -0.3272  0.9221
   26MOL   H26923819   7.287   6.982   7.115 -1.5189 -0.2927  2.3766
   26MOL   H27023820   7.178   6.900   6.927  1.6374 -0.8588 -2.9138
   26MOL   H27123821   7.158   7.053   6.840 -3.4840  0.5174  3.0819
   26MOL   H27223822   7.403   7.081   6.835 -0.5591  0.0235 -1.7064
   26MOL   H27323823   7.424   6.928   6.926 -1.6899 -0.3281  0.5024
   26MOL   H27423824   7.325   6.814   6.733 -0.8801  1.7111  0.8911
   26MOL   H27523825   7.323   6.969   6.644  1.9994 -0.7531 -1.7724
   26MOL   H27623826   7.566   6.823   6.748 -1.5592 -1.1094  0.9516
   26MOL   H27723827   7.578   6.965   6.658  0.1980  0.1928 -0.6145
   26MOL   H27823828   7.620   6.808   6.485 -0.4536  0.4556 -0.2056
   26MOL   H27923829   7.464   6.877   6.453  1.5624  1.0447 -0.7166
   26MOL   H28023830   7.324   6.462   6.196  0.3503 -0.1112  0.3787
   26MOL   H28123831   7.251   6.240   6.211 -3.0057 -0.0893  0.8852
   26MOL   H28223832   7.306   6.248   6.647 -0.8179  1.5592  0.1867
   26MOL   H28323833   7.404   6.468   6.625  0.9432 -0.8272  0.6656
   26MOL   O28423834   7.065   5.917   6.359 -0.3670 -0.2314  0.1233
   26MOL   C28523835   6.931   5.960   6.352 -0.1425  0.4166 -0.2540
   26MOL   C28623836   6.828   5.842   6.378 -0.1733  0.1434 -1.0715
   26MOL   C28723837   6.866   5.754   6.499 -0.5019 -0.0271 -0.6220
   26MOL   C28823838   6.760   5.649   6.536  0.7523  0.7033  0.0326
   26MOL   C28923839   6.797   5.540   6.642  0.0306 -0.2651 -0.8087
   26MOL   C29023840   6.805   5.602   6.788  0.0614  0.3667  0.4624
   26MOL   C29123841   6.790   5.486   6.887 -0.1519 -0.0706  0.2037
   26MOL   C29223842   6.807   5.528   7.033 -0.1244 -0.5956 -0.0293
   26MOL   C29323843   6.821   5.415   7.131  0.0962  0.6862  0.4924
   26MOL   C29423844   6.795   5.464   7.277 -0.7331  0.2108 -0.2339
   26MOL   O29523845   6.872   5.578   7.305  0.2391 -0.4223  0.5054
   26MOL   C29623846   6.883   5.626   7.428  0.2758  0.5047  0.0029
   26MOL   O29723847   6.839   5.567   7.529 -0.1067 -0.2944 -0.5427
   26MOL   C29823848   6.950   5.758   7.435  0.3339  0.0221 -0.1981
   26MOL   C29923849   7.018   5.821   7.328  0.0098  0.7320 -0.3049
   26MOL   C30023850   7.068   5.951   7.336  0.0530  0.2406 -0.3461
   26MOL   C30123851   7.062   6.023   7.454  0.2621  0.0823  0.1754
   26MOL   C30223852   7.132   6.159   7.468 -0.3136 -0.3932  0.0333
   26MOL   O30323853   7.156   6.204   7.580 -0.6432  0.1426 -0.5501
   26MOL   O30423854   7.164   6.204   7.343  0.5053 -0.3093 -0.1844
   26MOL   C30523855   7.003   5.959   7.569  0.3016  0.2730  0.2940
   26MOL   C30623856   6.949   5.824   7.562 -0.4520 -0.3375 -0.7351
   26MOL   H30723857   6.920   6.047   6.417 -0.5496  0.5760 -0.5414
   26MOL   H30823858   6.915   6.002   6.253  0.1804 -1.0871 -0.9531
   26MOL   H30923859   6.827   5.778   6.290  0.1179 -0.4929 -0.6154
   26MOL   H31023860   6.730   5.883   6.400  0.0106 -0.5889  1.2066
   26MOL   H31123861   6.959   5.708   6.467 -0.4413  1.2975 -2.4584
   26MOL   H31223862   6.888   5.813   6.588  0.7613 -2.5139  0.7559
   26MOL   H31323863   6.716   5.593   6.454 -0.9179 -0.2183  1.5192
   26MOL   H31423864   6.676   5.700   6.585 -0.3200 -1.0005  0.0104
   26MOL   H31523865   6.718   5.466   6.635 -0.9788  0.5874  1.2437
   26MOL   H31623866   6.889   5.488   6.615  0.4689 -0.5082  1.0514
   26MOL   H31723867   6.899   5.654   6.804  1.3213 -1.7353  0.1594
   26MOL   H31823868   6.720   5.668   6.806 -1.1226 -1.7316  2.8267
   26MOL   H31923869   6.694   5.435   6.878  0.0999 -0.5852  0.4056
   26MOL   H32023870   6.860   5.407   6.859  0.0714  0.3248 -0.3461
   26MOL   H32123871   6.897   5.588   7.048 -0.0038 -0.8402  0.2219
   26MOL   H32223872   6.727   5.597   7.058  0.4229  0.3275 -0.7627
   26MOL   H32323873   6.920   5.374   7.111 -0.3208  0.2816 -0.7599
   26MOL   H32423874   6.741   5.347   7.103  1.2132 -0.5838  0.3184
   26MOL   H32523875   6.813   5.385   7.350 -1.6269  1.7562  1.7175
   26MOL   H32623876   6.691   5.488   7.300 -0.6316  1.6741 -1.2158
   26MOL   H32723877   7.015   5.772   7.232  0.2820 -1.4719  0.7825
   26MOL   H32823878   7.113   5.992   7.247 -0.6779  0.5261 -0.5892
   26MOL   H32923879   7.008   6.003   7.667 -0.3877 -1.0055  0.9153
   26MOL   H33023880   6.904   5.779   7.649  0.9646  0.8450  0.6340
   26MOL   O33123881   7.212   6.348   7.342  0.3780 -0.3629 -0.5219
   26MOL   C33223882   7.100   6.433   7.324 -0.6717  0.3546  0.4680
   26MOL   C33323883   7.126   6.563   7.387 -0.6718 -0.4179  0.6575
   26MOL   C33423884   7.049   6.682   7.318 -0.0814 -0.5186  0.1095
   26MOL   C33523885   6.899   6.661   7.330  0.2615 -0.1403 -0.4979
   26MOL   C33623886   6.812   6.783   7.301  0.9210 -0.2322 -0.1713
   26MOL   C33723887   6.663   6.744   7.288 -0.7888 -0.3949 -0.1465
   26MOL   C33823888   6.580   6.874   7.281  0.2964 -0.5687  0.3242
   26MOL   C33923889   6.424   6.852   7.282  0.3473 -0.3107  0.0268
   26MOL   C34023890   6.339   6.986   7.285 -0.1283  0.1647 -0.0013
   26MOL   C34123891   6.193   6.959   7.273 -0.3392 -0.3349 -0.5888
   26MOL   O34223892   6.148   6.901   7.395  0.3376  0.5571 -0.7219
   26MOL   C34323893   6.019   6.900   7.419 -0.0501 -0.5081  0.0188
   26MOL   O34423894   5.926   6.914   7.339  0.0031  0.3456 -0.2794
   26MOL   C34523895   5.992   6.872   7.564 -0.1338 -0.8632  0.0022
   26MOL   C34623896   5.871   6.904   7.620  1.3451 -0.1955  0.3268
   26MOL   C34723897   5.851   6.901   7.760 -0.4864 -0.3784  0.2399
   26MOL   C34823898   5.960   6.863   7.844  0.3729 -0.0095  0.1077
   26MOL   C34923899   5.935   6.852   0.008  0.1464 -0.5502 -0.2478
   26MOL   O35023900   5.824   6.842   0.060  0.3200 -0.1775 -0.4395
   26MOL   O35123901   6.051   6.844   0.076  0.5905  0.2439 -0.1025
   26MOL   C35223902   6.088   6.832   7.785 -0.3326 -0.6109  0.1226
   26MOL   C35323903   6.104   6.833   7.645  0.0579  0.4350 -0.1148
   26MOL   H35423904   7.088   6.443   7.216  2.0746 -0.6746  0.0258
   26MOL   H35523905   7.003   6.397   7.359 -0.9583  0.4043 -0.2483
   26MOL   H35623906   7.228   6.601   7.385 -1.2374  1.1517  1.0702
   26MOL   H35723907   7.094   6.557   7.491 -0.0447 -0.4581  0.8532
   26MOL   H35823908   7.080   6.774   7.367  0.6756 -0.5040 -0.3969
   26MOL   H35923909   7.077   6.684   7.213  0.4169  1.0603  0.2642
   26MOL   H36023910   6.875   6.621   7.429 -3.0073 -1.3349 -1.7038
   26MOL   H36123911   6.870   6.593   7.249 -2.5891  1.1877 -0.6294
   26MOL   H36223912   6.816   6.858   7.379 -1.8942 -0.7473  0.5221
   26MOL   H36323913   6.855   6.821   7.208  1.2624 -0.7456 -0.2270
   26MOL   H36423914   6.645   6.682   7.200 -0.0424 -2.3335  1.0120
   26MOL   H36523915   6.630   6.684   7.373 -0.5785  1.0723  0.9917
   26MOL   H36623916   6.602   6.936   7.368 -1.8188  0.9118 -0.1490
   26MOL   H36723917   6.611   6.931   7.193  1.0710  0.8221  1.4690
   26MOL   H36823918   6.396   6.790   7.196 -1.6826 -1.1993  1.2858
   26MOL   H36923919   6.408   6.800   7.376 -0.8731 -0.2542 -0.1374
   26MOL   H37023920   6.367   7.054   7.205  0.7929 -1.0938 -0.7721
   26MOL   H37123921   6.362   7.045   7.374 -0.6015 -1.1090  0.9827
   26MOL   H37223922   6.185   6.893   7.187  1.7093 -0.6788 -0.5461
   26MOL   H37323923   6.146   7.055   7.252  1.3141  0.1977 -1.9687
   26MOL   H37423924   5.782   6.924   7.562  1.7641  0.5389 -0.0704
   26MOL   H37523925   5.751   6.924   7.796 -1.6352  0.4283 -3.2507
   26MOL   H37623926   6.176   6.816   7.846  1.7782  1.1590 -2.3589
   26MOL   H37723927   6.201   6.810   7.602 -0.5906  0.8530 -1.8369
   26MOL   O37823928   6.043   6.835   0.221 -0.6270 -0.1748 -0.2101
   26MOL   C37923929   6.072   6.701   0.263  0.3843 -0.4847  0.0823
   26MOL   C38023930   6.104   6.699   0.412 -0.3858 -0.0017  0.5552
   26MOL   C38123931   6.109   6.561   0.483 -0.0982 -0.1169 -0.1266
   26MOL   C38223932   6.179   6.567   0.624 -0.2953  0.0519 -0.1006
   26MOL   C38323933   6.197   6.424   0.684 -0.1192  0.0099  0.4739
   26MOL   C38423934   6.309   6.412   0.795  0.3326 -0.1887 -0.0232
   26MOL   C38523935   6.445   6.380   0.726  0.3700 -0.1339 -0.5061
   26MOL   C38623936   6.553   6.349   0.830 -1.1420  0.0953  0.5101
   26MOL   C38723937   6.694   6.340   0.765 -0.1635  0.0970 -0.0630
   26MOL   C38823938   6.787   6.274   0.868 -0.3444 -0.5319 -0.2051
   26MOL   O38923939   6.920   6.316   0.836 -0.0409  0.2614 -0.4134
   26MOL   C39023940   6.993   6.237   0.759 -0.6937  0.3254 -0.1930
   26MOL   O39123941   6.961   6.127   0.709  0.1521  0.5081  0.2671
   26MOL   C39223942   7.133   6.295   0.731 -0.0852 -0.4583 -0.1554
   26MOL   C39323943   7.241   6.209   0.733  0.1482  0.8225  0.1585
   26MOL   C39423944   7.364   6.270   0.710 -0.0178  0.1156 -0.0939
   26MOL   C39523945   7.386   6.404   0.696  0.1537 -0.0258  0.6210
   26MOL   C39623946   7.515   6.476   0.661 -0.0283  0.9686 -0.1702
   26MOL   O39723947   7.522   6.582   0.607 -0.1836 -0.6877 -0.3456
   26MOL   O39823948   7.623   6.403   0.701 -0.2851  0.1355  0.7802
   26MOL   C39923949   7.273   6.488   0.697 -0.3648  0.6473  0.6642
   26MOL   C40023950   7.145   6.436   0.714  0.3883 -0.6467 -0.1306
   26MOL   H40123951   5.991   6.632   0.239 -2.4532  1.9627  2.2867
   26MOL   H40223952   6.153   6.661   0.201  1.3283  1.3564  0.0811
   26MOL   H40323953   6.024   6.757   0.457  0.4155  0.0675  1.9224
   26MOL   H40423954   6.199   6.748   0.433  0.4581 -1.6721  0.7519
   26MOL   H40523955   6.011   6.515   0.491 -0.7068  1.5065  1.9969
   26MOL   H40623956   6.174   6.497   0.423 -0.6632  0.0803 -0.9615
   26MOL   H40723957   6.125   6.634   0.691 -2.5589 -1.2866 -0.5364
   26MOL   H40823958   6.270   6.624   0.605 -0.0501 -1.1303 -2.5473
   26MOL   H40923959   6.110   6.383   0.736  0.5724 -0.6098  1.1603
   26MOL   H41023960   6.222   6.370   0.592 -0.0258  1.8101 -0.5863
   26MOL   H41123961   6.309   6.498   0.862  0.1208 -0.0432 -0.2133
   26MOL   H41223962   6.294   6.311   0.834 -1.4520  0.7668  1.8331
   26MOL   H41323963   6.439   6.293   0.661  1.7230  0.0122 -0.8419
   26MOL   H41423964   6.487   6.463   0.669 -0.9124 -1.0842 -2.9325
   26MOL   H41523965   6.548   6.421   0.912  0.6727  0.0904  0.6468
   26MOL   H41623966   6.534   6.250   0.871  2.0320 -0.5093  0.6723
   26MOL   H41723967   6.720   6.444   0.748 -1.0364  0.4722  0.8067
   26MOL   H41823968   6.689   6.282   0.673  0.6566 -1.2597  0.7318
   26MOL   H41923969   6.763   6.170   0.892 -1.3003 -0.4097 -0.6033
   26MOL   H42023970   6.774   6.324   0.964  1.9750  1.8223 -1.0590
   26MOL   H42123971   7.227   6.104   0.756 -0.6306  0.9318  0.1694
   26MOL   H42223972   7.453   6.210   0.729 -0.2390  0.1466  1.0718
   26MOL   H42323973   7.282   6.595   0.694 -1.1063  0.6529 -3.2732
   26MOL   H42423974   7.061   6.504   0.711  0.3731 -0.5565  1.8503
   26MOL   O42523975   7.758   6.455   0.671 -0.6112 -0.1295 -0.0695
   26MOL   C42623976   7.802   6.529   0.776  0.0698  0.5491  0.0227
   26MOL   C42723977   7.949   6.565   0.757  1.2617  0.3822 -0.1919
   26MOL   C42823978   0.024   6.688   0.840 -0.5188 -0.7699 -0.3064
   26MOL   C42923979   0.178   6.710   0.802 -0.0169  0.1018  0.5427
   26MOL   C43023980   0.284   6.601   0.843  0.5008  0.0512  0.0540
   26MOL   C43123981   0.291   6.582   0.998 -0.1835 -0.1602  0.5486
   26MOL   C43223982   0.338   6.449   1.045  0.3434 -0.4072  0.2151
   26MOL   C43323983   0.242   6.337   1.017  0.2139  0.1134  0.7004
   26MOL   C43423984   0.109   6.348   1.075  0.1124 -0.2489 -0.0886
   26MOL   C43523985   0.018   6.227   1.055  0.2370 -0.0810  0.3627
   26MOL   O43623986   7.860   6.248   1.093 -0.1879 -0.4906 -0.3578
   26MOL   C43723987   7.770   6.176   1.030 -0.0445  0.0034 -0.6085
   26MOL   O43823988   7.789   6.108   0.930 -0.1413 -0.1482 -0.1553
   26MOL   C43923989   7.631   6.184   1.080 -0.6100 -0.1432 -0.5581
   26MOL   C44023990   7.601   6.259   1.197 -0.0750  0.5488 -0.5498
   26MOL   C44123991   7.472   6.253   1.260 -0.5049 -0.1126 -0.0392
   26MOL   C44223992   7.370   6.178   1.203 -0.5285  0.7937 -0.3884
   26MOL   C44323993   7.240   6.172   1.274 -0.0355  0.5068  0.8266
   26MOL   O44423994   7.223   6.184   1.395 -0.1838 -1.0468 -0.2642
   26MOL   O44523995   7.143   6.162   1.185 -0.0311 -0.1156 -0.4745
   26MOL   C44623996   7.397   6.110   1.080  0.2689 -0.9408  0.1431
   26MOL   C44723997   7.528   6.106   1.025  0.4807  0.4274  0.6726
   26MOL   H44823998   7.743   6.617   0.802 -2.5296 -1.0265 -0.3655
   26MOL   H44923999   7.798   6.455   0.857 -0.7133  1.7230  1.0731
   26MOL   H45024000   7.965   6.590   0.652  2.3417  0.1169 -0.0940
   26MOL   H45124001   0.029   6.476   0.781 -0.1377  0.0676  2.2868
   26MOL   H45224002   7.940   6.770   0.803 -0.5421  0.3134  2.0356
   26MOL   H45324003   0.016   6.685   0.948  0.0636 -1.3918 -0.2788
   26MOL   H45424004   0.207   6.807   0.842  1.2342 -0.1956  0.3876
   26MOL   H45524005   0.187   6.731   0.696  2.0769  1.2409  0.9154
   26MOL   H45624006   0.249   6.507   0.799  4.1804 -1.0338 -0.7344
   26MOL   H45724007   0.386   6.598   0.805  0.4541 -0.3760 -0.0432
   26MOL   H45824008   0.372   6.647   1.030  0.1681 -0.2213 -0.2122
   26MOL   H45924009   0.195   6.601   1.046 -1.3887 -0.1607 -1.8225
   26MOL   H46024010   0.438   6.437   1.003 -0.0796  1.3931 -1.3787
   26MOL   H46124011   0.353   6.452   1.153 -0.6370 -0.8299  0.3715
   26MOL   H46224012   0.220   6.322   0.911 -1.3972 -2.4159  1.3569
   26MOL   H46324013   0.287   6.243   1.049 -0.8832 -0.9588 -0.8421
   26MOL   H46424014   0.053   6.428   1.027  1.4560 -0.1995 -1.6366
   26MOL   H46524015   0.126   6.366   1.182  0.1557 -1.0451  0.0423
   26MOL   H46624016   0.050   6.134   1.103  0.2823  0.0015  0.4917
   26MOL   H46724017   0.025   6.201   0.950 -2.7133 -0.5859  0.2455
   26MOL   H46824018   7.686   6.294   1.254 -0.4927  1.1931 -0.3114
   26MOL   H46924019   7.457   6.295   1.359 -2.2848  0.9891 -0.7613
   26MOL   H47024020   7.318   6.061   1.025  3.1362 -2.5757 -2.6800
   26MOL   H47124021   7.547   6.058   0.930 -1.7685  0.1163  0.3589
   26MOL   O47224022   7.009   6.138   1.236  0.1824  0.3823  0.3695
   26MOL   C47324023   6.932   6.256   1.234 -0.4135 -0.4008 -0.5584
   26MOL   C47424024   6.818   6.235   1.320  0.2585 -0.2484 -0.0065
   26MOL   C47524025   6.839   6.202   1.466  1.0976  0.0657  0.3360
   26MOL   C47624026   6.928   6.291   1.554  0.0905  0.0883 -0.5572
   26MOL   C47724027   6.894   6.443   1.559 -0.1568 -0.1417  0.7128
   26MOL   C47824028   7.000   6.530   1.625 -0.7172  0.1095 -0.8495
   26MOL   C47924029   7.137   6.529   1.558 -0.1509 -0.4070  0.1488
   26MOL   C48024030   7.224   6.632   1.632 -0.1705  0.1573  0.2629
   26MOL   C48124031   7.369   6.639   1.576 -0.6116  1.2981  0.1307
   26MOL   C48224032   7.463   6.528   1.615 -0.1985  0.5031  0.4238
   26MOL   O48324033   7.591   6.579   1.586  0.1320 -0.1370 -0.0406
   26MOL   C48424034   7.678   6.505   1.523  0.2825  0.2962 -0.2493
   26MOL   O48524035   7.669   6.379   1.508 -0.2588  0.0739 -0.1637
   26MOL   C48624036   7.793   6.583   1.466  0.2448 -0.4560 -0.2679
   26MOL   C48724037   7.877   6.527   1.374  0.4283 -0.8690 -0.3273
   26MOL   C48824038   0.017   6.595   1.335  0.3706 -0.1882 -0.4364
   26MOL   C48924039   0.038   6.726   1.390  0.0797 -0.9263  0.3779
   26MOL   C49024040   0.140   6.809   1.328  0.3360  0.4692 -0.1020
   26MOL   O49124041   0.224   6.770   1.247  0.4237  0.2977 -0.3251
   26MOL   O49224042   0.134   6.936   1.360  0.0980  0.1130  0.2064
   26MOL   C49324043   7.925   6.782   1.475 -0.7962 -0.9537 -0.7781
   26MOL   C49424044   7.814   6.719   1.516  0.1490  0.3667 -0.3404
   26MOL   H49524045   6.988   6.343   1.266 -2.0453  0.5220 -0.1467
   26MOL   H49624046   6.889   6.289   1.139  1.7773  0.9164 -1.1337
   26MOL   H49724047   6.762   6.153   1.274  0.4541  0.1411 -0.9568
   26MOL   H49824048   6.748   6.319   1.311  2.7220  1.8825  0.2663
   26MOL   H49924049   6.746   6.177   1.516  0.2254  0.4013 -1.0900
   26MOL   H50024050   6.882   6.102   1.465 -0.7456 -0.7338 -0.2135
   26MOL   H50124051   7.025   6.270   1.508  0.1584 -1.0502  0.0787
   26MOL   H50224052   6.942   6.252   1.655 -2.3373  1.6338  0.4280
   26MOL   H50324053   6.879   6.482   1.459 -3.0814 -0.1212  1.1161
   26MOL   H50424054   6.795   6.473   1.593 -0.2280  0.6040 -0.1448
   26MOL   H50524055   6.967   6.632   1.608 -0.7724  0.0307 -1.2455
   26MOL   H50624056   7.015   6.506   1.730 -0.7183 -1.0159 -1.0941
   26MOL   H50724057   7.182   6.430   1.556 -1.1049 -0.8518  0.4595
   26MOL   H50824058   7.128   6.567   1.456  0.0825 -1.3482 -0.2198
   26MOL   H50924059   7.189   6.734   1.615  0.2628  0.2256 -0.2387
   26MOL   H51024060   7.229   6.604   1.737  3.3531 -0.4403  0.0086
   26MOL   H51124061   7.412   6.734   1.607  1.1989  0.3139  0.7061
   26MOL   H51224062   7.373   6.643   1.467  1.7840  1.9683  0.2156
   26MOL   H51324063   7.424   6.436   1.572 -1.0703 -0.5613  3.3943
   26MOL   H51424064   7.468   6.512   1.722  1.5818  2.4896  0.6793
   26MOL   H51524065   7.847   6.435   1.325  2.1270 -1.3588 -0.4875
   26MOL   H51624066   0.084   6.557   1.259 -0.7066 -0.9175 -1.0255
   26MOL   H51724067   7.945   6.879   1.518  0.8539 -1.7002  0.1625
   26MOL   H51824068   7.749   6.756   1.592 -0.5830  0.8660 -1.2014
   26MOL   O51924069   0.201   7.029   1.260  0.1715 -0.4146 -0.1509
   26MOL   C52024070   0.324   7.064   1.320 -0.0224 -1.2155 -0.5554
   26MOL   C52124071   0.372   7.173   1.225 -0.0976  0.0146 -0.3917
   26MOL   C52224072   0.403   7.119   1.083 -0.3633 -0.2041 -0.8040
   26MOL   C52324073   0.528   7.031   1.086 -0.4639  0.6023 -0.0336
   26MOL   C52424074   0.546   6.978   0.942  0.4893  0.6797  0.1150
   26MOL   C52524075   0.666   6.880   0.932  0.5158 -0.3120 -0.0658
   26MOL   C52624076   0.675   6.798   0.802  0.2789  0.2351 -0.2432
   26MOL   C52724077   0.778   6.693   0.808  0.0107  0.2503 -0.5033
   26MOL   C52824078   0.919   6.749   0.820 -0.5294 -0.3698  1.0389
   26MOL   C52924079   1.022   6.646   0.788 -0.2300  0.4030  0.0832
   26MOL   O53024080   1.037   6.626   0.655 -0.6545 -0.0346 -0.2266
   26MOL   C53124081   1.060   6.497   0.604  0.4127  0.9698 -0.0988
   26MOL   O53224082   1.052   6.392   0.665  0.4693  0.1737  0.4090
   26MOL   C53324083   1.096   6.502   0.462  0.0697  0.2871 -0.0983
   26MOL   C53424084   1.111   6.374   0.393 -0.2889  0.6319  0.1551
   26MOL   C53524085   1.161   6.361   0.259 -0.7969 -0.2851 -1.0518
   26MOL   C53624086   1.187   6.477   0.196 -0.4370 -0.2858  0.9095
   26MOL   C53724087   1.231   6.458   0.056 -0.1879 -0.8150 -0.4771
   26MOL   O53824088   1.211   6.359   7.964  0.1616 -0.7498 -0.4511
   26MOL   O53924089   1.315   6.556   0.008  0.2349 -0.1213 -0.4273
   26MOL   C54024090   1.172   6.601   0.254 -0.6056  0.4245 -0.0286
   26MOL   C54124091   1.124   6.615   0.383 -0.1539 -0.2825  0.9471
   26MOL   H54224092   0.311   7.100   1.422 -3.0575 -0.4735 -1.1326
   26MOL   H54324093   0.399   6.985   1.317 -0.2271 -1.3704 -1.6426
   26MOL   H54424094   0.461   7.225   1.262  0.1381 -0.4138 -0.3597
   26MOL   H54524095   0.287   7.241   1.217  0.6226  1.3579  2.4435
   26MOL   H54624096   0.316   7.064   1.046 -1.9286  1.6134  0.0934
   26MOL   H54724097   0.418   7.205   1.017 -1.1977  0.5888  0.0238
   26MOL   H54824098   0.511   6.947   1.153  0.6270 -1.4476 -2.2230
   26MOL   H54924099   0.613   7.083   1.130 -1.0764  2.6222 -1.1468
   26MOL   H55024100   0.451   6.937   0.906  0.8301 -0.0036 -0.0250
   26MOL   H55124101   0.561   7.058   0.870  1.2527  0.1338 -0.3413
   26MOL   H55224102   0.758   6.938   0.939  2.0709 -2.4715 -1.6971
   26MOL   H55324103   0.661   6.812   1.017 -1.5432  2.2248  1.9332
   26MOL   H55424104   0.582   6.752   0.770  0.9789 -0.8887 -0.6999
   26MOL   H55524105   0.691   6.870   0.723  0.7872  2.6650  2.0067
   26MOL   H55624106   0.756   6.630   0.895 -3.3361  0.2830 -1.2573
   26MOL   H55724107   0.771   6.621   0.726  0.3223  0.0624 -0.3696
   26MOL   H55824108   0.930   6.798   0.917 -1.6444  0.3380  0.8272
   26MOL   H55924109   0.930   6.830   0.748 -1.5366  0.3258  1.6386
   26MOL   H56024110   0.997   6.555   0.843 -2.2275  0.8108 -0.0952
   26MOL   H56124111   1.119   6.684   0.821 -0.2589  0.9410 -0.4436
   26MOL   H56224112   1.098   6.284   0.450 -0.6360  1.9529  2.2336
   26MOL   H56324113   1.175   6.264   0.213  1.2179 -0.5227 -0.0295
   26MOL   H56424114   1.195   6.689   0.196  0.0910  1.7024  2.1472
   26MOL   H56524115   1.118   6.718   0.414 -0.4033 -0.0693  0.2058
   26MOL   O56624116   1.403   6.521   7.869 -0.3916  0.1267  0.1050
   26MOL   C56724117   1.391   6.614   7.761  0.1543 -0.3999 -0.6011
   26MOL   C56824118   1.454   6.750   7.800  0.0375  0.0317 -0.4808
   26MOL   C56924119   1.462   6.856   7.682 -0.5280  0.4231  0.9906
   26MOL   C57024120   1.483   7.001   7.720 -0.5993 -0.4952 -0.4508
   26MOL   C57124121   1.476   7.101   7.600  0.1832 -0.4530 -0.4655
   26MOL   C57224122   1.525   7.241   7.629  0.0512  0.0480  0.2138
   26MOL   C57324123   1.679   7.260   7.626  0.1934  0.0312 -0.2122
   26MOL   C57424124   1.719   7.409   7.625 -0.2874  0.9422  0.1379
   26MOL   C57524125   1.875   7.430   7.657  0.3701 -0.0178  0.1044
   26MOL   C57624126   1.922   7.575   7.659 -0.5924 -0.4479 -0.2638
   26MOL   O57724127   1.882   7.633   7.535 -0.3904  0.1062 -0.1747
   26MOL   C57824128   1.898   7.761   7.506  0.2969  0.1585  0.4691
   26MOL   O57924129   1.961   7.847   7.574  0.4805  0.7248  0.7698
   26MOL   C58024130   1.823   7.803   7.384  0.0078  0.2680  0.1982
   26MOL   C58124131   1.804   7.942   7.360  0.8986 -0.6889  0.0680
   26MOL   C58224132   1.735   0.011   7.244  0.4667 -0.0595 -0.1735
   26MOL   C58324133   1.687   7.895   7.148 -0.0861  0.6435  0.6492
   26MOL   C58424134   1.609   7.936   7.027  0.5901 -0.1384  0.1769
   26MOL   O58524135   1.562   7.862   6.939  0.4660 -0.3988  0.0297
   26MOL   O58624136   1.603   0.090   7.024 -0.0901  0.3183  0.1843
   26MOL   C58724137   1.717   7.754   7.169  0.6140  0.0379  0.0690
   26MOL   C58824138   1.778   7.718   7.283  0.2148  0.2066 -0.0443
   26MOL   H58924139   1.436   6.569   7.672  0.9719 -0.9008  0.0637
   26MOL   H59024140   1.288   6.636   7.733  1.1854 -0.0289 -4.4501
   26MOL   H59124141   1.555   6.742   7.841  0.2273  3.1032 -0.2544
   26MOL   H59224142   1.395   6.794   7.880 -1.8546 -1.8821 -0.7585
   26MOL   H59324143   1.536   6.810   7.616 -0.3920 -0.2442  1.5998
   26MOL   H59424144   1.369   6.852   7.626 -0.9261  1.3794  1.5815
   26MOL   H59524145   1.581   7.018   7.765 -1.4536  0.3338  1.1324
   26MOL   H59624146   1.416   7.036   7.798  0.0882 -0.4380  0.1156
   26MOL   H59724147   1.525   7.060   7.511  2.7485 -1.9968  1.5616
   26MOL   H59824148   1.369   7.104   7.580 -0.2800 -3.9846  1.0247
   26MOL   H59924149   1.476   7.307   7.558  0.1916  1.3574  1.3076
   26MOL   H60024150   1.479   7.276   7.722 -0.4343 -2.0529  0.7903
   26MOL   H60124151   1.721   7.220   7.719 -1.1476 -0.6755  0.1094
   26MOL   H60224152   1.726   7.208   7.542 -0.2384 -0.4501 -0.1657
   26MOL   H60324153   1.691   7.446   7.527 -0.2580  0.2883 -0.1197
   26MOL   H60424154   1.659   7.483   7.678 -0.2589 -1.5214  3.7990
   26MOL   H60524155   1.938   7.376   7.586 -1.5890 -0.1276 -1.5911
   26MOL   H60624156   1.904   7.396   7.756  0.1034  0.5131  0.3665
   26MOL   H60724157   2.030   7.582   7.665 -0.5056 -2.1993  0.4751
   26MOL   H60824158   1.877   7.627   7.744 -0.4873  0.1126 -0.5516
   26MOL   H60924159   1.830   0.036   7.436 -1.0418 -0.5198  0.6018
   26MOL   H61024160   1.721   0.117   7.230  0.5100 -0.1459 -0.8891
   26MOL   H61124161   1.684   7.673   7.106 -0.8083 -0.0879  0.9463
   26MOL   H61224162   1.805   7.616   7.304  2.4734  0.3652 -2.0493
   26MOL   O61324163   1.528   0.152   6.899  0.4274  0.3260  0.3762
   26MOL   C61424164   1.612   0.173   6.791 -0.1593 -0.5291  0.7883
   26MOL   C61524165   1.512   0.207   6.684 -0.0664 -0.2946  0.0544
   26MOL   C61624166   1.583   0.263   6.559 -0.2395  0.1311  0.9077
   26MOL   C61724167   1.691   0.169   6.504  0.3655 -0.7065  0.1852
   26MOL   C61824168   1.729   0.189   6.360  0.2551 -0.3040 -0.1163
   26MOL   C61924169   1.852   0.109   6.323 -0.0445 -0.3333 -0.2434
   26MOL   C62024170   1.876   0.097   6.176 -0.5114  0.1707  0.6023
   26MOL   C62124171   2.006   0.011   6.150  0.1301 -0.1534  0.1427
   26MOL   C62224172   2.009   7.844   6.203 -0.5385  0.7096 -0.2830
   26MOL   C62324173   2.105   7.748   6.131 -0.1713 -0.0685 -0.3779
   26MOL   O62424174   2.055   7.697   6.010  0.6196 -0.1702  0.4635
   26MOL   C62524175   2.043   7.563   5.991  0.1482  0.2908 -0.2095
   26MOL   O62624176   2.106   7.481   6.056 -0.5728 -0.1861  0.0209
   26MOL   C62724177   1.948   7.524   5.885 -0.3090  0.1743  0.3665
   26MOL   C62824178   1.946   7.391   5.835 -0.4359  0.1031 -0.6951
   26MOL   C62924179   1.863   7.349   5.727 -0.2202  0.0047  0.2544
   26MOL   C63024180   1.779   7.442   5.665 -0.4347 -0.1542  0.0258
   26MOL   C63124181   1.688   7.401   5.547  0.3240 -0.2512 -0.0630
   26MOL   O63224182   1.662   7.284   5.517  0.0890 -0.1414 -0.3377
   26MOL   O63324183   1.643   7.510   5.485 -0.0377 -0.0662  0.3024
   26MOL   C63424184   1.778   7.573   5.720 -0.6182 -0.0384 -0.2517
   26MOL   C63524185   1.869   7.615   5.821  0.8567 -0.2315  0.1710
   26MOL   H63624186   1.681   0.253   6.817  0.5104 -1.2283  1.2000
   26MOL   H63724187   1.667   0.080   6.771  0.9986  0.2978  0.0630
   26MOL   H63824188   1.438   0.277   6.721  1.0879  1.6808 -1.3264
   26MOL   H63924189   1.455   0.118   6.658 -1.1965  0.1672  0.9292
   26MOL   H64024190   1.505   0.286   6.487  0.4135 -2.0046 -0.5188
   26MOL   H64124191   1.626   0.360   6.584  0.8396 -0.1853  0.3336
   26MOL   H64224192   1.654   0.068   6.520  1.9302 -0.8801  3.0181
   26MOL   H64324193   1.776   0.173   6.572  0.5277 -1.9292  0.0706
   26MOL   H64424194   1.641   0.175   6.297 -0.9113 -1.0214  1.6238
   26MOL   H64524195   1.752   0.296   6.351 -0.7099 -0.1440 -0.8154
   26MOL   H64624196   1.934   0.156   6.377 -0.5723  0.5286 -0.1781
   26MOL   H64724197   1.851   0.009   6.366  2.3841 -1.3276 -2.3959
   26MOL   H64824198   1.790   0.043   6.137 -0.0124 -0.1018 -0.1253
   26MOL   H64924199   1.885   0.190   6.120  1.3054 -0.1095  0.4014
   26MOL   H65024200   2.035   0.015   6.045 -0.1191 -2.3824 -0.0326
   26MOL   H65124201   2.091   0.063   6.195 -0.8517  0.0358  1.8522
   26MOL   H65224202   1.910   7.802   6.187  0.1542 -0.9472 -0.2810
   26MOL   H65324203   2.009   7.855   6.312  0.2257  1.5145 -0.3513
   26MOL   H65424204   2.151   7.673   6.195 -0.0541 -1.5199 -2.1038
   26MOL   H65524205   2.192   7.806   6.102  1.2443 -1.6620  0.6096
   26MOL   H65624206   2.015   7.323   5.882 -2.2473  0.5806  2.8753
   26MOL   H65724207   1.871   7.249   5.690  3.7791  0.4328 -0.3436
   26MOL   H65824208   1.706   7.645   5.683  0.9791  0.9109 -1.6047
   26MOL   H65924209   1.859   7.720   5.844  1.4807 -0.0507 -0.3601
   26MOL   O66024210   1.589   7.488   5.347 -0.5982  0.4180  0.0582
   26MOL   C66124211   1.452   7.475   5.358  0.2649 -0.4434  0.1714
   26MOL   C66224212   1.378   7.473   5.223  0.7121 -0.7843 -0.3236
   26MOL   C66324213   1.392   7.338   5.157  0.6066  0.0025 -0.1123
   26MOL   C66424214   1.291   7.320   5.041 -0.3016  0.1575 -0.1160
   26MOL   C66524215   1.289   7.186   4.964 -0.2324  0.6977 -0.2221
   26MOL   C66624216   1.177   7.167   4.868  0.5276 -0.3065  0.7205
   26MOL   C66724217   1.186   7.048   4.780 -0.7656  0.6069  0.1236
   26MOL   C66824218   1.066   7.000   4.701  0.1589 -0.0766  0.2009
   26MOL   C66924219   1.081   6.866   4.636  0.3764  0.4001  0.0254
   26MOL   C67024220   1.149   6.885   4.501 -0.1295 -0.2188 -0.5162
   26MOL   O67124221   1.290   6.894   4.518 -0.2227 -0.5049 -0.1912
   26MOL   C67224222   1.372   6.881   4.411  0.2173  0.1830 -0.4195
   26MOL   O67324223   1.331   6.846   4.297 -0.3795  0.6346  0.5099
   26MOL   C67424224   1.509   6.910   4.450 -0.6663 -0.6457  0.9220
   26MOL   C67524225   1.552   6.928   4.584 -0.5072  0.4049  0.1104
   26MOL   C67624226   1.683   6.966   4.613  0.1681  0.6882  0.9275
   26MOL   C67724227   1.783   6.977   4.513  0.6281  0.1261  0.6752
   26MOL   C67824228   1.922   7.027   4.528  0.0652 -1.5273  0.1195
   26MOL   O67924229   1.988   7.056   4.432 -0.0762  0.0815 -0.4360
   26MOL   O68024230   1.964   7.033   4.659  0.0579 -0.3436  0.3979
   26MOL   C68124231   1.740   6.951   4.379  0.4095 -0.5359 -0.2859
   26MOL   C68224232   1.608   6.918   4.350 -0.6115 -0.3349  0.4738
   26MOL   H68324233   1.424   7.382   5.408  1.2206  0.8241  3.1805
   26MOL   H68424234   1.410   7.560   5.410 -0.8933 -1.4079  0.8450
   26MOL   H68524235   1.415   7.549   5.154 -1.3056 -1.2110 -1.9151
   26MOL   H68624236   1.277   7.508   5.243  0.7617 -1.3927  1.0110
   26MOL   H68724237   1.488   7.322   5.110 -0.3062 -1.4717 -1.5215
   26MOL   H68824238   1.381   7.252   5.222  1.0462  1.8462  2.4826
   26MOL   H68924239   1.312   7.401   4.971  1.5209 -0.2752 -0.0729
   26MOL   H69024240   1.189   7.329   5.080 -0.5616 -2.0929 -0.1811
   26MOL   H69124241   1.375   7.198   4.898 -0.7324 -1.5241 -1.3201
   26MOL   H69224242   1.311   7.098   5.024  0.8916  2.1493  1.5204
   26MOL   H69324243   1.086   7.158   4.927  1.4035  1.4949  2.3766
   26MOL   H69424244   1.184   7.253   4.801  3.0175 -0.7244  0.3971
   26MOL   H69524245   1.272   7.068   4.717  0.8206 -2.7870  1.1074
   26MOL   H69624246   1.208   6.962   4.843 -0.1213 -0.5414 -1.6186
   26MOL   H69724247   0.988   6.992   4.775  0.3970 -0.4948  0.4063
   26MOL   H69824248   1.044   7.072   4.622  0.7021  0.1565  0.2594
   26MOL   H69924249   0.979   6.830   4.622  0.1228  1.4359 -0.8542
   26MOL   H70024250   1.121   6.790   4.704 -0.3389 -0.9150 -1.0042
   26MOL   H70124251   1.102   6.971   4.452  1.5371  1.2492  0.3909
   26MOL   H70224252   1.132   6.801   4.434  2.1061  1.3160 -3.1173
   26MOL   H70324253   1.481   6.913   4.663 -0.4672  2.7049  0.6057
   26MOL   H70424254   1.707   6.977   4.718  0.6528  0.0316  0.8862
   26MOL   H70524255   1.802   6.967   4.292  1.6177  0.4906  0.7451
   26MOL   H70624256   1.578   6.902   4.247 -0.1264  1.1255  0.0902
   26MOL   O70724257   2.087   7.119   4.676 -0.3981  0.5683 -0.6320
   26MOL   C70824258   2.198   7.043   4.716  0.7194 -0.3104 -0.1171
   26MOL   C70924259   2.300   7.147   4.774 -0.1547 -0.0551  0.1812
   26MOL   C71024260   2.244   7.216   4.902 -0.1282  0.3328  0.9157
   26MOL   C71124261   2.234   7.109   5.012 -0.0853 -0.5015 -0.2624
   26MOL   C71224262   2.163   7.156   5.141  0.0979 -0.3873  0.5173
   26MOL   C71324263   2.009   7.163   5.137  0.5477 -0.4406 -0.7258
   26MOL   C71424264   1.932   7.025   5.130 -0.4877  0.1254 -0.0775
   26MOL   C71524265   1.792   7.051   5.072 -0.0826  0.0462 -0.3024
   26MOL   C71624266   1.680   7.102   5.169 -0.4175 -0.4076  0.5860
   26MOL   C71724267   1.627   7.003   5.268 -0.1878  0.1219  0.5449
   26MOL   O71824268   1.716   6.991   5.378  0.5915 -0.7545 -0.2099
   26MOL   C71924269   1.706   6.883   5.455 -0.2477  0.2357 -0.0005
   26MOL   O72024270   1.627   6.787   5.429  0.1103  0.1451 -0.3900
   26MOL   C72124271   1.808   6.882   5.570  0.7588  0.1812 -0.2203
   26MOL   C72224272   1.802   6.773   5.662  0.1867 -0.3302 -0.0706
   26MOL   C72324273   1.906   6.756   5.762  0.1587 -0.6772 -0.3449
   26MOL   C72424274   2.015   6.851   5.763  0.1890 -0.1557  0.6002
   26MOL   C72524275   2.128   6.835   5.857  0.3413 -0.8292 -0.1137
   26MOL   O72624276   2.230   6.904   5.849  0.4059 -0.4500 -0.0196
   26MOL   O72724277   2.108   6.727   5.938  0.2947  0.4780  0.0251
   26MOL   C72824278   2.013   6.962   5.677  0.1338 -0.2110 -0.0618
   26MOL   C72924279   1.904   6.985   5.586 -0.0352  0.6041 -0.1122
   26MOL   H73024280   2.178   6.963   4.786 -0.5150 -0.3833 -0.5473
   26MOL   H73124281   2.236   6.989   4.629  0.4795 -0.5842 -0.0523
   26MOL   H73224282   2.324   7.221   4.697 -0.8403 -0.4006 -0.3744
   26MOL   H73324283   2.391   7.091   4.792 -0.0261 -0.8945 -2.8046
   26MOL   H73424284   2.315   7.288   4.945 -0.5598  1.5675 -0.3881
   26MOL   H73524285   2.145   7.257   4.884  0.3507  1.1067 -0.0400
   26MOL   H73624286   2.341   7.102   5.036 -0.3644  0.4496  1.3370
   26MOL   H73724287   2.200   7.010   4.982 -1.4647 -0.7998  2.1538
   26MOL   H73824288   2.193   7.093   5.224  0.6969 -0.1249  0.4985
   26MOL   H73924289   2.206   7.251   5.174 -0.7476  0.4118 -0.6118
   26MOL   H74024290   1.967   7.216   5.223 -1.2820 -1.0144 -1.2416
   26MOL   H74124291   1.982   7.221   5.049 -1.0608 -1.6481 -1.0604
   26MOL   H74224292   1.980   6.951   5.065  0.2898 -2.1591  2.9689
   26MOL   H74324293   1.915   6.976   5.226  2.1384  1.2820  1.0344
   26MOL   H74424294   1.803   7.123   4.990 -1.9254  2.5153  1.5327
   26MOL   H74524295   1.760   6.963   5.016 -0.8267 -0.3235  0.6885
   26MOL   H74624296   1.590   7.112   5.109  0.0102  0.4551  0.0709
   26MOL   H74724297   1.697   7.201   5.211  0.1475 -0.4098  0.3712
   26MOL   H74824298   1.614   6.905   5.221  0.0110  0.0223  0.6988
   26MOL   H74924299   1.523   7.028   5.292 -0.5587  0.2504 -1.1194
   26MOL   H75024300   1.737   6.691   5.635  0.4486  0.2968 -2.6448
   26MOL   H75124301   1.909   6.675   5.833  0.5965  1.8496  2.6204
   26MOL   H75224302   2.074   7.051   5.687  0.4696 -0.5948  1.4951
   26MOL   H75324303   1.897   7.071   5.521 -3.3633  1.1873  0.9202
   26MOL   O75424304   2.233   6.692   6.008  0.0273  0.3584 -0.2172
   26MOL   C75524305   2.227   6.741   6.139 -0.4702 -0.0047 -0.3207
   26MOL   C75624306   2.343   6.674   6.207 -0.6672 -0.3969 -0.4297
   26MOL   C75724307   2.361   6.727   6.350  0.0891 -0.2012 -0.0953
   26MOL   C75824308   2.423   6.635   6.450  0.3322 -0.5381 -0.9647
   26MOL   C75924309   2.422   6.674   6.598  0.1901 -0.5752 -0.2005
   26MOL   C76024310   2.493   6.565   6.685  0.6175  0.2719  0.5610
   26MOL   C76124311   2.459   6.590   6.836 -0.3863  0.0657 -0.1712
   26MOL   C76224312   2.474   6.461   6.924 -0.5122  0.3494  0.6614
   26MOL   C76324313   2.617   6.400   6.937  0.8497 -0.4118  0.5466
   26MOL   C76424314   2.616   6.271   7.021  0.4079 -0.7803  0.3144
   26MOL   O76524315   2.729   6.196   6.977  0.3664  0.5908  0.0190
   26MOL   C76624316   2.840   6.201   7.049 -0.2459 -0.5685 -0.2765
   26MOL   O76724317   2.864   6.279   7.138 -0.3083 -0.2128  0.0655
   26MOL   C76824318   2.947   6.104   7.006  0.2810 -0.0911  0.3428
   26MOL   C76924319   2.922   6.009   6.905 -0.4565  0.0426 -0.3152
   26MOL   C77024320   3.024   5.917   6.865  0.4562 -0.6490 -0.0451
   26MOL   C77124321   3.140   5.915   6.937 -0.5117  0.2239  0.6974
   26MOL   C77224322   3.254   5.826   6.904  0.5200 -0.1417  0.3186
   26MOL   O77324323   3.369   5.853   6.932  0.5080 -0.3700  0.1215
   26MOL   O77424324   3.213   5.716   6.834  0.4627 -0.0054 -0.6576
   26MOL   C77524325   3.164   6.004   7.047 -0.7367 -0.4958 -0.0784
   26MOL   C77624326   3.062   6.089   7.087 -0.4931  0.4448 -0.1792
   26MOL   H77724327   2.233   6.850   6.139 -1.2184  0.0401 -1.1099
   26MOL   H77824328   2.133   6.714   6.188 -1.0528  2.1978 -0.1433
   26MOL   H77924329   2.441   6.683   6.160  0.0780 -0.6789  1.0190
   26MOL   H78024330   2.316   6.569   6.207 -0.8427 -0.3560 -0.0023
   26MOL   H78124331   2.413   6.823   6.346 -1.6520  0.8835  1.8481
   26MOL   H78224332   2.267   6.752   6.400  0.6869 -0.6154  1.2710
   26MOL   H78324333   2.523   6.608   6.416  0.8834 -0.2477  0.3865
   26MOL   H78424334   2.360   6.546   6.439  1.5728 -1.2311 -2.6851
   26MOL   H78524335   2.461   6.774   6.613 -2.0286  0.2636  0.2184
   26MOL   H78624336   2.316   6.678   6.625 -0.9574 -3.4646 -3.8892
   26MOL   H78724337   2.437   6.474   6.662 -4.4481  2.8660  1.9330
   26MOL   H78824338   2.599   6.561   6.659  0.2143  1.8821 -1.4785
   26MOL   H78924339   2.506   6.675   6.887 -1.6804 -0.2382  1.5619
   26MOL   H79024340   2.356   6.623   6.847 -0.1678  0.1414  1.8415
   26MOL   H79124341   2.452   6.499   7.024 -0.5216  0.6723  0.5401
   26MOL   H79224342   2.399   6.390   6.889 -0.4668  0.7991 -0.3657
   26MOL   H79324343   2.673   6.484   6.979  1.3057  1.6395 -3.8879
   26MOL   H79424344   2.655   6.372   6.839 -0.8236 -1.8498  0.2868
   26MOL   H79524345   2.530   6.208   6.997  1.4172 -2.0106 -0.1415
   26MOL   H79624346   2.620   6.294   7.127  0.2448 -0.2056  0.2003
   26MOL   H79724347   2.828   6.010   6.851 -1.8263  3.0467  2.0245
   26MOL   H79824348   3.005   5.853   6.781 -0.4518 -3.2536  2.0728
   26MOL   H79924349   3.257   6.011   7.101 -0.7474 -1.0181  0.0117
   26MOL   H80024350   3.073   6.161   7.166  0.7389  1.2310 -1.0409
   26MOL   O80124351   3.326   5.636   6.785 -0.6890 -0.2193  0.1803
   26MOL   C80224352   3.290   5.577   6.656  0.1436  0.1168  0.9248
   26MOL   C80324353   3.217   5.442   6.673  0.1742 -0.1963  0.4374
   26MOL   C80424354   3.204   5.351   6.551 -0.0835 -0.6908 -0.6649
   26MOL   C80524355   3.128   5.227   6.593  0.2017  0.0684 -0.6396
   26MOL   C80624356   3.094   5.147   6.463  0.7270 -0.5087 -0.8157
   26MOL   C80724357   2.980   5.040   6.488 -0.2121 -0.0501  0.0223
   26MOL   C80824358   2.910   5.009   6.360 -0.5168  0.2286 -0.1499
   26MOL   C80924359   2.779   4.933   6.378 -0.0845  0.1414 -0.5424
   26MOL   C81024360   2.798   4.783   6.419 -0.3032  0.8680  0.1283
   26MOL   C81124361   2.664   4.733   6.476 -0.5031 -0.5443 -0.1646
   26MOL   O81224362   2.567   4.692   6.386 -0.2903 -0.4736  0.4761
   26MOL   C81324363   2.484   4.788   6.335 -0.1340  1.0844 -0.0670
   26MOL   O81424364   2.470   4.904   6.388  0.6571 -0.8451 -0.0172
   26MOL   C81524365   2.418   4.742   6.214  0.1543 -0.9855 -0.0300
   26MOL   C81624366   2.325   4.830   6.144 -0.2253  0.3749  0.1366
   26MOL   C81724367   2.254   4.777   6.033  0.4140  0.4909  0.0886
   26MOL   C81824368   2.270   4.644   5.986 -0.5062  0.2113  0.4489
   26MOL   C81924369   2.206   4.582   5.871  0.5700  0.1809  0.1955
   26MOL   O82024370   2.243   4.479   5.818 -0.0702  0.0669  0.5523
   26MOL   O82124371   2.101   4.655   5.831 -0.0720  0.0277 -0.0507
   26MOL   C82224372   2.366   4.562   6.049  0.1087 -0.3148  0.1751
   26MOL   C82324373   2.445   4.617   6.157 -0.6732 -0.4094 -0.3354
   26MOL   H82424374   3.233   5.653   6.601  0.4930 -1.5808 -1.8874
   26MOL   H82524375   3.386   5.561   6.608 -0.3021 -1.6779  0.5884
   26MOL   H82624376   3.121   5.460   6.721 -0.1828 -1.5976  0.2893
   26MOL   H82724377   3.279   5.393   6.748  0.6623 -0.6827 -0.2687
   26MOL   H82824378   3.157   5.414   6.476  1.3622  0.4803 -0.6182
   26MOL   H82924379   3.301   5.329   6.506  1.2270  0.4625  1.5284
   26MOL   H83024380   3.035   5.250   6.645  0.0633 -1.2767 -0.2820
   26MOL   H83124381   3.191   5.162   6.653 -0.7302  0.1196  0.4054
   26MOL   H83224382   3.058   5.223   6.393 -0.7965  0.4039  0.9015
   26MOL   H83324383   3.172   5.100   6.405  0.1489 -0.8579 -1.3133
   26MOL   H83424384   3.015   4.953   6.543  0.7882  1.1880  1.4082
   26MOL   H83524385   2.902   5.077   6.554 -0.4717 -0.3504 -0.1134
   26MOL   H83624386   2.875   5.106   6.324  0.5905  0.5070 -0.4707
   26MOL   H83724387   2.979   4.969   6.286 -1.2851 -1.7684  0.1623
   26MOL   H83824388   2.725   4.981   6.460  1.1697 -2.0879  1.6459
   26MOL   H83924389   2.723   4.947   6.285 -1.1335 -2.4054 -0.3118
   26MOL   H84024390   2.874   4.768   6.495 -0.3442  1.4710  0.2885
   26MOL   H84124391   2.835   4.721   6.337  0.4429  1.0578  0.3168
   26MOL   H84224392   2.637   4.806   6.552  0.8113 -0.3089  0.0822
   26MOL   H84324393   2.691   4.648   6.539  0.1016  1.4329  2.3554
   26MOL   H84424394   2.304   4.930   6.180 -0.7828  0.1263  0.5058
   26MOL   H84524395   2.193   4.855   5.992 -1.1698  0.1265  1.7056
   26MOL   H84624396   2.401   4.467   6.011  1.0328 -0.1561  0.6116
   26MOL   H84724397   2.530   4.560   6.192  0.8196  2.0545  0.1911
   26MOL   O84824398   2.009   4.587   5.732 -0.0583  0.0455 -0.3649
   26MOL   C84924399   2.062   4.600   5.604  0.1447  0.0461 -0.0156
   26MOL   C85024400   1.946   4.567   5.514 -0.1255  0.6142  0.7155
   26MOL   C85124401   1.990   4.543   5.360 -0.5631 -0.4008  0.4142
   26MOL   C85224402   1.865   4.539   5.273 -0.0392 -0.2019  0.2568
   26MOL   C85324403   1.874   4.450   5.156  0.0766  0.2993  0.7137
   26MOL   C85424404   2.003   4.483   5.067 -0.3973 -0.4661  0.4059
   26MOL   C85524405   2.036   4.376   4.962 -0.5895 -0.3341 -0.0592
   26MOL   C85624406   2.160   4.409   4.875  0.8228  0.4411  0.8645
   26MOL   C85724407   2.201   4.298   4.773  0.0615  0.4416  0.0604
   26MOL   C85824408   2.336   4.327   4.706  0.0606 -0.0477  0.1459
   26MOL   O85924409   2.323   4.412   4.598  0.7016  0.8638 -0.1480
   26MOL   C86024410   2.432   4.474   4.547 -0.1848 -0.1270  0.2688
   26MOL   O86124411   2.542   4.468   4.597  0.7561 -0.4600  0.6174
   26MOL   C86224412   2.398   4.544   4.421 -0.0198  0.2908  0.4114
   26MOL   C86324413   2.499   4.619   4.358 -0.5532  0.0029 -0.6065
   26MOL   C86424414   2.476   4.684   4.237 -0.0352 -0.6781 -0.0307
   26MOL   C86524415   2.351   4.667   4.172  0.3475 -0.0055  0.2592
   26MOL   C86624416   2.325   4.750   4.048  0.1769  0.6084 -0.1010
   26MOL   O86724417   2.409   4.822   3.997 -0.3780 -0.2782 -0.3039
   26MOL   O86824418   2.204   4.734   3.997  0.0881 -0.6090  0.3036
   26MOL   C86924419   2.249   4.586   4.229 -0.6198  0.5205  0.0373
   26MOL   C87024420   2.274   4.520   4.355 -0.3491 -0.4436  0.1071
   26MOL   H87124421   2.093   4.703   5.587  0.4459 -0.3862 -2.3309
   26MOL   H87224422   2.144   4.529   5.592 -1.6466 -2.2678  1.0120
   26MOL   H87324423   1.869   4.644   5.519 -0.8638 -0.1049  0.3221
   26MOL   H87424424   1.917   4.475   5.563 -2.4516 -0.6636 -2.8809
   26MOL   H87524425   2.056   4.621   5.321 -1.6306  1.0573  1.4258
   26MOL   H87624426   2.050   4.452   5.358  0.9306  0.5915 -2.5586
   26MOL   H87724427   1.830   4.638   5.244  0.3784 -0.8200 -2.4902
   26MOL   H87824428   1.785   4.497   5.334 -0.9658 -1.2850 -1.6534
   26MOL   H87924429   1.879   4.342   5.170  0.3032  0.2232  0.0737
   26MOL   H88024430   1.790   4.468   5.089 -0.5783  1.5513  1.8611
   26MOL   H88124431   1.992   4.577   5.013 -0.4988 -0.1136  1.0374
   26MOL   H88224432   2.094   4.495   5.126  0.3225  0.0160 -0.7966
   26MOL   H88324433   2.048   4.276   5.003  0.1186  0.3975  1.5680
   26MOL   H88424434   1.957   4.370   4.887 -1.5097  0.3892  0.8273
   26MOL   H88524435   2.127   4.489   4.809 -0.6517  0.7535  1.9433
   26MOL   H88624436   2.247   4.448   4.928  2.2008 -1.7378  0.2607
   26MOL   H88724437   2.130   4.274   4.694 -1.0755  2.1880  0.5125
   26MOL   H88824438   2.214   4.210   4.836 -0.0895  1.1329  1.0756
   26MOL   H88924439   2.388   4.240   4.666 -0.5932  0.3107 -1.5011
   26MOL   H89024440   2.398   4.371   4.784  0.7601  1.2496 -1.1344
   26MOL   H89124441   2.587   4.652   4.411 -0.4359 -0.5551 -0.4547
   26MOL   H89224442   2.548   4.750   4.192 -2.7591  0.9562 -2.1517
   26MOL   H89324443   2.153   4.573   4.182 -0.0775  2.1313 -1.5794
   26MOL   H89424444   2.196   4.465   4.407 -2.0632  0.3637 -1.5786
   26MOL   O89524445   2.175   4.808   3.865 -0.3094  0.5566  0.1216
   26MOL   C89624446   2.214   4.727   3.754 -0.2165  0.0790 -0.2901
   26MOL   C89724447   2.191   4.788   3.619 -0.4351  0.1745  0.3812
   26MOL   C89824448   2.258   4.713   3.502  0.1937  0.4184  0.0131
   26MOL   C89924449   2.198   4.756   3.360 -0.5010  0.3042 -0.8221
   26MOL   C90024450   2.275   4.690   3.255  0.4676 -0.7760 -0.6761
   26MOL   C90124451   2.215   4.725   3.120 -0.0301  0.7824 -0.1775
   26MOL   C90224452   2.291   4.652   3.004  0.1515 -0.1774  0.1162
   26MOL   C90324453   2.240   4.690   2.860 -1.1070 -0.1324  0.0408
   26MOL   C90424454   2.090   4.665   2.832 -0.4255  0.0972  0.0873
   26MOL   C90524455   2.041   4.741   2.710  0.8063  0.7032  0.1937
   26MOL   O90624456   2.091   4.676   2.594  0.2981  0.1101 -0.0576
   26MOL   C90724457   2.014   4.640   2.497  0.0820 -0.0063  0.1403
   26MOL   O90824458   1.896   4.673   2.492  0.8997  0.2664  0.2057
   26MOL   C90924459   2.072   4.534   2.408 -0.0132 -0.1471 -0.2817
   26MOL   C91024460   2.194   4.467   2.431 -0.5984 -0.3671 -0.5083
   26MOL   C91124461   2.240   4.372   2.336  0.1519 -0.4803 -0.0871
   26MOL   C91224462   2.159   4.330   2.226  0.2230  0.1395 -0.5116
   26MOL   C91324463   2.215   4.231   2.124  0.3480 -0.2747  0.2362
   26MOL   O91424464   2.323   4.242   2.073 -0.0016  0.7770  0.6300
   26MOL   O91524465   2.123   4.141   2.091  0.5524 -0.3479  0.0087
   26MOL   C91624466   2.029   4.386   2.215  0.3409  0.3408 -0.3112
   26MOL   C91724467   1.991   4.496   2.297  0.2347  0.1156  0.1389
   26MOL   H91824468   2.321   4.704   3.761 -0.1710  0.7346  1.4247
   26MOL   H91924469   2.162   4.631   3.757  0.0446 -0.1000 -1.2746
   26MOL   H92024470   2.214   4.895   3.624  1.1601 -0.2259  1.9106
   26MOL   H92124471   2.087   4.773   3.592 -0.1917  1.0653 -1.0981
   26MOL   H92224472   2.365   4.728   3.495  0.1768  1.2425  1.5043
   26MOL   H92324473   2.238   4.605   3.506 -1.5053  0.7548  1.4966
   26MOL   H92424474   2.196   4.865   3.360  0.0655  0.3246  0.2735
   26MOL   H92524475   2.100   4.709   3.364 -1.0690  1.6321  3.2524
   26MOL   H92624476   2.379   4.724   3.252 -0.0381  1.2397  2.4342
   26MOL   H92724477   2.270   4.583   3.277  2.3128 -0.9509 -0.9931
   26MOL   H92824478   2.111   4.692   3.127 -0.5021  2.3768  0.7304
   26MOL   H92924479   2.209   4.833   3.107  0.5449  0.7855 -0.4390
   26MOL   H93024480   2.397   4.673   3.020  0.5041 -1.7850 -0.0261
   26MOL   H93124481   2.285   4.544   3.018 -1.2367 -0.2779 -1.1241
   26MOL   H93224482   2.250   4.797   2.845 -0.7267  0.1971  2.4746
   26MOL   H93324483   2.300   4.643   2.782  0.9086  0.7651  1.0325
   26MOL   H93424484   2.045   4.712   2.919 -0.0028  0.8011 -0.0724
   26MOL   H93524485   2.061   4.561   2.818 -0.3542  0.2767 -1.5616
   26MOL   H93624486   2.077   4.843   2.719  1.8061  0.2510  1.4209
   26MOL   H93724487   1.933   4.743   2.728  1.0093 -1.3377  1.8123
   26MOL   H93824488   2.252   4.485   2.520 -0.0121 -0.3285 -0.8952
   26MOL   H93924489   2.337   4.327   2.346  0.6543  0.5881 -0.1487
   26MOL   H94024490   1.961   4.351   2.138 -1.3963 -0.1791  1.4248
   26MOL   H94124491   1.899   4.546   2.272  0.7847 -0.1154 -2.3915
   26MOL   H94224492   2.152   4.107   2.007  1.7458  0.3558  0.1280
   27MOL     O124493   2.049   7.057   1.281 -0.1227  0.0677  0.0472
   27MOL     C224494   2.096   7.087   1.414 -0.4832 -0.2197 -0.4253
   27MOL     C324495   2.190   7.203   1.421  0.0870 -0.4359 -0.0061
   27MOL     C424496   2.103   7.330   1.409  0.6845  0.3266  0.1498
   27MOL     C524497   2.188   7.458   1.413 -0.2901  0.0686 -0.0631
   27MOL     C624498   2.113   7.585   1.370  0.7301  0.1453  0.0495
   27MOL     C724499   2.197   7.694   1.304  0.0731 -0.4331  0.5146
   27MOL     C824500   2.116   7.827   1.300  0.4293 -0.1557 -0.1868
   27MOL     C924501   2.191   7.941   1.234  1.1388 -0.1292 -0.5695
   27MOL    C1024502   2.103   0.094   1.225  0.1567  0.6512 -0.0085
   27MOL    C1124503   2.179   0.211   1.161  0.6257  0.8602 -0.1673
   27MOL    O1224504   2.099   0.314   1.113  0.3899  0.5744  0.2439
   27MOL    C1324505   2.079   0.415   1.191  0.7461  0.4202 -0.5891
   27MOL    O1424506   2.099   0.413   1.312 -0.0276 -0.1204 -0.1081
   27MOL    C1524507   2.013   0.532   1.125  0.0139 -0.3259  0.2057
   27MOL    C1624508   1.994   0.646   1.203  0.6993 -0.2864  0.0502
   27MOL    C1724509   1.931   0.758   1.147  0.2048  0.4652  0.3853
   27MOL    C1824510   1.901   0.757   1.008 -0.2929 -0.4969  0.1983
   27MOL    C1924511   1.850   0.886   0.941 -0.3948  0.7740  0.2207
   27MOL    O2024512   1.862   0.991   1.003 -0.0209 -0.8709 -0.7694
   27MOL    O2124513   1.769   0.862   0.832  0.4797 -0.4542  0.0230
   27MOL    C2224514   1.900   0.638   0.939 -0.8390  0.0490  0.8687
   27MOL    C2324515   1.959   0.525   0.998 -0.5936 -0.0359 -0.1373
   27MOL    H2424516   2.008   7.091   1.477  0.8970  1.2718  1.4744
   27MOL    H2524517   2.159   7.004   1.448  2.3156  2.3523  0.8845
   27MOL    H2624518   2.271   7.211   1.348  0.6960 -3.0535  0.3584
   27MOL    H2724519   2.241   7.209   1.517 -1.1876  0.4269  0.6396
   27MOL    H2824520   2.049   7.332   1.315  0.1792 -0.0159  0.4309
   27MOL    H2924521   2.038   7.335   1.496  1.6579 -1.2165  0.9973
   27MOL    H3024522   2.271   7.426   1.350 -0.7891 -1.4718  0.0470
   27MOL    H3124523   2.237   7.476   1.509 -1.3352  1.7183  0.1812
   27MOL    H3224524   2.033   7.560   1.300  1.3165 -0.1594 -0.5066
   27MOL    H3324525   2.069   7.627   1.461 -2.4426  0.9057 -1.7720
   27MOL    H3424526   2.278   7.713   1.374 -0.2926 -0.4877  0.9505
   27MOL    H3524527   2.231   7.641   1.215 -1.9006 -0.9661  0.0679
   27MOL    H3624528   2.033   7.806   1.233 -0.7040  0.8313  0.8856
   27MOL    H3724529   2.092   7.849   1.404  0.5671 -1.5613  0.1633
   27MOL    H3824530   2.282   7.955   1.293  0.9438 -2.1290  0.2410
   27MOL    H3924531   2.231   7.911   1.137 -1.5113 -1.6108 -1.2655
   27MOL    H4024532   2.054   0.115   1.321 -0.9710  0.2509 -0.4873
   27MOL    H4124533   2.020   0.072   1.159  1.2076 -2.7818 -0.2713
   27MOL    H4224534   2.231   0.163   1.078 -0.3735  0.1739 -0.4024
   27MOL    H4324535   2.257   0.250   1.227  0.0883 -1.9970  2.2773
   27MOL    H4424536   2.039   0.649   1.301  2.3063  1.0401 -0.6928
   27MOL    H4524537   1.936   0.851   1.203 -0.8408  0.4032  0.5732
   27MOL    H4624538   1.866   0.627   0.837 -0.0465 -1.2187  0.7316
   27MOL    H4724539   1.973   0.432   0.944  2.5971  0.4010 -0.1812
   27MOL    H4824540   2.114   7.012   1.228 -0.3628  0.0107 -0.2003
   27MOL    O4924541   1.719   0.987   0.773  0.0487  0.7450 -0.1992
   27MOL    C5024542   1.576   1.015   0.807  0.1070 -0.2145 -0.2975
   27MOL    C5124543   1.551   1.158   0.751  0.3456 -0.6037  0.1339
   27MOL    C5224544   1.429   1.228   0.797  0.1102 -0.0242 -0.0816
   27MOL    C5324545   1.437   1.379   0.807  0.4289  0.8127  0.2747
   27MOL    C5424546   1.348   1.453   0.715 -0.1694 -0.3073  0.4194
   27MOL    C5524547   1.400   1.462   0.567  0.5111 -0.6419 -0.4772
   27MOL    C5624548   1.340   1.352   0.478 -1.2894 -0.6162  0.5389
   27MOL    C5724549   1.429   1.321   0.359 -0.1096 -0.5527 -0.3783
   27MOL    C5824550   1.385   1.214   0.266  0.2514  0.0628 -0.0354
   27MOL    C5924551   1.363   1.074   0.329 -0.1676 -0.9284 -0.2286
   27MOL    O6024552   1.491   1.012   0.359 -0.5199 -0.4985 -0.1373
   27MOL    C6124553   1.493   0.910   0.454  0.0759 -0.2293 -0.5660
   27MOL    O6224554   1.392   0.874   0.524  0.5224  0.6618 -0.3623
   27MOL    C6324555   1.632   0.844   0.467  0.2906 -0.0781 -0.4292
   27MOL    C6424556   1.664   0.737   0.549  0.9359 -0.9092  0.3985
   27MOL    C6524557   1.782   0.669   0.532 -0.7285  0.0989  0.0818
   27MOL    C6624558   1.875   0.706   0.438 -0.0035 -0.2731 -0.3315
   27MOL    C6724559   2.001   0.627   0.416  1.3166 -0.1802 -0.1697
   27MOL    O6824560   2.041   0.547   0.493 -0.4903  0.1484 -0.5820
   27MOL    O6924561   2.063   0.650   0.298 -0.0108  0.0180 -0.0516
   27MOL    C7024562   1.849   0.820   0.358 -0.0759 -0.6973  0.6833
   27MOL    C7124563   1.727   0.885   0.372  0.5690  0.3534 -0.2123
   27MOL    H7224564   1.506   0.938   0.776  0.6489 -0.4376 -0.9881
   27MOL    H7324565   1.562   1.028   0.914 -0.7820 -0.7107 -0.3547
   27MOL    H7424566   1.565   1.153   0.643 -0.8939  0.8011 -0.1062
   27MOL    H7524567   1.634   1.218   0.787  0.1637  0.7637 -1.6417
   27MOL    H7624568   1.336   1.203   0.744  0.4172 -0.3457 -0.4774
   27MOL    H7724569   1.409   1.198   0.900  0.7322 -2.3320 -0.6146
   27MOL    H7824570   1.531   1.432   0.817  0.1645  1.0711  1.4543
   27MOL    H7924571   1.410   1.394   0.911 -1.8762 -0.2365 -0.1403
   27MOL    H8024572   1.244   1.421   0.726 -0.0623 -0.0412  2.4052
   27MOL    H8124573   1.370   1.554   0.751  2.7909 -0.7466 -0.0675
   27MOL    H8224574   1.380   1.555   0.513  0.1050  0.2677  1.1849
   27MOL    H8324575   1.508   1.455   0.576  0.5797  2.6879  2.1500
   27MOL    H8424576   1.323   1.264   0.540 -1.3086 -0.4113  0.8264
   27MOL    H8524577   1.239   1.382   0.452 -0.4905 -1.4813 -3.9108
   27MOL    H8624578   1.445   1.407   0.294  1.7591 -0.5904  0.0273
   27MOL    H8724579   1.533   1.300   0.382 -0.4951  0.0253  1.9927
   27MOL    H8824580   1.457   1.213   0.184  0.3698  1.3259  0.0328
   27MOL    H8924581   1.293   1.243   0.216  0.3528 -0.8689 -0.7677
   27MOL    H9024582   1.316   1.002   0.262  1.2324 -1.5958 -0.5293
   27MOL    H9124583   1.291   1.085   0.410  0.6039  0.8939  0.2379
   27MOL    H9224584   1.599   0.693   0.623  1.6192 -0.8372  1.0463
   27MOL    H9324585   1.799   0.575   0.583  1.3613  0.2823 -0.2578
   27MOL    H9424586   1.927   0.844   0.287  0.6402 -2.1536  0.9382
   27MOL    H9524587   1.709   0.972   0.311  0.5004  0.8445  0.5029
   27MOL    O9624588   2.165   0.547   0.266 -0.1564 -0.0682 -0.8433
   27MOL    C9724589   2.292   0.604   0.307  0.3131 -0.0343 -0.3594
   27MOL    C9824590   2.405   0.519   0.236 -0.2923 -0.8049  0.1174
   27MOL    C9924591   2.550   0.560   0.269 -0.0929  0.2243  0.4933
   27MOL   C10024592   2.585   0.533   0.416 -0.5148  0.2098  0.3009
   27MOL   C10124593   2.733   0.568   0.457 -0.5567  0.2885 -0.7222
   27MOL   C10224594   2.757   0.598   0.606  0.0087  0.6741 -0.4234
   27MOL   C10324595   2.718   0.494   0.705  0.5575 -0.2591 -0.6795
   27MOL   C10424596   2.735   0.544   0.850  0.5674 -0.0465 -0.7639
   27MOL   C10524597   2.880   0.541   0.904 -0.1014 -0.0967  0.7994
   27MOL   C10624598   2.896   0.596   1.041  0.0010 -0.1421 -0.4472
   27MOL   O10724599   2.845   0.728   1.065 -0.2995  0.4648 -0.3929
   27MOL   C10824600   2.818   0.783   1.186  0.0433  0.2994 -0.2417
   27MOL   O10924601   2.844   0.730   1.294 -0.5394  0.1333 -0.4630
   27MOL   C11024602   2.766   0.920   1.172 -0.0874 -0.2742 -0.4626
   27MOL   C11124603   2.675   0.971   1.268 -0.0223 -0.2284 -0.0399
   27MOL   C11224604   2.613   1.098   1.269 -0.9729  0.6510 -0.3035
   27MOL   C11324605   2.654   1.192   1.166 -0.5591  0.2230  0.5206
   27MOL   C11424606   2.593   1.322   1.162 -0.0886 -0.0002 -0.1736
   27MOL   O11524607   2.587   1.383   1.055  0.5512  0.0193 -0.2702
   27MOL   O11624608   2.548   1.372   1.280  0.2097  0.1029  0.4918
   27MOL   C11724609   2.750   1.148   1.072  0.1994  0.5443  0.0647
   27MOL   C11824610   2.808   1.016   1.076  0.3382  0.1095  0.0024
   27MOL   H11924611   2.293   0.710   0.283  1.1286  0.0343 -0.0251
   27MOL   H12024612   2.285   0.597   0.416 -1.2440  1.6262 -0.3316
   27MOL   H12124613   2.393   0.512   0.128 -0.2159  1.5654 -0.0757
   27MOL   H12224614   2.390   0.419   0.277 -0.5493 -1.0320 -0.5249
   27MOL   H12324615   2.621   0.525   0.194 -1.4349 -4.2086  1.1558
   27MOL   H12424616   2.558   0.668   0.253  1.3588  0.2288  1.2117
   27MOL   H12524617   2.570   0.427   0.432 -0.3124  0.2210  0.5752
   27MOL   H12624618   2.516   0.580   0.486 -0.2604 -0.6240  1.1094
   27MOL   H12724619   2.808   0.494   0.431  1.0446  0.6801  2.6106
   27MOL   H12824620   2.757   0.664   0.412  2.1874  0.8223  1.7549
   27MOL   H12924621   2.857   0.641   0.620  0.4042 -0.6901  1.0204
   27MOL   H13024622   2.681   0.673   0.625 -1.4185 -1.2813  1.8003
   27MOL   H13124623   2.612   0.476   0.689  0.1017 -0.0005  1.8327
   27MOL   H13224624   2.758   0.393   0.696  0.6319 -0.1541 -1.5107
   27MOL   H13324625   2.691   0.643   0.863  0.1757 -0.4965  1.6767
   27MOL   H13424626   2.665   0.484   0.909 -1.3896  1.1236 -1.8650
   27MOL   H13524627   2.942   0.588   0.827 -1.5872  0.7678  0.1107
   27MOL   H13624628   2.919   0.439   0.902  2.3704  0.8147 -0.6633
   27MOL   H13724629   2.996   0.583   1.084 -0.2205 -1.8821 -0.4189
   27MOL   H13824630   2.855   0.519   1.105 -0.2852 -0.7437 -1.3477
   27MOL   H13924631   2.636   0.911   1.349  0.9835 -0.3146  0.3817
   27MOL   H14024632   2.547   1.133   1.347 -1.4431 -0.2279 -0.3018
   27MOL   H14124633   2.772   1.213   0.988 -0.0199  2.1093  1.2060
   27MOL   H14224634   2.875   0.991   0.995 -0.1778  2.3991 -1.1764
   27MOL   O14324635   2.483   1.507   1.266 -0.5106 -0.2427 -0.0223
   27MOL   C14424636   2.338   1.486   1.269  0.2265  0.2685  0.5762
   27MOL   C14524637   2.256   1.610   1.229 -0.1908  0.9775  0.0646
   27MOL   C14624638   2.276   1.645   1.081 -0.1462 -0.0687 -0.3990
   27MOL   C14724639   2.181   1.758   1.035 -0.2524  0.7146 -0.5072
   27MOL   C14824640   2.220   1.804   0.893 -0.1524 -0.5412  0.5064
   27MOL   C14924641   2.104   1.876   0.815 -0.3332  0.6329  0.4808
   27MOL   C15024642   2.154   1.913   0.672  0.2525 -0.4347  0.2192
   27MOL   C15124643   2.052   1.988   0.591 -0.3922  0.2610  0.2528
   27MOL   C15224644   2.102   2.062   0.472 -0.6464  0.2562  0.0417
   27MOL   C15324645   2.026   2.183   0.420 -0.2565 -0.4545 -0.2308
   27MOL   O15424646   1.888   2.144   0.424  1.0149 -0.0978  0.0988
   27MOL   C15524647   1.789   2.237   0.412 -0.4759 -0.0646 -0.3478
   27MOL   O15624648   1.806   2.358   0.382  0.2620 -0.4834 -0.2083
   27MOL   C15724649   1.653   2.175   0.449  0.1038 -0.4037  0.8572
   27MOL   C15824650   1.535   2.250   0.455  0.3420 -0.0122 -0.3351
   27MOL   C15924651   1.411   2.197   0.500 -0.0239 -0.8275  0.3593
   27MOL   C16024652   1.403   2.057   0.525 -0.5105 -1.2881 -0.4714
   27MOL   C16124653   1.278   2.002   0.576 -0.2100  0.4662  0.2244
   27MOL   O16224654   1.171   2.055   0.553 -0.3711  0.0894 -0.2974
   27MOL   O16324655   1.292   1.893   0.650  0.1425 -0.5674  0.1688
   27MOL   C16424656   1.521   1.977   0.516 -0.2513  0.2331 -0.0576
   27MOL   C16524657   1.642   2.038   0.477  0.6486  0.4456 -0.4971
   27MOL   H16624658   2.322   1.399   1.205  0.0330 -1.4158  2.8435
   27MOL   H16724659   2.307   1.443   1.365  1.8689 -2.6800 -0.1345
   27MOL   H16824660   2.290   1.696   1.288  1.8310 -0.5757  1.2393
   27MOL   H16924661   2.151   1.594   1.254  0.1360 -1.9821 -0.2384
   27MOL   H17024662   2.378   1.681   1.068  0.0835 -0.5805 -0.0364
   27MOL   H17124663   2.273   1.562   1.011  2.0243  1.0241 -1.8343
   27MOL   H17224664   2.180   1.839   1.107  0.3525 -0.5376  0.9309
   27MOL   H17324665   2.083   1.709   1.033  0.2267 -0.3997  2.1722
   27MOL   H17424666   2.307   1.868   0.911  0.4080 -1.9050  2.8570
   27MOL   H17524667   2.265   1.721   0.841 -0.5852  0.2175 -1.1121
   27MOL   H17624668   2.030   1.796   0.814 -0.9899  1.2476  0.3920
   27MOL   H17724669   2.071   1.968   0.863 -5.0598 -0.4099 -0.5625
   27MOL   H17824670   2.244   1.974   0.684 -0.1875  0.1800  0.4006
   27MOL   H17924671   2.182   1.819   0.623 -1.1640 -0.7771  0.0594
   27MOL   H18024672   1.963   1.925   0.581  1.0518 -1.6375 -0.8767
   27MOL   H18124673   2.018   2.066   0.660  0.1089  1.9088 -1.3187
   27MOL   H18224674   2.093   1.994   0.388 -1.5372  0.5613 -0.1197
   27MOL   H18324675   2.204   2.088   0.499 -1.3354 -0.7245  3.8461
   27MOL   H18424676   2.038   2.202   0.313 -0.7491 -0.6772 -0.3305
   27MOL   H18524677   2.036   2.276   0.476  0.6466  1.3913 -3.2756
   27MOL   H18624678   1.533   2.356   0.432  1.6936 -0.3947 -2.3161
   27MOL   H18724679   1.326   2.263   0.508  0.9705  0.5284 -0.0346
   27MOL   H18824680   1.533   1.874   0.546  1.8759 -0.5128 -3.2720
   27MOL   H18924681   1.727   1.971   0.470  0.7911  0.8041 -2.4549
   27MOL   O19024682   1.157   1.841   0.698  0.3291  0.4900 -0.7072
   27MOL   C19124683   1.097   1.749   0.603  0.0068  0.1351  0.4367
   27MOL   C19224684   0.971   1.680   0.661  0.2140 -0.1918 -0.2804
   27MOL   C19324685   0.866   1.778   0.711  0.0200  0.3485  0.5641
   27MOL   C19424686   0.764   1.707   0.800  0.2168 -0.4228  0.1995
   27MOL   C19524687   0.683   1.800   0.883 -0.3461 -0.8762 -0.0053
   27MOL   C19624688   0.587   1.738   0.995 -0.2940  0.6412  0.2503
   27MOL   C19724689   0.469   1.646   0.944  0.2234  0.3517  0.4036
   27MOL   C19824690   0.377   1.713   0.840  0.3507 -0.0499  0.5222
   27MOL   C19924691   0.247   1.629   0.811 -0.6740  0.3401 -0.6791
   27MOL   C20024692   0.269   1.507   0.718 -0.6903 -0.2343  1.2114
   27MOL   O20124693   0.144   1.437   0.703  0.3164 -0.7866 -0.4385
   27MOL   C20224694   0.131   1.338   0.608 -0.0594  0.3495 -0.4448
   27MOL   O20324695   0.221   1.303   0.528  0.4391 -0.3684 -0.3025
   27MOL   C20424696   0.004   1.265   0.619 -1.2293  0.3785  0.5404
   27MOL   C20524697   7.869   1.317   0.679 -0.7825 -0.0107  0.3556
   27MOL   C20624698   7.748   1.247   0.689 -0.6181  0.2657 -0.9333
   27MOL   C20724699   7.735   1.124   0.627 -0.4162  0.4017 -0.2436
   27MOL   C20824700   7.597   1.068   0.618  0.2112 -0.3873  0.1470
   27MOL   O20924701   7.505   1.127   0.675  0.7896 -0.2487  0.1574
   27MOL   O21024702   7.580   0.948   0.562  0.2433  0.2382 -0.0942
   27MOL   C21124703   7.849   1.062   0.562 -0.5820 -0.7500  0.2292
   27MOL   C21224704   7.971   1.137   0.567  0.1751  0.7933 -0.2149
   27MOL   H21324705   1.071   1.813   0.519 -0.1962  2.1661  2.0122
   27MOL   H21424706   1.161   1.670   0.562 -0.9614  0.8487 -2.5734
   27MOL   H21524707   0.993   1.604   0.737  0.1454  1.3293  1.2819
   27MOL   H21624708   0.942   1.611   0.582  1.7500 -0.3732 -0.7111
   27MOL   H21724709   0.923   1.854   0.765 -1.2022  1.3123  0.4907
   27MOL   H21824710   0.811   1.833   0.635  0.8078  1.1242  0.5483
   27MOL   H21924711   0.813   1.627   0.855  1.7725  0.2683 -0.1599
   27MOL   H22024712   0.690   1.648   0.745  1.6038 -1.0900 -0.9817
   27MOL   H22124713   0.752   1.876   0.920 -1.2042 -0.6776  1.1982
   27MOL   H22224714   0.607   1.849   0.822 -0.8860  0.4219  1.6614
   27MOL   H22324715   0.642   1.697   1.080  1.4582  4.4203  1.0337
   27MOL   H22424716   0.545   1.830   1.037 -0.6306  0.6279 -0.0595
   27MOL   H22524717   0.504   1.552   0.903  2.4478  0.9468  0.8958
   27MOL   H22624718   0.416   1.607   1.031 -0.1752 -2.3423 -1.0212
   27MOL   H22724719   0.340   1.812   0.864 -0.7256 -0.3307  0.0188
   27MOL   H22824720   0.433   1.731   0.748  1.6427 -0.9403  1.1133
   27MOL   H22924721   0.188   1.699   0.753 -1.3278  0.5516  0.2248
   27MOL   H23024722   0.195   1.603   0.904  1.1404 -1.1707 -0.0384
   27MOL   H23124723   0.353   1.446   0.754 -0.5075 -1.5798 -1.3598
   27MOL   H23224724   0.297   1.538   0.618  0.3994  0.6580  1.7766
   27MOL   H23324725   7.881   1.414   0.723 -1.1226 -1.0510  2.8031
   27MOL   H23424726   7.672   1.299   0.745  0.7875  0.6777  0.6267
   27MOL   H23524727   7.838   0.971   0.506 -0.6420  0.5121 -1.8608
   27MOL   H23624728   0.076   1.103   0.506 -0.8488 -0.2273 -1.0538
   27MOL   O23724729   7.440   0.916   0.507  0.2217  0.3889 -0.8358
   27MOL   C23824730   7.386   0.813   0.587 -0.7074 -0.2153 -0.0583
   27MOL   C23924731   7.270   0.761   0.499 -0.3257  0.1464 -0.1471
   27MOL   C24024732   7.331   0.710   0.364 -0.4399 -1.1212  0.3123
   27MOL   C24124733   7.221   0.660   0.276 -0.0322 -0.1664  0.4208
   27MOL   C24224734   7.261   0.633   0.130 -0.3620 -0.6315  0.1538
   27MOL   C24324735   7.151   0.557   0.052 -0.6980  0.6744 -0.1690
   27MOL   C24424736   7.012   0.630   0.049 -0.1732 -0.6533 -0.0851
   27MOL   C24524737   6.918   0.554   7.942  0.4182  0.0121 -0.2133
   27MOL   C24624738   6.787   0.621   7.915  0.1710 -0.0170  0.6502
   27MOL   C24724739   6.722   0.530   7.813  0.0077  0.1874  0.0328
   27MOL   O24824740   6.612   0.605   7.758  0.3365  0.0975  0.0221
   27MOL   C24924741   6.522   0.547   7.676  0.6400 -0.1177 -0.3252
   27MOL   O25024742   6.534   0.428   7.641 -0.2469 -0.2343  0.2909
   27MOL   C25124743   6.425   0.643   7.616 -0.5635  0.0735 -0.1681
   27MOL   C25224744   6.346   0.600   7.510 -0.6382 -0.1374  0.3063
   27MOL   C25324745   6.253   0.682   7.446 -0.4007  0.7915  0.6390
   27MOL   C25424746   6.228   0.808   7.505 -0.1035  0.4550  0.8380
   27MOL   C25524747   6.117   0.894   7.451  0.1342 -0.0500 -0.2081
   27MOL   O25624748   6.021   0.858   7.389  0.4504 -0.1928  0.0328
   27MOL   O25724749   6.132   1.022   7.476  0.1546  0.1389  0.0431
   27MOL   C25824750   6.293   0.842   7.626 -0.3451  0.2120 -0.2684
   27MOL   C25924751   6.397   0.763   7.686  0.1987 -0.2757 -0.0255
   27MOL   H26024752   7.463   0.737   0.597 -0.1781  0.2635 -0.4388
   27MOL   H26124753   7.351   0.852   0.682  0.5252 -0.2884  0.4275
   27MOL   H26224754   7.209   0.850   0.484  0.8819  0.8156 -1.1592
   27MOL   H26324755   7.223   0.689   0.566  0.1748  0.6446  0.7579
   27MOL   H26424756   7.385   0.785   0.307 -1.2231 -1.3198 -0.6991
   27MOL   H26524757   7.395   0.625   0.387 -0.1903 -0.2566  3.0030
   27MOL   H26624758   7.129   0.719   0.279  0.8722  1.3556 -1.0770
   27MOL   H26724759   7.185   0.563   0.310  0.6623 -0.2123  1.0174
   27MOL   H26824760   7.300   0.718   0.074 -0.5599 -1.5903 -1.4687
   27MOL   H26924761   7.334   0.554   0.142 -0.2600 -0.3760  1.2276
   27MOL   H27024762   7.179   0.544   7.925  0.3827 -0.0248  0.2055
   27MOL   H27124763   7.133   0.457   0.092 -0.4860  0.6807 -0.0609
   27MOL   H27224764   6.966   0.648   0.146 -1.0836  1.0738 -0.8047
   27MOL   H27324765   7.022   0.730   0.007 -0.9076 -1.6378 -2.7397
   27MOL   H27424766   6.976   0.523   7.855 -0.4349  0.1443 -0.8355
   27MOL   H27524767   6.894   0.457   0.008  1.0293 -0.9069 -1.8377
   27MOL   H27624768   6.800   0.720   7.873 -0.3638  0.2054  1.0024
   27MOL   H27724769   6.727   0.624   0.029 -0.9398 -0.3243 -0.0507
   27MOL   H27824770   6.687   0.437   7.858  1.3078  0.0436  0.7564
   27MOL   H27924771   6.798   0.498   7.742  0.0353 -1.9387  1.0207
   27MOL   H28024772   6.374   0.502   7.473  0.9316 -0.2463  1.6830
   27MOL   H28124773   6.205   0.649   7.355  1.2453  0.4537 -0.1152
   27MOL   H28224774   6.279   0.935   7.679  1.8784  0.7288 -0.5408
   27MOL   H28324775   6.457   0.802   7.767 -0.0689 -0.6840  0.3715
   27MOL   O28424776   6.027   1.105   7.412 -0.0011  0.0388 -0.2022
   27MOL   C28524777   6.070   1.146   7.285 -0.6080  0.1693  0.1056
   27MOL   C28624778   6.095   1.298   7.296  0.1837 -0.0270  0.1939
   27MOL   C28724779   6.119   1.366   7.162 -0.4376 -0.2102  0.1987
   27MOL   C28824780   6.120   1.517   7.167 -0.1165 -0.3644 -0.6787
   27MOL   C28924781   6.244   1.575   7.248 -0.5638 -0.5524 -0.1373
   27MOL   C29024782   6.271   1.721   7.201  0.5178 -0.3546 -0.6385
   27MOL   C29124783   6.405   1.780   7.243  0.2943  0.0591  1.1472
   27MOL   C29224784   6.441   1.920   7.194 -0.8688  0.5945  0.3211
   27MOL   C29324785   6.589   1.943   7.225 -0.7218  0.1583 -0.1499
   27MOL   C29424786   6.608   2.098   7.207 -0.1507 -0.3937  0.0554
   27MOL   O29524787   6.577   2.143   7.078 -0.4704 -0.3194 -0.3416
   27MOL   C29624788   6.637   2.257   7.026 -0.7511  0.2056 -0.3397
   27MOL   O29724789   6.727   2.318   7.086  0.0436 -0.1411  0.3326
   27MOL   C29824790   6.579   2.299   6.899 -0.0563 -0.1874  0.7590
   27MOL   C29924791   6.647   2.392   6.812 -0.3225 -0.6125 -0.0243
   27MOL   C30024792   6.574   2.429   6.693 -0.3324 -0.1478  0.3174
   27MOL   C30124793   6.445   2.378   6.657  0.0696 -0.7297  0.3289
   27MOL   C30224794   6.386   2.430   6.531 -0.4416 -0.3769 -0.4590
   27MOL   O30324795   6.453   2.505   6.462  0.0442 -0.1423 -0.6268
   27MOL   O30424796   6.267   2.392   6.507 -0.3172 -0.7878  0.3181
   27MOL   C30524797   6.379   2.284   6.742  0.0692  0.2959 -0.0736
   27MOL   C30624798   6.448   2.251   6.859  0.6034  0.4005 -0.7177
   27MOL   H30724799   6.169   1.108   7.261 -0.8064 -1.8881  2.3016
   27MOL   H30824800   5.994   1.114   7.213  0.9928 -1.6461 -0.8286
   27MOL   H30924801   6.175   1.309   7.368 -0.3192 -0.1726  0.7839
   27MOL   H31024802   6.006   1.345   7.339 -0.7109 -0.7696 -0.7881
   27MOL   H31124803   6.217   1.341   7.122 -0.5072  0.4161 -0.3872
   27MOL   H31224804   6.037   1.337   7.095 -3.4385  2.2446  2.6461
   27MOL   H31324805   6.027   1.554   7.210 -0.0790  2.0488 -2.5815
   27MOL   H31424806   6.128   1.557   7.066  0.8361  3.5740  0.8742
   27MOL   H31524807   6.226   1.577   7.356  0.1266  1.0807 -0.0336
   27MOL   H31624808   6.335   1.518   7.231 -1.4873 -2.5977  1.5954
   27MOL   H31724809   6.260   1.728   7.092  1.7506 -1.1096 -0.8229
   27MOL   H31824810   6.190   1.784   7.238  1.1866  0.3586 -0.3777
   27MOL   H31924811   6.425   1.786   7.350  0.9884  1.7222  0.9254
   27MOL   H32024812   6.487   1.717   7.209  1.0767  0.9157  1.4239
   27MOL   H32124813   6.428   1.928   7.086 -0.7822  1.3979  0.3719
   27MOL   H32224814   6.374   1.988   7.247  0.7365  1.2842  1.5099
   27MOL   H32324815   6.665   1.878   7.181 -0.1884  0.3315  0.4980
   27MOL   H32424816   6.604   1.935   7.333 -2.2369  1.0497  0.1372
   27MOL   H32524817   6.714   2.110   7.228 -0.3364 -0.3081  0.9970
   27MOL   H32624818   6.557   2.157   7.283 -0.0705 -0.0991 -0.1228
   27MOL   H32724819   6.743   2.431   6.843  0.4737 -1.4081 -1.4198
   27MOL   H32824820   6.626   2.495   6.624  1.0954 -2.7514 -1.1637
   27MOL   H32924821   6.277   2.258   6.719  0.7430 -2.4401 -0.0782
   27MOL   H33024822   6.385   2.192   6.924 -0.6283  0.7690 -1.5495
   27MOL   O33124823   6.203   2.443   6.382  0.3488  0.3150 -0.6418
   27MOL   C33224824   6.248   2.363   6.274 -0.4365  0.4749  0.2416
   27MOL   C33324825   6.215   2.421   6.139 -0.0688 -0.7423 -0.3127
   27MOL   C33424826   6.231   2.571   6.147 -0.5868 -0.6189 -0.2041
   27MOL   C33524827   6.218   2.644   6.016  0.1388 -0.4491  0.1881
   27MOL   C33624828   6.314   2.588   5.904  0.0421 -0.5103 -0.3508
   27MOL   C33724829   6.305   2.671   5.782  0.0441  0.6237 -0.5012
   27MOL   C33824830   6.390   2.624   5.663  0.3843  0.1645 -0.5358
   27MOL   C33924831   6.346   2.684   5.528  0.3711  0.0145  0.5718
   27MOL   C34024832   6.423   2.635   5.398  0.1753 -0.4282 -0.0171
   27MOL   C34124833   6.371   2.508   5.342  0.2306  0.2239  0.5683
   27MOL   O34224834   6.436   2.489   5.215  0.5211  0.5269  0.3465
   27MOL   C34324835   6.404   2.401   5.126 -0.1610 -0.0882 -0.4214
   27MOL   O34424836   6.321   2.311   5.142  1.1162 -0.5211  0.3048
   27MOL   C34524837   6.480   2.424   5.003 -0.0325  0.1774 -0.0399
   27MOL   C34624838   6.570   2.538   4.982 -0.1503 -0.2269 -0.5382
   27MOL   C34724839   6.637   2.557   4.861 -0.5447  0.0270 -0.5207
   27MOL   C34824840   6.616   2.470   4.756  0.0094 -0.1180  0.2384
   27MOL   C34924841   6.683   2.496   4.627  0.4469  0.9126  0.1379
   27MOL   O35024842   6.774   2.577   4.621 -0.1566  0.1602  0.4159
   27MOL   O35124843   6.617   2.439   4.518 -0.5778 -0.2705 -0.2282
   27MOL   C35224844   6.536   2.359   4.774 -0.0668  0.1363 -0.2097
   27MOL   C35324845   6.466   2.338   4.898 -0.1040  0.2729 -0.4391
   27MOL   H35424846   6.356   2.353   6.262 -0.7958 -0.1546 -2.9460
   27MOL   H35524847   6.213   2.262   6.294  0.2664  0.3539  0.8930
   27MOL   H35624848   6.112   2.403   6.110 -1.1015  2.6440  0.9026
   27MOL   H35724849   6.281   2.373   6.067 -1.5836 -0.2647 -2.0663
   27MOL   H35824850   6.156   2.620   6.210  0.6610 -1.8313  2.2932
   27MOL   H35924851   6.327   2.589   6.196  0.2474 -0.6095 -1.8335
   27MOL   H36024852   6.248   2.747   6.035 -3.2599  0.5257  0.5812
   27MOL   H36124853   6.116   2.656   5.980  0.4156 -0.3201 -0.5723
   27MOL   H36224854   6.414   2.594   5.946  0.1521  1.8379 -0.8483
   27MOL   H36324855   6.289   2.485   5.880 -0.9131 -0.4365  0.3254
   27MOL   H36424856   6.200   2.673   5.752  0.4703  1.7072 -1.9617
   27MOL   H36524857   6.338   2.770   5.812  1.2106 -0.3460  1.5118
   27MOL   H36624858   6.496   2.647   5.678  0.3063  0.4929 -0.4920
   27MOL   H36724859   6.377   2.516   5.657 -2.1986  0.4999 -1.9006
   27MOL   H36824860   6.238   2.668   5.515  0.3930  1.8499 -2.1404
   27MOL   H36924861   6.342   2.792   5.539 -0.9500  0.0272  0.0456
   27MOL   H37024862   6.529   2.619   5.419  0.6878  0.2644 -1.9318
   27MOL   H37124863   6.433   2.708   5.318  1.9989 -0.3009  0.3005
   27MOL   H37224864   6.262   2.508   5.334  0.3414 -0.3645 -1.1419
   27MOL   H37324865   6.407   2.419   5.395 -1.4245 -1.8041 -1.6004
   27MOL   H37424866   6.592   2.612   5.057 -0.8091 -1.0777  0.5119
   27MOL   H37524867   6.708   2.639   4.860  0.4379 -0.6726  3.2334
   27MOL   H37624868   6.516   2.291   4.692  0.4675 -3.5276  2.5584
   27MOL   H37724869   6.400   2.254   4.910 -0.0439  0.1348 -1.0852
   27MOL   O37824870   6.655   2.497   4.387  0.3784  0.3615 -0.3048
   27MOL   C37924871   6.750   2.418   4.320 -0.5475 -0.1589  0.6064
   27MOL   C38024872   6.884   2.395   4.398  0.3170  0.2698  0.5337
   27MOL   C38124873   6.985   2.312   4.322 -0.6635  0.4487  0.4826
   27MOL   C38224874   7.110   2.291   4.408  0.6631 -0.4819  0.2970
   27MOL   C38324875   7.228   2.250   4.319  0.3313 -0.1641 -0.1707
   27MOL   C38424876   7.203   2.123   4.243 -0.0177 -0.9370  0.3256
   27MOL   C38524877   7.166   1.996   4.316  0.0614  0.1217 -0.0024
   27MOL   C38624878   7.132   1.880   4.216 -0.6730  0.1003 -0.9589
   27MOL   C38724879   7.048   1.770   4.286  0.3106 -0.0688 -0.2284
   27MOL   C38824880   6.986   1.676   4.183  0.6688 -0.3753 -0.1915
   27MOL   O38924881   6.861   1.724   4.133 -0.5590 -0.1269  0.1965
   27MOL   C39024882   6.765   1.640   4.091  0.4261 -1.3728 -0.5669
   27MOL   O39124883   6.765   1.518   4.093 -0.1983  0.6886 -0.6985
   27MOL   C39224884   6.643   1.709   4.026 -0.4208  0.2730  0.6834
   27MOL   C39324885   6.519   1.643   4.001  0.0577  0.4308  1.3346
   27MOL   C39424886   6.417   1.708   3.926  0.5812  0.2625 -0.1372
   27MOL   C39524887   6.435   1.839   3.887 -0.2826 -0.5132 -0.7058
   27MOL   C39624888   6.335   1.905   3.801  1.1827 -0.5238  0.1674
   27MOL   O39724889   6.228   1.847   3.774 -1.0801  0.1136 -0.4603
   27MOL   O39824890   6.377   2.031   3.755  0.2319  0.5734  0.7037
   27MOL   C39924891   6.550   1.910   3.924  0.5323 -0.2565 -0.2754
   27MOL   C40024892   6.654   1.845   3.991 -0.9100 -0.8220 -0.4563
   27MOL   H40124893   6.698   2.328   4.290 -1.4057  0.1973  1.0153
   27MOL   H40224894   6.768   2.467   4.224 -1.2066 -1.8599 -0.4009
   27MOL   H40324895   6.861   2.343   4.491 -1.4955 -0.2645 -0.1974
   27MOL   H40424896   6.925   2.493   4.423  0.1771  1.2586 -2.9049
   27MOL   H40524897   6.939   2.217   4.294 -1.1557  0.6294  0.6750
   27MOL   H40624898   7.017   2.359   4.229 -1.9981  0.2369 -0.0912
   27MOL   H40724899   7.091   2.210   4.478  0.3498 -0.8819 -0.2460
   27MOL   H40824900   7.128   2.386   4.459 -0.4129 -0.4686  0.6647
   27MOL   H40924901   7.254   2.319   4.239 -0.9748  0.5804  0.0381
   27MOL   H41024902   7.315   2.238   4.384 -0.0505  2.7255  0.9271
   27MOL   H41124903   7.125   2.146   4.170  1.1730 -0.3402 -0.7619
   27MOL   H41224904   7.292   2.104   4.184  2.1397 -1.9347  3.7330
   27MOL   H41324905   7.244   1.963   4.386  0.8033  0.2541 -0.7580
   27MOL   H41424906   7.080   2.017   4.379  0.7078 -0.9786  1.2855
   27MOL   H41524907   7.076   1.926   4.135  0.2648  0.6964 -1.2797
   27MOL   H41624908   7.218   1.835   4.167 -0.1728 -0.1980  0.1642
   27MOL   H41724909   6.966   1.822   4.336 -0.5371 -1.1243 -0.4929
   27MOL   H41824910   7.109   1.723   4.363  1.9307  2.5686  0.1440
   27MOL   H41924911   6.967   1.578   4.225 -2.7051  0.0420 -0.6421
   27MOL   H42024912   7.042   1.678   4.089 -1.6848 -0.8139 -1.6462
   27MOL   H42124913   6.502   1.540   4.030  2.1159 -0.6726 -1.1984
   27MOL   H42224914   6.330   1.650   3.903  1.6863 -0.4966 -2.5768
   27MOL   H42324915   6.567   2.014   3.902 -1.5231  0.0827 -0.3368
   27MOL   H42424916   6.745   1.904   3.993 -0.8186 -0.9635 -0.5056
   27MOL   O42524917   6.267   2.098   3.674  0.4083  0.2733  0.2090
   27MOL   C42624918   6.279   2.056   3.541 -0.5272  0.2743  0.1326
   27MOL   C42724919   6.405   2.131   3.484  0.5123  0.4059 -0.2924
   27MOL   C42824920   6.433   2.078   3.340 -0.3998  0.1366  0.0081
   27MOL   C42924921   6.577   2.100   3.283 -0.2734 -0.9924  0.3744
   27MOL   C43024922   6.598   2.049   3.136 -0.2293 -0.0133 -0.4936
   27MOL   C43124923   6.732   2.091   3.072  0.2393  0.0884  0.5740
   27MOL   C43224924   6.755   2.029   2.934 -0.1825  0.3358 -0.2027
   27MOL   C43324925   6.673   2.103   2.825  0.2962  0.5275 -0.2641
   27MOL   C43424926   6.705   2.063   2.684 -0.5418  0.4499  0.0849
   27MOL   C43524927   6.618   2.128   2.589  0.2975 -0.1388  0.7622
   27MOL   O43624928   6.661   2.090   2.462 -0.1849 -0.5570  0.1514
   27MOL   C43724929   6.602   2.151   2.357 -0.0742  0.5221  0.3010
   27MOL   O43824930   6.502   2.227   2.371  0.1336 -0.5475  0.6834
   27MOL   C43924931   6.660   2.114   2.225  0.5195 -0.6371  0.5384
   27MOL   C44024932   6.587   2.162   2.114 -0.2091  0.0966  0.2022
   27MOL   C44124933   6.638   2.131   1.987 -0.1802  0.6294 -0.0157
   27MOL   C44224934   6.759   2.053   1.970  0.2119  0.8342 -0.0089
   27MOL   C44324935   6.799   2.011   1.832 -0.2700  0.7322  0.3767
   27MOL   O44424936   6.740   2.050   1.728 -0.4747  0.7547  0.6581
   27MOL   O44524937   6.908   1.919   1.833  0.4650  0.4201 -0.1845
   27MOL   C44624938   6.830   2.003   2.084 -0.5155  0.7520 -0.1509
   27MOL   C44724939   6.771   2.033   2.212  0.5040 -0.9315 -0.3925
   27MOL   H44824940   6.296   1.949   3.544 -2.0528  0.0741  3.0231
   27MOL   H44924941   6.190   2.084   3.485 -0.2811  2.1770  0.6440
   27MOL   H45024942   6.488   2.100   3.546  0.0477  0.9414  0.6047
   27MOL   H45124943   6.401   2.240   3.489 -1.7688  0.2937  1.0720
   27MOL   H45224944   6.409   1.972   3.333 -1.6887  0.4931 -1.3223
   27MOL   H45324945   6.353   2.110   3.274 -1.2437 -2.2984 -0.2128
   27MOL   H45424946   6.642   2.061   3.362 -3.1127 -3.4989  1.5859
   27MOL   H45524947   6.590   2.208   3.286  0.9396 -1.1310  0.3293
   27MOL   H45624948   6.576   1.943   3.123 -0.0184  0.1105 -1.9127
   27MOL   H45724949   6.514   2.100   3.090 -0.2400 -0.0067 -0.4658
   27MOL   H45824950   6.741   2.199   3.061  1.8291 -0.1061 -0.1234
   27MOL   H45924951   6.816   2.051   3.128  0.0184  0.7359  1.3824
   27MOL   H46024952   6.862   2.039   2.912 -0.7123  2.0902 -2.1038
   27MOL   H46124953   6.742   1.921   2.929  0.6092  0.2763 -1.2569
   27MOL   H46224954   6.565   2.098   2.843  0.1975  2.2291 -0.2935
   27MOL   H46324955   6.701   2.208   2.831  0.5601  0.4237  0.3132
   27MOL   H46424956   6.698   1.956   2.667 -0.1712  0.4555 -0.1071
   27MOL   H46524957   6.808   2.095   2.673 -0.7136  1.4879  1.3043
   27MOL   H46624958   6.602   2.234   2.611 -0.6871  0.1291 -1.1061
   27MOL   H46724959   6.517   2.089   2.599  0.0906  0.1652 -0.1182
   27MOL   H46824960   6.506   2.234   2.126  1.8281  2.3996  0.5258
   27MOL   H46924961   6.578   2.160   1.903 -2.9573  1.5121  2.2118
   27MOL   H47024962   6.923   1.950   2.073 -1.6374 -1.3767  0.2674
   27MOL   H47124963   6.821   2.003   2.303 -2.6120  2.1390  2.5335
   27MOL   O47224964   6.917   1.860   1.695  0.6024  0.4812 -0.4817
   27MOL   C47324965   7.048   1.878   1.639  0.0296  0.3407 -0.4235
   27MOL   C47424966   7.147   1.798   1.723 -0.5014  0.4653 -0.4261
   27MOL   C47524967   7.112   1.646   1.714  0.6786 -0.9507 -0.3120
   27MOL   C47624968   7.123   1.572   1.855  0.2923 -0.7323 -0.4390
   27MOL   C47724969   7.264   1.577   1.919 -0.4264 -0.6557  0.2233
   27MOL   C47824970   7.280   1.507   2.054  0.6406  0.1901 -0.9088
   27MOL   C47924971   7.410   1.532   2.124  0.6150  0.5510  0.2232
   27MOL   C48024972   7.517   1.440   2.060 -0.3156  0.5392  0.6128
   27MOL   C48124973   7.659   1.464   2.116 -0.1801 -0.7602  0.3911
   27MOL   C48224974   7.762   1.380   2.043 -0.6086 -0.4009  0.1824
   27MOL   O48324975   7.844   1.449   1.944  0.4140  0.5468  0.1029
   27MOL   C48424976   7.817   1.445   1.814 -0.1161 -0.4705 -0.6397
   27MOL   O48524977   7.745   1.358   1.761  0.0724  0.3322 -0.3779
   27MOL   C48624978   7.865   1.567   1.739 -0.2007  0.6204 -0.9208
   27MOL   C48724979   7.827   1.585   1.607  0.4665 -0.3964  0.5104
   27MOL   C48824980   7.877   1.692   1.535  0.5173  0.1643 -0.0802
   27MOL   C48924981   7.963   1.795   1.590  0.1020  0.7133  0.1909
   27MOL   C49024982   0.026   1.912   1.509 -0.0084  0.7506  0.6769
   27MOL   O49124983   7.955   1.926   1.392 -0.0015 -0.0181  0.4335
   27MOL   O49224984   0.123   1.986   1.560 -0.6888  0.1376  0.1084
   27MOL   C49324985   0.025   1.777   1.726 -1.2869  0.0877  0.9820
   27MOL   C49424986   7.957   1.664   1.800 -0.0379  0.2366  0.0812
   27MOL   H49524987   7.044   1.828   1.543  0.0904 -0.8144  0.1646
   27MOL   H49624988   7.070   1.984   1.623 -2.4206  0.6898 -1.6557
   27MOL   H49724989   7.150   1.834   1.826  0.3250 -1.0109  0.0731
   27MOL   H49824990   7.245   1.819   1.679 -0.0784 -1.3381 -0.3721
   27MOL   H49924991   7.010   1.625   1.683  0.5855  0.6934 -1.1826
   27MOL   H50024992   7.179   1.588   1.649  3.2188 -1.4775  2.6658
   27MOL   H50124993   7.090   1.468   1.858  0.2938 -0.7466 -0.8198
   27MOL   H50224994   7.050   1.623   1.917 -0.3143 -1.4362 -0.5708
   27MOL   H50324995   7.339   1.533   1.854 -0.2067  1.6919 -1.1836
   27MOL   H50424996   7.299   1.680   1.929  0.4953 -0.5134 -3.5486
   27MOL   H50524997   7.200   1.534   2.122  1.3201 -0.6138  0.2150
   27MOL   H50624998   7.267   1.400   2.042 -0.9224  0.2845 -0.1846
   27MOL   H50724999   7.441   1.636   2.126  0.3056  0.6404  0.3453
   27MOL   H50825000   7.406   1.500   2.228  0.2075 -3.0791 -0.8173
   27MOL   H50925001   7.494   1.334   2.067  2.4419 -0.0097  2.1280
   27MOL   H51025002   7.526   1.468   1.955 -1.2873  2.2078  0.9505
   27MOL   H51125003   7.673   1.439   2.222 -0.2051  0.6521  0.7360
   27MOL   H51225004   7.696   1.566   2.113  0.5079 -0.9665  1.5235
   27MOL   H51325005   7.704   1.293   2.013  0.4811 -1.2706  0.5778
   27MOL   H51425006   7.828   1.339   2.120 -0.3990  0.9047  0.7107
   27MOL   H51525007   7.765   1.507   1.566  4.5054 -3.3835 -0.2482
   27MOL   H51625008   7.844   1.691   1.432  0.7149 -2.0010 -0.1421
   27MOL   H51725009   0.089   1.849   1.775 -2.4516  1.9159 -0.1327
   27MOL   H51825010   0.006   1.649   1.904 -0.4252 -0.5035  0.0781
   27MOL   O51925011   0.185   2.092   1.466  0.4454  0.1492  0.0003
   27MOL   C52025012   0.111   2.212   1.495 -0.4238  0.9386  1.7321
   27MOL   C52125013   0.147   2.316   1.386 -0.6005  0.4031 -0.2622
   27MOL   C52225014   0.111   2.260   1.244  0.3271  0.1418  0.5068
   27MOL   C52325015   7.945   2.302   1.199  0.0033 -0.4575  0.1618
   27MOL   C52425016   7.833   2.216   1.254 -0.2526 -0.0225 -0.0737
   27MOL   C52525017   7.699   2.259   1.194 -0.4255  0.3474 -0.5177
   27MOL   C52625018   7.586   2.161   1.215  0.0802 -0.3568 -0.1485
   27MOL   C52725019   7.455   2.200   1.130 -0.5735 -0.7093 -0.3464
   27MOL   C52825020   7.330   2.121   1.155  0.0433  0.5013 -0.1862
   27MOL   C52925021   7.347   1.977   1.083 -0.0778  0.0636  0.1077
   27MOL   O53025022   7.221   1.915   1.064  0.4141 -0.0758 -0.6996
   27MOL   C53125023   7.143   1.881   1.173 -1.0823  0.4634  0.8057
   27MOL   O53225024   7.181   1.891   1.288 -0.2510 -0.1103 -0.4173
   27MOL   C53325025   7.015   1.815   1.141  0.9446  0.6320  0.0485
   27MOL   C53425026   6.928   1.774   1.248  0.0362  0.3122 -0.1216
   27MOL   C53525027   6.812   1.708   1.221 -0.1769  0.1792  0.1412
   27MOL   C53625028   6.773   1.678   1.089  0.4119 -0.2333 -0.5205
   27MOL   C53725029   6.652   1.612   1.050 -0.3515  0.3566 -0.1521
   27MOL   O53825030   6.588   1.634   0.946  0.5767 -0.8699  0.2743
   27MOL   O53925031   6.597   1.541   1.151  0.4492  0.2256  0.0820
   27MOL   C54025032   6.858   1.718   0.983  0.8904 -0.3553 -0.3218
   27MOL   C54125033   6.980   1.782   1.007  0.1756 -0.1012  0.2401
   27MOL   H54225034   0.006   2.185   1.494  0.4212 -2.5938  0.3833
   27MOL   H54325035   0.139   2.249   1.594  1.6682 -0.3486  1.6593
   27MOL   H54425036   0.255   2.326   1.388 -0.7368  1.9944 -0.4052
   27MOL   H54525037   0.113   2.418   1.404 -0.1014  0.5468 -0.1410
   27MOL   H54625038   0.176   2.297   1.165 -0.0852 -1.1735 -0.4591
   27MOL   H54725039   0.135   2.155   1.231 -1.8417 -0.1535 -1.3837
   27MOL   H54825040   7.937   2.298   1.090  0.2814 -1.1364  0.1639
   27MOL   H54925041   7.919   2.405   1.223 -3.2349 -0.7538 -1.7250
   27MOL   H55025042   7.844   2.114   1.219  1.2012  0.1864 -0.2752
   27MOL   H55125043   7.834   2.218   1.363  0.5205 -0.4097 -0.0719
   27MOL   H55225044   7.661   2.354   1.232 -0.5976  0.6172 -1.3389
   27MOL   H55325045   7.717   2.272   1.087  0.6925 -0.2006 -0.4028
   27MOL   H55425046   7.619   2.060   1.192  3.1097  0.2549  1.2097
   27MOL   H55525047   7.569   2.172   1.322  0.0802  2.4699 -0.4016
   27MOL   H55625048   7.431   2.304   1.147 -1.6192 -1.3647  2.4413
   27MOL   H55725049   7.484   2.185   1.026 -0.8026  0.4461 -0.5817
   27MOL   H55825050   7.242   2.180   1.129 -1.1119 -0.2966  1.7603
   27MOL   H55925051   7.304   2.124   1.261  1.6275 -0.7425  0.2382
   27MOL   H56025052   7.417   1.921   1.145 -0.1045 -1.5397 -1.2886
   27MOL   H56125053   7.390   1.982   0.984 -1.6388 -0.6292 -0.6188
   27MOL   H56225054   6.958   1.790   1.351  1.9223 -0.8621 -0.4732
   27MOL   H56325055   6.746   1.676   1.300  1.5973 -1.1147  1.1134
   27MOL   H56425056   6.831   1.703   0.880  0.7858 -1.6680 -0.1170
   27MOL   H56525057   7.035   1.823   0.924 -0.9535  0.8959 -0.0453
   27MOL   O56625058   6.450   1.487   1.123 -0.2283  0.7574  0.8136
   27MOL   C56725059   6.466   1.356   1.071 -0.3492  0.2934  0.3781
   27MOL   C56825060   6.332   1.280   1.061 -0.4713 -0.0894  0.6987
   27MOL   C56925061   6.249   1.282   1.190  0.2409  0.0544 -0.1911
   27MOL   C57025062   6.110   1.219   1.193  0.0505  0.4463  0.3156
   27MOL   C57125063   6.099   1.083   1.118 -0.1898 -0.2984  0.3671
   27MOL   C57225064   6.015   1.089   0.993  0.0028 -0.1595  0.0146
   27MOL   C57325065   6.016   0.956   0.915  0.2199  0.7159 -0.4619
   27MOL   C57425066   5.931   0.970   0.783  0.1798  0.5212 -0.1077
   27MOL   C57525067   5.962   1.090   0.694 -0.3847  0.6017  0.7221
   27MOL   C57625068   5.869   1.107   0.572 -0.2922  0.3184  0.1024
   27MOL   O57725069   5.898   1.232   0.519 -0.6664  0.3132  0.0840
   27MOL   C57825070   5.849   1.255   0.399 -0.1535 -0.5314 -0.4690
   27MOL   O57925071   5.774   1.180   0.336 -0.2839  0.3192 -0.2371
   27MOL   C58025072   5.886   1.385   0.340  0.4245 -0.2604  0.2559
   27MOL   C58125073   5.866   1.413   0.205 -0.6497  0.3881 -0.1903
   27MOL   C58225074   5.912   1.526   0.135  0.0897  0.1355  0.0958
   27MOL   C58325075   5.980   1.629   0.213  0.3084 -0.4143 -0.3027
   27MOL   C58425076   6.031   1.758   0.148 -0.6406 -0.7783  0.2906
   27MOL   O58525077   6.105   1.837   0.205 -0.3664  1.1784  0.0252
   27MOL   O58625078   5.993   1.774   0.021  0.0709 -0.1273 -0.3897
   27MOL   C58725079   5.998   1.604   0.353  0.0412 -0.0294 -0.3116
   27MOL   C58825080   5.955   1.482   0.414 -0.0502 -0.1320 -0.7928
   27MOL   H58925081   6.515   1.354   0.974  0.6723 -0.9125  0.8962
   27MOL   H59025082   6.533   1.303   1.137 -1.2163  0.5564  1.4890
   27MOL   H59125083   6.360   1.177   1.040 -1.2093  0.2661 -2.2610
   27MOL   H59225084   6.271   1.312   0.977 -0.8079 -0.5124  0.7750
   27MOL   H59325085   6.308   1.243   1.273  0.8101 -0.9724 -1.0625
   27MOL   H59425086   6.239   1.388   1.215 -0.3758  0.0473 -0.4147
   27MOL   H59525087   6.035   1.292   1.161 -0.5231 -0.1091  0.3864
   27MOL   H59625088   6.096   1.201   1.299 -0.9937  1.0529  0.2888
   27MOL   H59725089   6.191   1.030   1.093 -0.7823 -0.7370 -0.9257
   27MOL   H59825090   6.050   1.009   1.182 -0.6941  0.2526  0.6219
   27MOL   H59925091   5.916   1.119   1.027  0.3817  3.6186 -1.9140
   27MOL   H60025092   6.047   1.174   0.933  0.0518  0.7702  1.3330
   27MOL   H60125093   6.122   0.937   0.897  0.3151  0.8492 -0.0605
   27MOL   H60225094   5.984   0.871   0.975  1.7485  0.1520 -0.4368
   27MOL   H60325095   5.945   0.881   0.722 -1.0483  1.6300 -2.0494
   27MOL   H60425096   5.824   0.980   0.801  0.4898  1.1834  1.4355
   27MOL   H60525097   6.063   1.088   0.654 -1.5534  2.5910 -2.5285
   27MOL   H60625098   5.966   1.184   0.749 -0.6540  1.9116 -1.4434
   27MOL   H60725099   5.765   1.111   0.606 -0.9699 -0.8110 -1.7335
   27MOL   H60825100   5.882   1.021   0.505  1.0727 -0.9628  1.9626
   27MOL   H60925101   5.838   1.333   0.139 -0.6117 -0.4071  0.7376
   27MOL   H61025102   5.895   1.529   0.029  0.8974 -0.3460 -0.0475
   27MOL   H61125103   6.060   1.672   0.410 -0.7391 -0.1775  0.7201
   27MOL   H61225104   5.976   1.467   0.518 -1.3191 -0.1835 -0.5368
   27MOL   O61325105   6.020   1.919   7.940  0.0999  0.0351  0.2424
   27MOL   C61425106   6.148   1.926   7.887 -0.3078  0.1343  1.7667
   27MOL   C61525107   6.189   1.827   7.772  0.0157 -0.0406 -0.2258
   27MOL   C61625108   6.331   1.843   7.718 -0.0690 -0.1985  0.3693
   27MOL   C61725109   6.392   1.726   7.644  0.2354  0.2092  0.0869
   27MOL   C61825110   6.541   1.745   7.619 -0.5482  0.4755 -0.2299
   27MOL   C61925111   6.636   1.748   7.741 -0.6554  0.5532 -0.3474
   27MOL   C62025112   6.782   1.735   7.703  0.3352  0.2352  0.2526
   27MOL   C62125113   6.898   1.754   7.804  0.1631  0.6039 -0.4020
   27MOL   C62225114   7.036   1.757   7.727 -0.4832 -0.2802 -0.0971
   27MOL   C62325115   7.135   1.813   7.821 -0.1901 -0.1687  0.6615
   27MOL   O62425116   7.261   1.847   7.757  0.5811  0.4676  0.2436
   27MOL   C62525117   7.354   1.921   7.827  0.0603 -0.0301 -0.0995
   27MOL   O62625118   7.334   1.974   7.936  0.0499 -0.5204 -0.1397
   27MOL   C62725119   7.496   1.921   7.764  0.2424  0.4923 -0.3824
   27MOL   C62825120   7.514   1.858   7.634 -0.3956  0.9634  0.0320
   27MOL   C62925121   7.645   1.854   7.589 -0.1248 -0.6664  0.3951
   27MOL   C63025122   7.759   1.906   7.662 -0.0709  0.4404  0.3290
   27MOL   C63125123   7.901   1.890   7.622  0.2052 -0.1324 -0.4685
   27MOL   O63225124   0.019   1.904   7.696 -0.1951  0.1097 -0.0561
   27MOL   O63325125   7.921   1.864   7.488 -0.3492  0.0378 -0.2102
   27MOL   C63425126   7.734   1.965   7.791  0.3324  0.0269  0.3633
   27MOL   C63525127   7.603   1.968   7.841 -0.4259  0.1166 -0.3194
   27MOL   H63625128   6.164   2.030   7.860  0.9774 -1.0795 -2.6319
   27MOL   H63725129   6.210   1.913   7.975  1.5554 -0.3835  0.4180
   27MOL   H63825130   6.111   1.827   7.696 -0.6738 -0.1580  0.4670
   27MOL   H63925131   6.198   1.727   7.815 -0.8393 -0.3277 -0.7010
   27MOL   H64025132   6.346   1.930   7.654 -1.0431 -0.4959 -0.2705
   27MOL   H64125133   6.398   1.853   7.804 -0.5308 -4.2469  1.3279
   27MOL   H64225134   6.325   1.721   7.559 -1.2811  1.3224  1.1864
   27MOL   H64325135   6.371   1.635   7.700  0.1018  0.6261  0.7207
   27MOL   H64425136   6.573   1.665   7.553 -1.5597  1.4120 -1.9115
   27MOL   H64525137   6.551   1.838   7.562 -0.8423  0.9722  0.5160
   27MOL   H64625138   6.637   1.847   7.786  1.6199  1.2949 -1.9501
   27MOL   H64725139   6.621   1.676   7.821 -0.3998 -0.9582 -1.6268
   27MOL   H64825140   6.796   1.633   7.668  1.2902  0.4119  0.0864
   27MOL   H64925141   6.795   1.807   7.621  2.2165  1.1020  1.2720
   27MOL   H65025142   6.878   1.842   7.866  2.3850  0.9355 -0.1153
   27MOL   H65125143   6.886   1.660   7.858 -0.3282  0.6457 -0.4421
   27MOL   H65225144   7.025   1.813   7.634 -1.2218  0.0687  0.2042
   27MOL   H65325145   7.060   1.657   7.690  0.8360  0.3037 -0.8640
   27MOL   H65425146   7.155   1.749   7.907 -0.6562 -0.6680  0.3954
   27MOL   H65525147   7.091   1.905   7.860  0.8215  0.5094  0.2263
   27MOL   H65625148   7.431   1.805   7.590  1.3761 -0.2882 -1.8822
   27MOL   H65725149   7.662   1.809   7.492 -2.6880 -1.2882  0.2073
   27MOL   H65825150   7.816   2.000   7.853  1.7404 -1.4056 -0.6726
   27MOL   H65925151   7.587   2.011   7.938  0.5049  0.6311 -0.3968
   27MOL   O66025152   0.089   1.865   7.443  0.0903 -0.6716 -0.2857
   27MOL   C66125153   0.129   1.993   7.418  0.8275 -0.1357  0.9175
   27MOL   C66225154   0.070   2.040   7.286  0.6932 -0.9195  0.4959
   27MOL   C66325155   0.051   2.197   7.282 -0.5595 -0.1186 -0.3554
   27MOL   C66425156   7.955   2.242   7.158 -1.0735  0.0236  0.3952
   27MOL   C66525157   0.059   2.220   7.024 -0.0155  0.6637 -0.1454
   27MOL   C66625158   0.188   2.301   7.006 -0.2347  0.1543 -0.2028
   27MOL   C66725159   0.261   2.269   6.878  1.1193  0.4281  0.2156
   27MOL   C66825160   0.378   2.369   6.851  0.6761 -0.0901 -0.3587
   27MOL   C66925161   0.451   2.336   6.723 -0.2150  0.2460  1.0470
   27MOL   C67025162   0.557   2.437   6.686  0.2098 -0.0503 -0.0837
   27MOL   O67125163   0.497   2.543   6.614  0.1915  0.3817 -0.3339
   27MOL   C67225164   0.574   2.663   6.578  0.0660  0.1139  0.3594
   27MOL   O67325165   0.698   2.667   6.592  0.2260  0.3730 -0.8672
   27MOL   C67425166   0.483   2.775   6.532  0.2212  0.1314 -0.1986
   27MOL   C67525167   0.344   2.768   6.535 -1.1098 -0.0558 -0.6127
   27MOL   C67625168   0.266   2.872   6.490 -0.3143 -0.9284 -0.1491
   27MOL   C67725169   0.321   2.995   6.440  0.4357  0.4512  0.0651
   27MOL   C67825170   0.224   3.105   6.393 -0.4921  0.5153 -0.4855
   27MOL   O67925171   0.102   3.111   6.419  0.1332  0.1199 -0.0663
   27MOL   O68025172   0.287   3.194   6.325 -0.2665  0.1460  0.5770
   27MOL   C68125173   0.457   3.005   6.437  0.0265 -0.2518  0.0696
   27MOL   C68225174   0.538   2.903   6.502 -0.1757  0.7236  0.3742
   27MOL   H68325175   0.099   2.061   7.497  2.3278  0.3629  1.0828
   27MOL   H68425176   0.238   2.001   7.417  0.7645  0.6788 -0.4598
   27MOL   H68525177   7.953   1.991   7.262  0.9150 -0.3217 -1.6280
   27MOL   H68625178   0.136   2.017   7.203  0.9867 -0.8341  0.7080
   27MOL   H68725179   0.003   2.224   7.376  3.8775 -2.9132  2.9255
   27MOL   H68825180   0.149   2.246   7.289 -0.3346 -0.5743 -0.2738
   27MOL   H68925181   7.929   2.347   7.169 -0.7512 -0.0260  1.7269
   27MOL   H69025182   7.865   2.186   7.133 -1.1192  0.1224  0.3368
   27MOL   H69125183   0.078   2.113   7.025 -1.0685  0.4738  1.0867
   27MOL   H69225184   7.972   2.233   6.937  0.0770 -0.3341 -0.3606
   27MOL   H69325185   0.146   2.402   7.005 -0.7891 -0.0672 -1.9299
   27MOL   H69425186   0.265   2.289   7.082 -0.8847 -2.9073  0.0162
   27MOL   H69525187   0.301   2.167   6.875  1.2758  0.5491 -2.5976
   27MOL   H69625188   0.194   2.268   6.793  1.9604  1.2160 -0.4555
   27MOL   H69725189   0.341   2.470   6.862  1.1838  0.1514 -0.8611
   27MOL   H69825190   0.447   2.359   6.935  0.6276 -2.6464 -0.5724
   27MOL   H69925191   0.376   2.349   6.644  1.1172 -0.1999 -0.3127
   27MOL   H70025192   0.489   2.234   6.713  1.1454  0.8926 -0.6414
   27MOL   H70125193   0.634   2.392   6.624  0.3519 -0.8509  0.6501
   27MOL   H70225194   0.601   2.476   6.778 -1.8264  0.1791  0.8241
   27MOL   H70325195   0.297   2.675   6.564 -0.4206  0.6684  3.0664
   27MOL   H70425196   0.159   2.857   6.500 -0.5817  0.7124 -0.4281
   27MOL   H70525197   0.516   3.091   6.408 -1.8873  0.8694 -0.5825
   27MOL   H70625198   0.646   2.898   6.496 -0.1771  0.8523  0.2417
   27MOL   O70725199   0.196   3.302   6.274 -0.5593  0.6079 -0.8831
   27MOL   C70825200   0.217   3.410   6.359 -0.2768 -0.5300 -0.4916
   27MOL   C70925201   0.116   3.520   6.311  0.5948  0.6491  0.0176
   27MOL   C71025202   0.159   3.574   6.180 -0.1127  0.1357 -0.3552
   27MOL   C71125203   0.050   3.669   6.119 -1.0275  0.2328 -0.0740
   27MOL   C71225204   7.906   3.588   6.061  0.3756 -0.8682 -0.2966
   27MOL   C71325205   7.810   3.696   5.999 -0.3999  0.4981  0.2029
   27MOL   C71425206   7.677   3.627   5.970 -0.0150  0.1186  0.2727
   27MOL   C71525207   7.568   3.711   5.907  0.8405  0.1335 -0.1452
   27MOL   C71625208   7.437   3.628   5.904  0.0533 -0.8608 -0.3980
   27MOL   C71725209   7.310   3.722   5.892 -0.4316 -0.7987 -0.1365
   27MOL   O71825210   7.214   3.634   5.828 -0.1161 -0.9902 -0.4443
   27MOL   C71925211   7.170   3.667   5.707  0.5452  0.5505  0.5214
   27MOL   O72025212   7.178   3.777   5.659  0.4248 -0.2075 -0.6207
   27MOL   C72125213   7.098   3.557   5.640 -0.6133  0.0515  0.2711
   27MOL   C72225214   7.062   3.439   5.703  0.1401  0.1674 -0.0972
   27MOL   C72325215   7.001   3.337   5.628 -0.2306 -0.3912 -0.3944
   27MOL   C72425216   6.976   3.357   5.490  0.3632 -0.2144 -0.1863
   27MOL   C72525217   6.922   3.245   5.414 -0.5581 -0.7246  0.6264
   27MOL   O72625218   6.857   3.256   5.306  0.2154 -0.6922  0.4697
   27MOL   O72725219   6.967   3.128   5.455  0.2293  0.0239  0.4819
   27MOL   C72825220   6.995   3.485   5.434 -0.0982 -0.4349 -0.1832
   27MOL   C72925221   7.065   3.585   5.506 -0.2325 -0.1056 -1.0435
   27MOL   H73025222   0.186   3.373   6.457  2.3509 -0.3730  0.4418
   27MOL   H73125223   0.320   3.443   6.367  0.3132 -1.9074 -2.1325
   27MOL   H73225224   0.092   3.594   6.388  1.8015 -0.5785  1.6128
   27MOL   H73325225   0.024   3.464   6.297  0.1030  1.3977  0.2278
   27MOL   H73425226   0.253   3.628   6.189  0.0676 -0.3169  0.4412
   27MOL   H73525227   0.180   3.497   6.106  0.0619  2.4127 -2.7668
   27MOL   H73625228   0.110   3.710   6.037  0.4472 -1.0781  0.3293
   27MOL   H73725229   0.022   3.749   6.187  0.6842 -1.9037  3.2716
   27MOL   H73825230   7.924   3.509   5.988 -1.8561 -0.5622 -1.2179
   27MOL   H73925231   7.852   3.540   6.143  1.7862  1.1275  1.8991
   27MOL   H74025232   7.793   3.779   6.068 -0.2033 -0.9694  2.0461
   27MOL   H74125233   7.850   3.752   5.914  2.5326  0.3387  1.4169
   27MOL   H74225234   7.703   3.540   5.910  1.3934  2.0939 -2.0334
   27MOL   H74325235   7.636   3.581   6.060 -1.2080  1.1774  0.2850
   27MOL   H74425236   7.552   3.794   5.976 -1.0716 -0.3954  0.0744
   27MOL   H74525237   7.594   3.751   5.809 -1.6651 -0.7334 -1.1938
   27MOL   H74625238   7.421   3.571   5.995 -0.7691 -1.3073 -0.8174
   27MOL   H74725239   7.445   3.557   5.822  0.5004 -0.8088 -0.4002
   27MOL   H74825240   7.329   3.812   5.833 -0.2093 -0.6202  0.2071
   27MOL   H74925241   7.259   3.758   5.981 -0.6221 -0.1080 -0.5232
   27MOL   H75025242   7.085   3.412   5.804 -1.6369  0.2422  0.3336
   27MOL   H75125243   6.984   3.245   5.682  1.0083  0.1981  1.0457
   27MOL   H75225244   6.984   3.496   5.327  1.0708  1.4733 -0.1380
   27MOL   H75325245   7.087   3.681   5.460  1.5060 -0.7761 -1.6511
   27MOL   O75425246   6.940   3.010   5.364 -0.2761 -0.2201 -0.0095
   27MOL   C75525247   6.846   2.933   5.427  0.0648  0.4154  0.3847
   27MOL   C75625248   6.803   2.828   5.327  0.2259  0.2315 -0.5545
   27MOL   C75725249   6.909   2.715   5.311  0.2259  0.6591  0.0747
   27MOL   C75825250   6.868   2.624   5.194  0.9013 -0.2097 -0.3670
   27MOL   C75925251   6.972   2.519   5.143  0.0772  0.1062 -0.6462
   27MOL   C76025252   6.938   2.421   5.028 -0.6190 -0.5160  0.5345
   27MOL   C76125253   7.049   2.322   4.981 -0.1737 -0.0454  0.7737
   27MOL   C76225254   7.019   2.254   4.846  0.2010 -0.5582 -1.2204
   27MOL   C76325255   6.912   2.151   4.848  0.3894 -0.6409 -0.2608
   27MOL   C76425256   6.878   2.108   4.708  0.2303  0.9163 -0.3946
   27MOL   O76525257   6.770   2.017   4.715  0.1392 -0.0212 -0.5198
   27MOL   C76625258   6.654   2.040   4.654 -0.4565 -0.3547  0.1924
   27MOL   O76725259   6.641   2.122   4.563 -0.0449  0.3265  0.1332
   27MOL   C76825260   6.544   1.945   4.693  0.2022 -0.6941  0.8231
   27MOL   C76925261   6.570   1.833   4.770  0.2983  0.5914  0.5906
   27MOL   C77025262   6.462   1.745   4.798 -0.0076 -0.1046 -0.4760
   27MOL   C77125263   6.332   1.767   4.744  0.2227 -0.2176  0.1325
   27MOL   C77225264   6.233   1.658   4.769  0.3822  0.1983  0.8255
   27MOL   O77325265   6.252   1.560   4.834  0.5448  0.2424  0.0437
   27MOL   O77425266   6.117   1.675   4.709 -0.2841 -0.5926 -0.3609
   27MOL   C77525267   6.312   1.882   4.660  0.1007 -0.0397  0.3188
   27MOL   C77625268   6.420   1.967   4.631 -0.1430  0.3288  0.1496
   27MOL   H77725269   6.899   2.893   5.514  2.6814  0.6232 -1.0659
   27MOL   H77825270   6.763   2.991   5.467  1.3475  1.4225  1.6717
   27MOL   H77925271   6.792   2.873   5.228 -1.5812  0.0543 -0.4490
   27MOL   H78025272   6.708   2.785   5.357  1.5010 -0.5189  2.6319
   27MOL   H78125273   7.005   2.763   5.293  0.7268 -0.1408  0.5717
   27MOL   H78225274   6.925   2.663   5.406 -2.7033  1.4283  1.0516
   27MOL   H78325275   6.846   2.687   5.108  2.5126 -1.1738 -1.5121
   27MOL   H78425276   6.777   2.564   5.201 -0.0235  1.3426  1.4245
   27MOL   H78525277   7.058   2.584   5.126  0.1260  0.4670  0.9184
   27MOL   H78625278   6.991   2.462   5.235 -1.3520 -0.8908 -0.9536
   27MOL   H78725279   6.855   2.363   5.068 -2.4905  1.0409 -0.9609
   27MOL   H78825280   6.907   2.479   4.941 -0.3003 -0.0586  0.7211
   27MOL   H78925281   7.148   2.368   4.976  0.2769 -0.8965  1.7208
   27MOL   H79025282   7.057   2.233   5.043 -2.4404  0.2743  1.5646
   27MOL   H79125283   6.996   2.332   4.772  3.3416  1.4000 -0.2411
   27MOL   H79225284   7.108   2.204   4.809 -0.0067 -0.3079 -2.0917
   27MOL   H79325285   6.821   2.199   4.882  1.1770 -0.5012  1.6952
   27MOL   H79425286   6.934   2.066   4.912 -0.5296  1.0124  2.3388
   27MOL   H79525287   6.964   2.065   4.657  1.0604 -0.5930  2.1588
   27MOL   H79625288   6.842   2.199   4.661  0.6637  1.3320  0.0653
   27MOL   H79725289   6.672   1.825   4.805  0.3264  0.4776  0.4825
   27MOL   H79825290   6.485   1.661   4.862  3.3716  1.4902  0.5409
   27MOL   H79925291   6.220   1.892   4.604  0.7000 -0.2006 -0.7099
   27MOL   H80025292   6.403   2.045   4.558  4.0743  0.4369 -0.8464
   27MOL   O80125293   6.027   1.553   4.727 -0.3756  0.2124  0.0663
   27MOL   C80225294   6.040   1.465   4.612  0.9202  0.2905  0.0540
   27MOL   C80325295   5.972   1.329   4.647  0.0660 -0.8339  0.2303
   27MOL   C80425296   6.004   1.221   4.552 -0.1826  0.3719 -0.6053
   27MOL   C80525297   5.937   1.092   4.603 -0.3682  0.4148 -0.4035
   27MOL   C80625298   5.948   0.979   4.509 -0.2095 -0.5544 -0.4691
   27MOL   C80725299   5.894   0.851   4.572  0.9861 -0.6359  0.5052
   27MOL   C80825300   5.907   0.727   4.472  0.1050  0.3334  0.2933
   27MOL   C80925301   5.873   0.591   4.535  0.3560 -0.5219 -0.8003
   27MOL   C81025302   5.912   0.469   4.456  0.4800  0.2822 -0.8899
   27MOL   C81125303   5.833   0.436   4.331  0.0556 -0.3643 -0.0069
   27MOL   O81225304   5.698   0.412   4.376 -0.3996 -0.6706  0.4470
   27MOL   C81325305   5.611   0.340   4.305  0.3425  0.0347 -0.0457
   27MOL   O81425306   5.625   0.299   4.192 -0.9226  0.3387 -0.3506
   27MOL   C81525307   5.492   0.293   4.391 -0.4054  0.2857  0.5718
   27MOL   C81625308   5.388   0.221   4.334 -0.1664 -0.2878 -0.8457
   27MOL   C81725309   5.274   0.177   4.403 -0.2558 -0.3265 -0.4757
   27MOL   C81825310   5.263   0.202   4.543 -0.8364 -0.0470 -0.8523
   27MOL   C81925311   5.133   0.165   4.612 -0.3446 -0.0446 -0.3583
   27MOL   O82025312   5.039   0.118   4.551 -0.1772 -0.2426  0.2591
   27MOL   O82125313   5.138   0.173   4.748  0.1682 -0.4479 -0.4976
   27MOL   C82225314   5.369   0.276   4.607  0.9812  1.2627 -0.1957
   27MOL   C82325315   5.480   0.319   4.531  0.0457  0.4353  0.4171
   27MOL   H82425316   5.989   1.491   4.519  0.9485 -1.1325 -0.3726
   27MOL   H82525317   6.145   1.451   4.590  0.6240 -2.1491  0.0054
   27MOL   H82625318   5.864   1.341   4.656  0.3971  3.0774 -0.1537
   27MOL   H82725319   6.013   1.302   4.745 -2.0693 -0.1947  1.3228
   27MOL   H82825320   5.951   1.233   4.457  0.1227 -0.3170 -0.8636
   27MOL   H82925321   6.113   1.216   4.546 -0.3356 -0.4498 -3.3110
   27MOL   H83025322   5.831   1.095   4.631  0.1116  1.4627  1.4025
   27MOL   H83125323   5.979   1.063   4.700  0.1150 -1.6324 -1.2175
   27MOL   H83225324   5.876   1.003   4.431 -0.5355  0.8801  0.2597
   27MOL   H83325325   6.046   0.963   4.465  0.8771 -0.2810  1.7719
   27MOL   H83425326   5.945   0.829   4.665  1.7174  1.0364  0.5045
   27MOL   H83525327   5.786   0.864   4.586  0.4087 -0.8296 -3.1842
   27MOL   H83625328   5.854   0.739   4.378  0.0031 -0.4611  0.2422
   27MOL   H83725329   6.015   0.729   4.456  0.2046  2.3816  1.0193
   27MOL   H83825330   5.930   0.590   4.628  0.1960  2.5549 -0.6064
   27MOL   H83925331   5.766   0.575   4.554  0.9767 -1.4843  2.2458
   27MOL   H84025332   5.911   0.378   4.517 -0.5912  1.6900  1.2484
   27MOL   H84125333   6.016   0.474   4.426  0.3966  1.7547 -0.9645
   27MOL   H84225334   5.871   0.355   4.269 -1.0993 -0.0671 -1.1074
   27MOL   H84325335   5.823   0.527   4.273  0.7423 -1.6826 -2.2325
   27MOL   H84425336   5.399   0.204   4.228 -1.2290 -1.2392 -0.8186
   27MOL   H84525337   5.195   0.129   4.347 -0.2252  0.8076 -1.5346
   27MOL   H84625338   5.357   0.300   4.712 -0.4360 -1.5589  0.3137
   27MOL   H84725339   5.560   0.369   4.585 -0.3448  2.2392 -0.6262
   27MOL   O84825340   5.009   0.135   4.817  0.4841 -0.1137  0.5446
   27MOL   C84925341   4.906   0.239   4.802 -0.1797  0.5187 -0.3494
   27MOL   C85025342   4.952   0.374   4.873  0.3395 -0.3735  0.2913
   27MOL   C85125343   4.869   0.503   4.827  0.0941 -0.5090  0.1126
   27MOL   C85225344   4.916   0.623   4.907 -0.0145  0.3970 -0.0020
   27MOL   C85325345   4.874   0.762   4.850 -0.7442  0.0390  0.0313
   27MOL   C85425346   4.917   0.876   4.950 -0.3029 -0.0486 -0.3457
   27MOL   C85525347   4.892   1.017   4.900 -0.1683 -0.0838 -0.5747
   27MOL   C85625348   4.916   1.129   5.008  0.1944 -0.2793  0.5504
   27MOL   C85725349   4.918   1.265   4.946 -1.0293 -0.8822  0.6317
   27MOL   C85825350   4.916   1.377   5.051 -0.1102  0.2510 -0.0371
   27MOL   O85925351   4.964   1.497   4.993 -0.3019  0.0089  0.6983
   27MOL   C86025352   4.877   1.602   4.976 -0.1851 -0.6319 -1.0337
   27MOL   O86125353   4.758   1.598   4.997 -0.4027 -0.0713  0.3965
   27MOL   C86225354   4.943   1.737   4.943 -0.1558  0.4584 -0.3369
   27MOL   C86325355   4.869   1.853   4.905 -0.2497  0.3729  0.3379
   27MOL   C86425356   4.929   1.968   4.866  0.5320 -0.2186  0.4785
   27MOL   C86525357   5.069   1.970   4.857 -0.1515  0.0460 -0.1903
   27MOL   C86625358   5.137   2.099   4.809 -0.3030 -0.2249 -0.8555
   27MOL   O86725359   5.081   2.194   4.752 -0.2897 -0.4355 -0.1474
   27MOL   O86825360   5.275   2.095   4.828  0.4049  0.1433 -0.3294
   27MOL   C86925361   5.149   1.857   4.891 -0.0467 -0.0991  0.1222
   27MOL   C87025362   5.088   1.741   4.943  0.4181 -0.1895 -0.3192
   27MOL   H87125363   4.893   0.260   4.695  3.8225 -0.1737 -1.0725
   27MOL   H87225364   4.816   0.194   4.842 -0.1819 -0.9393 -1.9570
   27MOL   H87325365   5.058   0.394   4.857  0.3632  0.2731  1.2147
   27MOL   H87425366   4.936   0.377   4.980 -0.1314 -0.6332  0.2288
   27MOL   H87525367   4.866   0.510   4.718 -1.2653  0.3027  0.2026
   27MOL   H87625368   4.764   0.482   4.848  0.6706 -0.5075  3.3124
   27MOL   H87725369   5.025   0.618   4.909  0.0458  1.1548 -0.9569
   27MOL   H87825370   4.882   0.614   5.010 -0.0947  0.3008 -0.0366
   27MOL   H87925371   4.923   0.781   4.754 -1.3098  0.3291 -0.1976
   27MOL   H88025372   4.771   0.771   4.818 -1.0965 -1.4079  0.7205
   27MOL   H88125373   4.871   0.858   5.048  1.1605 -0.9682  0.2042
   27MOL   H88225374   5.024   0.876   4.975 -0.2085 -3.3258 -0.5371
   27MOL   H88325375   4.948   1.023   4.807  0.0530 -2.2118 -0.6145
   27MOL   H88425376   4.785   1.025   4.882 -0.3806  2.5812  1.5904
   27MOL   H88525377   4.849   1.114   5.092 -1.7587 -1.3950 -1.1561
   27MOL   H88625378   5.006   1.125   5.069  0.9097  0.5265 -0.4288
   27MOL   H88725379   4.841   1.282   4.871  1.0468 -2.1158 -1.8548
   27MOL   H88825380   5.007   1.273   4.884 -0.6985  0.0908  1.2214
   27MOL   H88925381   4.993   1.352   5.124  0.1193 -0.6973 -0.5927
   27MOL   H89025382   4.821   1.386   5.104  0.5314  0.1486  1.1536
   27MOL   H89125383   4.762   1.848   4.895 -0.2378  0.0860  0.3429
   27MOL   H89225384   4.857   2.043   4.833  0.0270 -1.8355 -2.2266
   27MOL   H89325385   5.255   1.868   4.875 -0.2765  2.7121  0.1706
   27MOL   H89425386   5.142   1.651   4.967 -0.6683 -1.2336 -1.7272
   27MOL   O89525387   5.361   2.216   4.775  0.3470  0.5047  0.4300
   27MOL   C89625388   5.422   2.178   4.651  1.0864 -0.1101 -0.2879
   27MOL   C89725389   5.535   2.081   4.676 -0.8422 -0.3714 -0.2177
   27MOL   C89825390   5.643   2.131   4.772  0.5053 -0.4567  0.3614
   27MOL   C89925391   5.752   2.027   4.794  0.1346 -0.2541  0.3396
   27MOL   C90025392   5.863   2.086   4.889  0.5055 -0.3118 -0.7199
   27MOL   C90125393   5.970   1.978   4.916 -0.0615 -0.0297  0.5154
   27MOL   C90225394   6.060   2.026   5.032 -0.4309 -0.3813 -0.3313
   27MOL   C90325395   6.189   1.945   5.039  0.4682 -0.5288 -0.5052
   27MOL   C90425396   6.195   1.824   5.137 -0.3084 -0.4971 -0.1350
   27MOL   C90525397   6.335   1.786   5.195  0.0765 -0.9733  0.3474
   27MOL   O90625398   6.383   1.900   5.263 -0.4004  0.0934 -0.1305
   27MOL   C90725399   6.509   1.939   5.237 -0.5776 -0.1759 -0.2285
   27MOL   O90825400   6.583   1.895   5.149  0.1137  0.7217 -0.0455
   27MOL   C90925401   6.541   2.062   5.310 -0.7476 -0.1233  0.2844
   27MOL   C91025402   6.638   2.156   5.264 -0.1054 -0.6282 -0.6695
   27MOL   C91125403   6.675   2.266   5.341  0.4948 -0.2235 -0.5786
   27MOL   C91225404   6.629   2.283   5.472  0.4652 -0.3090  0.8697
   27MOL   C91325405   6.683   2.393   5.559 -0.3100 -0.9964 -0.4499
   27MOL   O91425406   6.761   2.473   5.507  0.4639  0.0535 -0.0627
   27MOL   O91525407   6.634   2.395   5.687  0.2322 -0.1827 -0.1080
   27MOL   C91625408   6.530   2.190   5.522 -0.1415  0.3178 -0.7097
   27MOL   C91725409   6.491   2.084   5.437  0.8222  0.0533  0.0655
   27MOL   H91825410   5.349   2.134   4.582 -0.7255  0.6312  1.1163
   27MOL   H91925411   5.456   2.275   4.616  0.2688  0.4117  0.3553
   27MOL   H92025412   5.586   2.053   4.585  2.2110  1.3269  0.9114
   27MOL   H92125413   5.483   1.993   4.714 -2.4381  0.1702 -1.1019
   27MOL   H92225414   5.689   2.220   4.730  1.1108 -1.9928 -2.3284
   27MOL   H92325415   5.601   2.154   4.870  1.6785 -0.8469  0.9674
   27MOL   H92425416   5.785   1.996   4.695 -1.8387 -0.9790 -0.1166
   27MOL   H92525417   5.705   1.943   4.844 -1.3962  0.3968  0.0157
   27MOL   H92625418   5.907   2.175   4.845 -2.6480  2.1381  0.9204
   27MOL   H92725419   5.811   2.123   4.977  0.4117 -2.1475  0.0256
   27MOL   H92825420   5.915   1.893   4.955  0.2365 -0.2402  0.4809
   27MOL   H92925421   6.015   1.947   4.821 -1.8070  1.4175 -0.8339
   27MOL   H93025422   6.095   2.128   5.014  1.5568 -1.1061 -0.6610
   27MOL   H93125423   6.015   2.027   5.132 -1.5916  0.6114 -0.8460
   27MOL   H93225424   6.227   1.913   4.943 -0.8144 -1.7309 -0.6411
   27MOL   H93325425   6.264   2.011   5.082 -1.2899 -0.2350  2.3172
   27MOL   H93425426   6.142   1.742   5.090  1.7821 -1.3375 -1.0638
   27MOL   H93525427   6.134   1.848   5.225  0.5149  2.7811 -0.3780
   27MOL   H93625428   6.398   1.751   5.114  1.2938  0.5135  0.6441
   27MOL   H93725429   6.324   1.702   5.264 -1.3768 -0.9142  0.2052
   27MOL   H93825430   6.684   2.149   5.167  2.6122  2.3848  0.3252
   27MOL   H93925431   6.740   2.344   5.305 -0.5705  0.7106 -0.5058
   27MOL   H94025432   6.497   2.198   5.625  0.8968  0.4469 -0.3872
   27MOL   H94125433   6.415   2.017   5.473  1.4024  0.3782  1.9346
   27MOL   H94225434   6.663   2.462   5.746  0.7259 -0.8938  0.4556
   28MOL     O125435   0.799   1.974   7.454  0.0310 -0.0600  0.4513
   28MOL     C225436   0.932   2.011   7.479 -0.1033 -0.2886 -0.0081
   28MOL     C325437   0.912   2.123   7.582  0.6691 -0.1819 -0.4048
   28MOL     C425438   1.043   2.170   7.649  0.4166 -0.0207 -0.6866
   28MOL     C525439   1.094   2.312   7.601  0.3898  0.2043  0.3227
   28MOL     C625440   1.129   2.313   7.453  0.1279  0.5130 -0.5724
   28MOL     C725441   1.187   2.451   7.409  0.3356  0.1644 -0.8976
   28MOL     C825442   1.242   2.431   7.269  0.0355 -0.0955  0.3153
   28MOL     C925443   1.318   2.557   7.232  0.6628 -0.1796 -0.1700
   28MOL    C1025444   1.382   2.559   7.094 -0.0283  0.1485  0.5135
   28MOL    C1125445   1.472   2.680   7.078  0.1816 -0.6381  0.2477
   28MOL    O1225446   1.390   2.795   7.079 -0.3402  0.8611 -0.6292
   28MOL    C1325447   1.432   2.907   7.135  0.4924  0.3579  0.1588
   28MOL    O1425448   1.550   2.929   7.155  0.4108  0.2342  0.2961
   28MOL    C1525449   1.322   3.000   7.177 -0.2824 -0.6070  0.4368
   28MOL    C1625450   1.191   2.963   7.182  0.7175  0.2753 -0.0534
   28MOL    C1725451   1.092   3.050   7.224 -0.1509  0.0144  0.4266
   28MOL    C1825452   1.131   3.174   7.283 -0.1335 -0.4684  0.3787
   28MOL    C1925453   1.034   3.268   7.344  0.3362  0.0677  0.3902
   28MOL    O2025454   1.062   3.357   7.423  0.1533  0.5099 -0.8997
   28MOL    O2125455   0.906   3.257   7.301 -0.4866  0.1071  0.2873
   28MOL    C2225456   1.266   3.214   7.283 -0.4475  0.4733 -0.3672
   28MOL    C2325457   1.360   3.120   7.228 -0.0803  0.1132 -0.4865
   28MOL    H2425458   0.986   1.933   7.532 -0.2417  0.2652  0.9562
   28MOL    H2525459   0.993   2.038   7.393  0.9411  1.3951  1.2560
   28MOL    H2625460   0.849   2.083   7.661 -0.6529 -0.2253 -1.4494
   28MOL    H2725461   0.847   2.198   7.536 -1.0378 -0.6021  1.2981
   28MOL    H2825462   1.027   2.185   7.756  2.3193 -0.0195 -0.3840
   28MOL    H2925463   1.126   2.100   7.649  0.4094 -0.0503  0.8946
   28MOL    H3025464   1.180   2.334   7.664 -0.1133  0.2788  0.9976
   28MOL    H3125465   1.016   2.385   7.625 -0.5946 -1.0390  0.9760
   28MOL    H3225466   1.217   2.252   7.434  1.4926  1.9739  0.9163
   28MOL    H3325467   1.061   2.262   7.385  0.6804 -1.7817  0.5446
   28MOL    H3425468   1.105   2.523   7.415 -0.9873 -1.4157  0.6082
   28MOL    H3525469   1.263   2.475   7.483 -3.0635  0.4246  2.6588
   28MOL    H3625470   1.318   2.355   7.256 -0.4598 -0.5350 -0.0287
   28MOL    H3725471   1.162   2.416   7.196 -0.0810 -0.2321  0.4718
   28MOL    H3825472   1.256   2.646   7.244 -0.1583 -0.4507 -2.2357
   28MOL    H3925473   1.404   2.564   7.299  0.1644 -0.5951  0.5054
   28MOL    H4025474   1.308   2.558   7.014  0.0534  2.3750  0.3864
   28MOL    H4125475   1.436   2.467   7.070 -1.3099 -0.7273  0.9079
   28MOL    H4225476   1.524   2.665   6.983 -0.1973 -3.0359  0.3969
   28MOL    H4325477   1.556   2.690   7.148 -0.5572  0.8462  0.9539
   28MOL    H4425478   1.168   2.864   7.145  0.6930  1.1904 -2.5240
   28MOL    H4525479   0.992   3.013   7.234 -0.0333 -0.0898  1.2690
   28MOL    H4625480   1.295   3.306   7.331 -1.7690  0.2573  0.8971
   28MOL    H4725481   1.464   3.148   7.242  0.0895 -0.6463 -0.2351
   28MOL    H4825482   0.756   2.056   7.434  0.8597  0.5743  1.2335
   28MOL    O4925483   0.808   3.336   7.386 -0.1153 -0.1828  0.0086
   28MOL    C5025484   0.766   3.445   7.306  0.5904  0.2179 -0.3059
   28MOL    C5125485   0.647   3.512   7.379  0.3194  0.0644  0.1807
   28MOL    C5225486   0.599   3.643   7.326  0.0977  0.3467  0.3121
   28MOL    C5325487   0.477   3.629   7.244  0.4984  1.0672  0.1510
   28MOL    C5425488   0.427   3.760   7.181  0.2853  0.1998  0.2061
   28MOL    C5525489   0.352   3.852   7.284  0.0828  0.4943 -0.0535
   28MOL    C5625490   0.274   3.968   7.219 -0.4946  0.0437  0.0430
   28MOL    C5725491   0.194   4.048   7.319 -0.2792  0.3504 -0.3328
   28MOL    C5825492   0.131   4.173   7.248 -0.4366 -0.3104  0.2252
   28MOL    C5925493   0.039   4.250   7.342  0.4466 -0.1195 -0.8657
   28MOL    O6025494   7.911   4.167   7.394 -0.4630 -0.1162 -0.1595
   28MOL    C6125495   7.822   4.218   7.476 -0.9473  0.2191  0.8291
   28MOL    O6225496   7.825   4.332   7.522  0.0519 -0.0993 -0.0136
   28MOL    C6325497   7.719   4.118   7.517  0.3607 -0.1296 -0.0194
   28MOL    C6425498   7.757   3.984   7.520  0.3966  0.6792  0.0232
   28MOL    C6525499   7.666   3.885   7.564  0.5768 -0.5015 -0.1614
   28MOL    C6625500   7.536   3.917   7.610  0.9026 -0.0901  0.0669
   28MOL    C6725501   7.437   3.810   7.653  0.2945 -0.3484 -0.6656
   28MOL    O6825502   7.471   3.699   7.699 -0.5295 -0.3413 -0.0191
   28MOL    O6925503   7.312   3.840   7.633 -0.2198  0.1634 -0.0196
   28MOL    C7025504   7.503   4.052   7.614 -0.4122 -0.0924  0.4645
   28MOL    C7125505   7.595   4.153   7.572 -0.3609 -0.1238  0.0809
   28MOL    H7225506   0.849   3.517   7.309  1.2746 -0.5442 -0.7656
   28MOL    H7325507   0.748   3.407   7.206 -1.1198 -0.9295  0.4074
   28MOL    H7425508   0.675   3.518   7.484 -1.0631 -1.7531  0.6830
   28MOL    H7525509   0.568   3.437   7.376  0.8235 -0.4607 -0.1137
   28MOL    H7625510   0.575   3.709   7.409 -0.5745 -1.1396  1.3268
   28MOL    H7725511   0.676   3.696   7.270 -2.2171  1.6836 -1.6461
   28MOL    H7825512   0.402   3.579   7.306  2.1816 -0.0450  1.3559
   28MOL    H7925513   0.493   3.555   7.165 -0.7368 -1.5964  2.2866
   28MOL    H8025514   0.513   3.819   7.149  0.0611  0.2359 -0.3318
   28MOL    H8125515   0.377   3.736   7.087  1.9465  1.8820 -1.1303
   28MOL    H8225516   0.286   3.793   7.348 -1.3243 -0.2117 -2.1060
   28MOL    H8325517   0.429   3.891   7.351 -0.0300 -0.2245  0.4965
   28MOL    H8425518   0.341   4.030   7.159 -0.2749  0.5121  0.7645
   28MOL    H8525519   0.209   3.920   7.146  1.5377  0.2055 -1.9484
   28MOL    H8625520   0.116   3.984   7.357  1.0958 -1.3538 -0.3210
   28MOL    H8725521   0.251   4.067   7.410  0.5741 -1.0782 -0.5500
   28MOL    H8825522   0.085   4.135   7.157  0.2748  1.1763 -0.7812
   28MOL    H8925523   0.209   4.243   7.218 -0.3217  0.0251  1.2815
   28MOL    H9025524   7.971   4.329   7.282 -2.7012 -1.8173 -0.8113
   28MOL    H9125525   0.094   4.304   7.419 -2.5607  0.8996  0.6616
   28MOL    H9225526   7.863   3.961   7.516  0.5144  1.0001  1.0029
   28MOL    H9325527   7.695   3.781   7.571  0.6442 -0.4936 -0.3121
   28MOL    H9425528   7.411   4.089   7.658 -0.4011 -0.8180  1.0936
   28MOL    H9525529   7.558   4.255   7.575  0.1519  0.0813 -0.4507
   28MOL    O9625530   7.221   3.730   7.674 -0.1697 -0.0890  0.2305
   28MOL    C9725531   7.155   3.763   7.796  0.5413  0.0902  0.5901
   28MOL    C9825532   7.088   3.643   7.874 -0.3445 -0.3127 -0.1661
   28MOL    C9925533   7.188   3.536   7.925 -0.3454  0.0953 -0.4864
   28MOL   C10025534   7.262   3.554   0.073  0.4178  0.1545 -0.2524
   28MOL   C10125535   7.359   3.667   0.076 -0.4600  0.3082 -0.6916
   28MOL   C10225536   7.451   3.652   0.199 -0.0805  0.0892  0.8869
   28MOL   C10325537   7.533   3.782   0.225 -0.0562 -0.2614 -0.1371
   28MOL   C10425538   7.629   3.764   0.347 -0.1674 -0.6928 -0.6395
   28MOL   C10525539   7.739   3.872   0.365 -0.4358  0.2681 -0.4275
   28MOL   C10625540   7.814   3.859   0.501 -0.2698  0.2065  0.1071
   28MOL   O10725541   7.937   3.931   0.519  0.8312 -0.1737  0.1364
   28MOL   C10825542   7.941   4.057   0.548  0.4080 -0.3538 -0.3151
   28MOL   O10925543   7.847   4.127   0.570 -0.2140  0.6226 -0.0378
   28MOL   C11025544   0.107   4.108   0.538  0.1717 -0.3452 -0.2549
   28MOL   C11125545   0.132   4.250   0.543  0.0341  0.7198 -0.3475
   28MOL   C11225546   0.260   4.306   0.530 -0.1662  0.0515  0.1158
   28MOL   C11325547   0.370   4.220   0.517  0.2284  0.0503  0.8140
   28MOL   C11425548   0.505   4.283   0.504 -0.1815 -0.4490 -0.4386
   28MOL   O11525549   0.530   4.403   0.514  0.4413  0.0520 -0.2249
   28MOL   O11625550   0.603   4.191   0.496 -0.3536 -0.0135  0.2826
   28MOL   C11725551   0.344   4.075   0.520 -0.0777 -0.0020  0.4629
   28MOL   C11825552   0.215   4.022   0.528  0.1752  0.2849  0.0769
   28MOL   H11925553   7.215   3.822   7.865  0.7188 -0.2259  0.7072
   28MOL   H12025554   7.071   3.821   7.757  0.9748 -0.9463 -1.9814
   28MOL   H12125555   7.019   3.588   7.811  2.1539 -0.7888 -2.6127
   28MOL   H12225556   7.021   3.682   7.951 -1.3952 -0.2570 -1.1049
   28MOL   H12325557   7.129   3.447   7.949 -0.5584  0.4150  0.1602
   28MOL   H12425558   7.258   3.507   7.846 -0.7853 -1.7606 -0.2309
   28MOL   H12525559   7.311   3.462   0.106  0.9807  0.2677 -0.7791
   28MOL   H12625560   7.193   3.572   0.156  1.4411 -2.7566  1.3035
   28MOL   H12725561   7.412   3.675   7.959 -0.1837  0.1741 -0.5494
   28MOL   H12825562   7.306   3.761   0.083 -0.8779 -0.0047  0.4251
   28MOL   H12925563   7.394   3.631   0.289 -0.4051  1.7527  1.0909
   28MOL   H13025564   7.518   3.567   0.187  1.6016  1.6231 -1.0219
   28MOL   H13125565   7.589   3.809   0.135 -1.0112  1.4094 -0.2338
   28MOL   H13225566   7.470   3.869   0.242 -0.0464 -0.7947  2.9378
   28MOL   H13325567   7.571   3.760   0.439  2.9076 -2.3626  1.3065
   28MOL   H13425568   7.671   3.664   0.340  1.5123 -0.0320 -0.3552
   28MOL   H13525569   7.705   3.976   0.361  0.5699  0.7104  1.7511
   28MOL   H13625570   7.814   3.856   0.287 -0.2730  0.6666 -0.3547
   28MOL   H13725571   7.838   3.757   0.530  0.7853  0.7907  1.3268
   28MOL   H13825572   7.747   3.897   0.578 -1.1169 -2.0611  0.5214
   28MOL   H13925573   0.051   4.320   0.555 -1.0826 -1.0796  3.3936
   28MOL   H14025574   0.274   4.413   0.539  1.0540 -0.1479  0.6450
   28MOL   H14125575   0.425   4.004   0.514  1.5092  1.8542 -0.5843
   28MOL   H14225576   0.200   3.916   0.516 -0.2454  0.1881  1.3798
   28MOL   O14325577   0.736   4.240   0.484  0.1328 -0.1533  0.0846
   28MOL   C14425578   0.798   4.184   0.596 -0.1990 -0.7076 -0.0263
   28MOL   C14525579   0.938   4.243   0.608  0.8521  0.1551 -0.4154
   28MOL   C14625580   1.020   4.151   0.704  0.0945 -0.1701 -0.3447
   28MOL   C14725581   1.161   4.197   0.733 -0.6604  0.1708  0.1697
   28MOL   C14825582   1.240   4.087   0.805 -0.2918  0.6665 -0.0439
   28MOL   C14925583   1.370   4.156   0.851  0.1959 -0.5137 -0.3704
   28MOL   C15025584   1.457   4.064   0.944  0.4075 -0.3647  0.8200
   28MOL   C15125585   1.581   4.139   1.007  0.4717  0.0203 -0.1589
   28MOL   C15225586   1.704   4.178   0.918 -0.0025 -0.0930 -0.4192
   28MOL   C15325587   1.804   4.264   0.989  0.4611  0.2904 -0.3424
   28MOL   O15425588   1.733   4.372   1.039  0.0618 -0.0293 -0.3437
   28MOL   C15525589   1.801   4.474   1.088  0.1883 -1.1670 -0.0419
   28MOL   O15625590   1.924   4.476   1.089  0.0969 -0.2416 -0.1036
   28MOL   C15725591   1.714   4.588   1.144 -0.0325  0.4435 -0.6418
   28MOL   C15825592   1.769   4.698   1.204  0.1200  0.0296  0.0786
   28MOL   C15925593   1.679   4.794   1.262 -0.5263 -0.8271 -0.4824
   28MOL   C16025594   1.542   4.802   1.227  0.5969 -0.4533 -0.0480
   28MOL   C16125595   1.450   4.909   1.284 -0.6970 -0.6700  0.0444
   28MOL   O16225596   1.482   4.993   1.369 -0.0476 -0.2843  0.0784
   28MOL   O16325597   1.323   4.896   1.238  0.5607  0.6031  0.0484
   28MOL   C16425598   1.490   4.688   1.156  0.1961  0.1104  0.3466
   28MOL   C16525599   1.572   4.583   1.117  0.0651 -0.0617 -0.2307
   28MOL   H16625600   0.742   4.192   0.689 -0.2387 -0.1681 -0.0970
   28MOL   H16725601   0.799   4.077   0.575 -2.6112 -0.7280 -0.1826
   28MOL   H16825602   0.911   4.344   0.639 -0.6670 -0.0346 -1.0720
   28MOL   H16925603   0.965   4.252   0.503  0.5053 -1.5478 -0.6565
   28MOL   H17025604   0.969   4.140   0.799  0.0597  3.6815  0.1600
   28MOL   H17125605   1.034   4.048   0.669 -1.3167 -0.8488  1.0287
   28MOL   H17225606   1.160   4.289   0.790 -1.8704  0.6954 -0.6659
   28MOL   H17325607   1.223   4.221   0.647  0.5685 -0.6032  0.8365
   28MOL   H17425608   1.176   4.040   0.879  0.6119 -0.1312  0.2415
   28MOL   H17525609   1.265   3.999   0.745  2.0940  1.2907 -0.0116
   28MOL   H17625610   1.426   4.171   0.759  2.2381  1.0764  1.0731
   28MOL   H17725611   1.345   4.253   0.894 -2.4456 -1.2062 -0.2382
   28MOL   H17825612   1.392   4.047   1.029  0.0843  0.7725  0.8098
   28MOL   H17925613   1.485   3.971   0.894 -1.3373 -1.5776  2.0313
   28MOL   H18025614   1.549   4.234   1.048  0.6163  0.4347 -1.0009
   28MOL   H18125615   1.617   4.086   1.096 -0.2294  2.0587  1.3646
   28MOL   H18225616   1.669   4.221   0.824 -0.2635 -0.6838 -0.5923
   28MOL   H18325617   1.763   4.091   0.893  0.7324 -0.1730  1.4866
   28MOL   H18425618   1.875   4.306   0.918  1.1066  2.8522  1.7618
   28MOL   H18525619   1.861   4.203   1.059 -1.4783 -1.0925  0.0695
   28MOL   H18625620   1.870   4.689   1.241 -0.2004  0.2990  1.0426
   28MOL   H18725621   1.713   4.875   1.326 -1.9960  0.8294 -1.7509
   28MOL   H18825622   1.384   4.682   1.136  0.2952  0.7313 -0.3675
   28MOL   H18925623   1.522   4.509   1.057 -3.1700  1.4606  0.5218
   28MOL   O19025624   1.223   4.988   1.312 -0.4633 -0.1594 -0.1876
   28MOL   C19125625   1.229   5.124   1.264 -0.3292  0.1336 -0.5705
   28MOL   C19225626   1.174   5.148   1.122 -0.1705 -0.4612 -1.3221
   28MOL   C19325627   1.174   5.300   1.087  0.6679 -0.0446 -0.1122
   28MOL   C19425628   1.069   5.396   1.154 -0.7785  0.2025 -0.5474
   28MOL   C19525629   0.927   5.358   1.113  0.6554 -0.2566 -0.2029
   28MOL   C19625630   0.808   5.418   1.190  0.7053 -0.6004  0.1348
   28MOL   C19725631   0.670   5.411   1.125 -0.2998 -0.3986  0.4070
   28MOL   C19825632   0.665   5.502   0.995 -0.0944 -0.5384 -0.0475
   28MOL   C19925633   0.530   5.533   0.943 -0.0953 -0.2574  0.1716
   28MOL   C20025634   0.461   5.417   0.869 -0.4073  0.3060  0.0448
   28MOL   O20125635   0.412   5.328   0.965 -0.1125 -0.1996 -0.6518
   28MOL   C20225636   0.307   5.259   0.935  0.0846  0.0792 -0.0643
   28MOL   O20325637   0.241   5.270   0.826 -0.3210  0.0290 -0.6141
   28MOL   C20425638   0.271   5.170   1.057 -0.1214  0.1548  0.5040
   28MOL   C20525639   0.139   5.125   1.068 -0.1242  0.7046  0.0854
   28MOL   C20625640   0.108   5.054   1.186 -0.1017 -0.2047 -0.1708
   28MOL   C20725641   0.200   5.027   1.288 -0.1903  0.2076  0.4131
   28MOL   C20825642   0.162   4.949   1.411  0.1645  0.2655 -0.1342
   28MOL   O20925643   0.053   4.894   1.427  0.1341 -0.2258  0.3180
   28MOL   O21025644   0.266   4.938   1.504 -0.2665  0.0343  0.9167
   28MOL   C21125645   0.330   5.070   1.272  0.5998  0.1197 -0.1512
   28MOL   C21225646   0.367   5.142   1.157 -0.1532  0.8335  0.0254
   28MOL   H21325647   1.178   5.192   1.332 -0.1439  0.1791 -0.4779
   28MOL   H21425648   1.332   5.157   1.257 -0.4337  1.0400  1.8397
   28MOL   H21525649   1.077   5.099   1.120  0.6421 -2.1156 -1.0877
   28MOL   H21625650   1.233   5.093   1.049 -1.8739 -2.1120 -1.4818
   28MOL   H21725651   1.272   5.348   1.098  0.8838 -0.0242 -1.9733
   28MOL   H21825652   1.154   5.303   0.980  0.0456  2.0849  0.0475
   28MOL   H21925653   1.089   5.503   1.146 -0.8764  0.2949  0.3626
   28MOL   H22025654   1.076   5.379   1.261 -0.1906 -0.4631 -0.6913
   28MOL   H22125655   0.918   5.383   1.007 -1.7614  0.0816  0.0435
   28MOL   H22225656   0.907   5.251   1.116 -1.1416  0.1183  2.4930
   28MOL   H22325657   0.799   5.378   1.292 -0.1626  0.1295  0.3457
   28MOL   H22425658   0.826   5.525   1.203  0.5010 -0.6709  1.0848
   28MOL   H22525659   0.646   5.312   1.087  0.8467 -1.1317  1.5544
   28MOL   H22625660   0.594   5.437   1.198  1.6643 -0.0992  2.4121
   28MOL   H22725661   0.713   5.597   1.022 -0.4254 -1.2864  3.4678
   28MOL   H22825662   0.722   5.455   0.915  0.5560 -3.7292  2.1898
   28MOL   H22925663   0.535   5.615   0.872 -0.6169 -2.2778 -2.2601
   28MOL   H23025664   0.473   5.570   1.029  0.9002 -0.3494  0.8792
   28MOL   H23125665   0.530   5.371   0.798  0.1952 -0.9992  1.4635
   28MOL   H23225666   0.378   5.457   0.810 -2.1277 -0.5745  1.8198
   28MOL   H23325667   0.058   5.134   0.997 -1.7983 -0.7113  1.7982
   28MOL   H23425668   0.003   5.031   1.195 -0.1054  0.3094  1.1272
   28MOL   H23525669   0.406   5.048   1.345 -1.1702 -2.0357  1.1384
   28MOL   H23625670   0.470   5.173   1.156 -0.1617  0.8895  0.4975
   28MOL   O23725671   0.224   4.861   1.628  0.2395 -0.3138 -0.2329
   28MOL   C23825672   0.315   4.750   1.632 -0.4863 -0.4445 -0.2157
   28MOL   C23925673   0.460   4.793   1.617  0.7278  0.1542 -0.1058
   28MOL   C24025674   0.513   4.883   1.735 -0.3185  0.0197 -0.3416
   28MOL   C24125675   0.500   4.821   1.875  0.4516 -0.9348 -1.1196
   28MOL   C24225676   0.557   4.903   1.996  0.3613 -0.2091 -0.1904
   28MOL   C24325677   0.542   4.830   2.128  0.2281 -0.7987 -0.4249
   28MOL   C24425678   0.617   4.904   2.245 -0.2420 -0.6418  0.6448
   28MOL   C24525679   0.591   4.827   2.376 -0.2221 -0.3700 -0.5290
   28MOL   C24625680   0.470   4.874   2.454  0.1999  0.5133 -0.2491
   28MOL   C24725681   0.462   4.806   2.590 -0.0939 -0.3263 -0.5958
   28MOL   O24825682   0.337   4.827   2.657 -0.0977  0.5821  0.4958
   28MOL   C24925683   0.252   4.732   2.672 -0.2752  0.3591  0.1084
   28MOL   O25025684   0.271   4.616   2.633 -0.0063 -0.1763  0.9009
   28MOL   C25125685   0.119   4.770   2.737 -0.0999  0.4672  0.4509
   28MOL   C25225686   0.086   4.900   2.779  0.1224 -0.3720 -0.7770
   28MOL   C25325687   7.948   4.930   2.842 -0.4161  0.1592  0.2797
   28MOL   C25425688   7.850   4.829   2.863  0.5706  0.0026  0.2150
   28MOL   C25525689   7.722   4.858   2.934  0.5100 -0.5412 -0.0858
   28MOL   O25625690   7.648   4.766   2.974 -0.3006  0.0029 -0.4064
   28MOL   O25725691   7.686   4.996   2.942  0.4614 -0.0545 -1.1247
   28MOL   C25825692   7.876   4.700   2.818  0.2361  1.2896  0.4744
   28MOL   C25925693   0.019   4.673   2.750 -0.2476  0.0378  0.3263
   28MOL   H26025694   0.310   4.691   1.723 -1.5758 -0.7952 -0.4908
   28MOL   H26125695   0.298   4.670   1.559  0.4270 -1.8606  1.1028
   28MOL   H26225696   0.486   4.825   1.516  0.9180 -0.7713 -0.3537
   28MOL   H26325697   0.533   4.713   1.625  2.4915  1.5420 -1.6844
   28MOL   H26425698   0.617   4.911   1.720 -0.2152  0.0164  0.3692
   28MOL   H26525699   0.466   4.981   1.737  1.0285  0.6602  0.9388
   28MOL   H26625700   0.558   4.728   1.880 -1.1783 -2.0121 -1.6866
   28MOL   H26725701   0.401   4.781   1.897 -0.6093  1.2428 -1.8496
   28MOL   H26825702   0.655   4.951   1.985 -0.5903  1.7206 -0.5447
   28MOL   H26925703   0.496   4.994   2.000  0.5230  0.0903 -3.1826
   28MOL   H27025704   0.437   4.820   2.156  0.0628  0.5117 -0.5464
   28MOL   H27125705   0.593   4.734   2.124 -0.3511 -1.0747 -1.3906
   28MOL   H27225706   0.725   4.899   2.233  0.1352 -0.1927  3.4772
   28MOL   H27325707   0.576   5.004   2.263  1.3982 -0.1419  1.6968
   28MOL   H27425708   0.583   4.720   2.356 -0.9840 -0.1431 -1.4398
   28MOL   H27525709   0.678   4.826   2.443 -0.4795 -0.6004 -0.1953
   28MOL   H27625710   0.376   4.861   2.401  0.5748 -0.3814 -0.7108
   28MOL   H27725711   0.487   4.980   2.468 -0.4273  1.0808 -3.3328
   28MOL   H27825712   0.540   4.835   2.661 -1.4557  0.0015  0.7810
   28MOL   H27925713   0.486   4.700   2.578  2.4660 -0.1929  2.7072
   28MOL   H28025714   0.169   4.968   2.771  1.5742 -2.0500 -0.4181
   28MOL   H28125715   7.939   5.032   2.877 -1.5026 -0.1168  0.8256
   28MOL   H28225716   7.798   4.625   2.827  0.5692  0.6829 -1.4398
   28MOL   H28325717   0.043   4.574   2.715 -0.3248  0.2260 -0.2712
   28MOL   O28425718   7.546   5.013   2.994 -0.5468 -0.1526 -0.2170
   28MOL   C28525719   7.456   5.033   2.886  0.0381  0.3788  0.4023
   28MOL   C28625720   7.304   5.024   2.945  0.1706 -0.4925 -0.0340
   28MOL   C28725721   7.257   4.876   2.953 -0.1977  0.1834  0.3761
   28MOL   C28825722   7.223   4.834   2.805 -0.1868 -0.0471  0.0775
   28MOL   C28925723   7.137   4.708   2.803  0.3709  0.7255 -0.6972
   28MOL   C29025724   7.215   4.584   2.857 -0.2758 -0.5238  0.1007
   28MOL   C29125725   7.127   4.455   2.866 -0.4914 -0.4899 -0.3540
   28MOL   C29225726   6.994   4.465   2.942 -0.4984  0.6568 -0.3877
   28MOL   C29325727   6.900   4.348   2.938  0.1474  0.3052  0.1196
   28MOL   C29425728   6.778   4.365   3.026  0.8311 -0.3828  0.7122
   28MOL   O29525729   6.693   4.256   3.006 -0.1181  1.0447 -0.0572
   28MOL   C29625730   6.618   4.249   2.892 -0.3522  0.1995  0.7092
   28MOL   O29725731   6.598   4.345   2.815 -0.4431 -0.0678  0.1236
   28MOL   C29825732   6.544   4.121   2.873  0.0190  0.6567  0.4316
   28MOL   C29925733   6.564   4.015   2.958 -0.9524 -0.1894  0.0893
   28MOL   C30025734   6.487   3.893   2.953  0.4587 -0.0038  0.1176
   28MOL   C30125735   6.398   3.875   2.849  0.6802 -1.0212 -0.1967
   28MOL   C30225736   6.325   3.745   2.834 -0.0501 -0.4697  0.3531
   28MOL   O30325737   6.332   3.654   2.913  0.1028 -0.7023 -0.6149
   28MOL   O30425738   6.240   3.752   2.729 -0.3076  0.0116  0.5159
   28MOL   C30525739   6.387   3.975   2.752 -0.3488 -0.7308 -0.7374
   28MOL   C30625740   6.458   4.098   2.759  0.1266 -0.4068 -0.5298
   28MOL   H30725741   7.486   5.134   2.854 -2.1047  0.7765 -0.4642
   28MOL   H30825742   7.468   4.965   2.802 -2.7296 -2.3291  2.1208
   28MOL   H30925743   7.239   5.089   2.887  0.8921  0.5371  0.2832
   28MOL   H31025744   7.309   5.078   3.040  0.5832  1.2747 -1.0299
   28MOL   H31125745   7.337   4.820   3.002  0.9942 -1.0043 -2.8328
   28MOL   H31225746   7.170   4.885   3.018  0.5111  1.0875  1.2187
   28MOL   H31325747   7.325   4.812   2.772  0.8732  0.5284  2.7811
   28MOL   H31425748   7.181   4.917   2.749  1.2492  1.6382  1.4171
   28MOL   H31525749   7.061   4.733   2.878  1.9710 -0.4442  1.3728
   28MOL   H31625750   7.083   4.675   2.715  0.8525 -1.7862 -0.0896
   28MOL   H31725751   7.290   4.566   2.780 -0.0522  1.2120 -0.1209
   28MOL   H31825752   7.260   4.596   2.956  1.6115  0.8213 -0.8960
   28MOL   H31925753   7.106   4.419   2.765 -1.3131 -1.7162  0.2406
   28MOL   H32025754   7.177   4.374   2.920  0.4878  0.5368  0.2920
   28MOL   H32125755   7.004   4.494   3.046 -2.7947  0.1374  0.0071
   28MOL   H32225756   6.945   4.547   2.891 -0.1089  0.5977 -0.8565
   28MOL   H32325757   6.958   4.259   2.962 -0.0482 -0.0412 -0.6693
   28MOL   H32425758   6.869   4.342   2.834 -1.8077 -0.1338  0.7205
   28MOL   H32525759   6.730   4.461   3.007 -0.2880 -1.2383 -0.8672
   28MOL   H32625760   6.795   4.368   3.134  4.0894 -0.7967  0.2442
   28MOL   H32725761   6.641   4.032   3.032  0.0579 -1.5952 -0.6161
   28MOL   H32825762   6.501   3.820   3.031  1.1330  0.5249  0.4919
   28MOL   H32925763   6.326   3.968   2.663 -0.7752 -0.6555 -0.4522
   28MOL   H33025764   6.450   4.162   2.673  0.9901 -1.7282 -1.6026
   28MOL   O33125765   6.131   3.652   2.722 -0.2062  0.3875  0.1098
   28MOL   C33225766   6.012   3.701   2.769  0.7346  0.3665  0.0767
   28MOL   C33325767   5.986   3.838   2.710  0.0046 -0.0598 -0.0130
   28MOL   C33425768   5.853   3.898   2.755  0.1115  0.0737  0.1760
   28MOL   C33525769   5.832   4.049   2.723 -0.1567 -0.5374  0.0596
   28MOL   C33625770   5.834   4.088   2.568  0.1432 -0.1299 -0.2407
   28MOL   C33725771   5.840   4.235   2.550 -1.1301 -0.4064  0.0548
   28MOL   C33825772   5.976   4.305   2.585 -0.6941  0.0046  0.3626
   28MOL   C33925773   6.090   4.248   2.507 -0.1614  0.6843 -0.1451
   28MOL   C34025774   6.220   4.334   2.527  0.0451  0.0451  0.2992
   28MOL   C34125775   6.333   4.279   2.444 -0.2088  0.1414 -0.7746
   28MOL   O34225776   6.454   4.356   2.479 -0.1801 -0.4270 -0.0019
   28MOL   C34325777   6.578   4.318   2.432  0.2407 -0.4015  0.1878
   28MOL   O34425778   6.600   4.204   2.398 -0.1117  0.2806 -0.4428
   28MOL   C34525779   6.674   4.435   2.439  0.1204 -0.0764 -0.1345
   28MOL   C34625780   6.804   4.413   2.393  0.2083 -0.2928  0.6019
   28MOL   C34725781   6.897   4.517   2.381  0.1403 -0.1716  0.1732
   28MOL   C34825782   6.861   4.645   2.441 -0.5451 -0.0741  0.3373
   28MOL   C34925783   6.957   4.758   2.433 -0.1827 -0.7399  0.0790
   28MOL   O35025784   6.940   4.864   2.497  0.1221 -0.0011  0.2834
   28MOL   O35125785   7.049   4.743   2.341  0.3885 -0.0662  0.3732
   28MOL   C35225786   6.736   4.665   2.506 -0.3801  0.2035 -0.3300
   28MOL   C35325787   6.643   4.558   2.499 -0.0910 -0.3521 -0.1137
   28MOL   H35425788   5.931   3.632   2.746  0.5205 -0.0007  1.8288
   28MOL   H35525789   6.017   3.708   2.878  0.6471 -1.4317  0.2250
   28MOL   H35625790   5.988   3.839   2.601  0.3665  0.0114 -0.0080
   28MOL   H35725791   6.065   3.908   2.737  0.0735 -0.0777 -0.1665
   28MOL   H35825792   5.769   3.851   2.704 -1.2192  1.3151  1.1785
   28MOL   H35925793   5.839   3.878   2.861 -0.1357  1.3962  0.4131
   28MOL   H36025794   5.888   4.117   2.788 -0.1567  0.2663 -0.7791
   28MOL   H36125795   5.731   4.064   2.760 -1.3543  0.5360 -3.4668
   28MOL   H36225796   5.920   4.039   2.521  0.4984  0.9345 -0.7085
   28MOL   H36325797   5.743   4.042   2.528 -0.4220  1.4127 -0.7505
   28MOL   H36425798   5.812   4.245   2.445 -0.1343 -1.0189 -0.2772
   28MOL   H36525799   5.758   4.281   2.604 -2.1747  0.2232 -1.9988
   28MOL   H36625800   5.977   4.409   2.552  0.2408 -1.4661 -4.6672
   28MOL   H36725801   5.999   4.297   2.691  1.5806  0.5368 -0.0659
   28MOL   H36825802   6.106   4.148   2.548 -0.2665  1.0714  0.8290
   28MOL   H36925803   6.073   4.250   2.399 -2.2527  1.4964  0.1781
   28MOL   H37025804   6.242   4.331   2.634  0.8146  1.1899  0.1790
   28MOL   H37125805   6.203   4.439   2.506  5.2785  0.6768 -1.5224
   28MOL   H37225806   6.319   4.279   2.336 -2.1465 -2.3555 -0.5583
   28MOL   H37325807   6.360   4.178   2.476  2.9977  1.5113  1.1271
   28MOL   H37425808   6.827   4.318   2.348  0.6509  0.0246  0.1504
   28MOL   H37525809   6.986   4.491   2.327  0.6989  2.1517 -0.0742
   28MOL   H37625810   6.711   4.756   2.559 -1.8710  0.0380 -0.7115
   28MOL   H37725811   6.546   4.568   2.545 -0.5479  2.6940 -1.6381
   28MOL   O37825812   7.152   4.850   2.336  0.9157  0.3651 -0.4639
   28MOL   C37925813   7.113   4.948   2.240  0.6716  0.0455 -0.3146
   28MOL   C38025814   7.210   5.056   2.237 -0.4082 -0.4977 -0.0506
   28MOL   C38125815   7.225   5.119   2.383 -0.9995  0.0205 -0.0650
   28MOL   C38225816   7.094   5.170   2.452 -0.3599 -0.5082  0.3623
   28MOL   C38325817   7.113   5.219   2.596  0.6976  0.4729  0.2394
   28MOL   C38425818   7.226   5.328   2.613 -0.4583 -0.2219 -0.0561
   28MOL   C38525819   7.239   5.371   2.762 -0.3982  0.2504  0.4415
   28MOL   C38625820   7.173   5.508   2.794  0.2289  0.2649 -0.0583
   28MOL   C38725821   7.024   5.510   2.758 -0.5745  0.1542 -0.3774
   28MOL   C38825822   6.953   5.634   2.824 -0.0889  0.1845  0.3507
   28MOL   O38925823   6.812   5.649   2.811  0.4890 -0.3081  0.0061
   28MOL   C39025824   6.771   5.719   2.714 -0.1603 -0.9338  0.6279
   28MOL   O39125825   6.850   5.746   2.617  0.5097 -0.1937 -0.6649
   28MOL   C39225826   6.626   5.759   2.716  0.3438  0.7741  0.2998
   28MOL   C39325827   6.541   5.716   2.815  0.2843  0.0326 -0.0655
   28MOL   C39425828   6.402   5.729   2.796  0.0938 -0.1141  0.5077
   28MOL   C39525829   6.351   5.782   2.671  0.1513 -0.6511 -0.7451
   28MOL   C39625830   6.204   5.782   2.643  0.7436 -0.0947  0.1827
   28MOL   O39725831   6.148   5.829   2.545 -0.1263 -0.2974 -0.3987
   28MOL   O39825832   6.136   5.707   2.732  0.7869 -0.2614 -0.3903
   28MOL   C39925833   6.440   5.830   2.573 -0.0339 -0.1707 -0.0969
   28MOL   C40025834   6.579   5.827   2.605 -0.0472  0.1391 -0.3235
   28MOL   H40125835   7.098   4.906   2.141 -0.5837 -0.6452  0.1541
   28MOL   H40225836   7.020   5.000   2.263  0.2857 -0.3526 -0.9560
   28MOL   H40325837   7.168   5.139   2.180  1.8646  1.7839  1.4432
   28MOL   H40425838   7.311   5.036   2.199 -0.0402 -0.8874  1.1225
   28MOL   H40525839   7.285   5.056   2.449  0.2989 -0.2740 -1.5072
   28MOL   H40625840   7.289   5.205   2.363  0.6440 -1.4366 -1.2456
   28MOL   H40725841   7.024   5.086   2.456 -0.8066 -0.1775 -0.3970
   28MOL   H40825842   7.045   5.251   2.398 -0.4250  0.9739  2.5816
   28MOL   H40925843   7.020   5.253   2.642 -0.3930  0.5068 -1.9381
   28MOL   H41025844   7.138   5.131   2.656 -0.0941  1.0786  1.4794
   28MOL   H41125845   7.323   5.288   2.584 -1.1158 -2.4056  0.6080
   28MOL   H41225846   7.193   5.409   2.548 -1.1188 -2.2377 -2.3184
   28MOL   H41325847   7.217   5.292   2.833  0.8066  0.1283  0.6919
   28MOL   H41425848   7.341   5.402   2.785 -0.3982  1.7033 -1.3620
   28MOL   H41525849   7.182   5.525   2.901  0.9799  2.3311 -0.4293
   28MOL   H41625850   7.235   5.583   2.745  1.7184 -0.8409  0.1034
   28MOL   H41725851   6.982   5.419   2.800 -0.2783 -1.0567 -2.6274
   28MOL   H41825852   7.018   5.505   2.649 -0.2697  2.1908 -0.5245
   28MOL   H41925853   7.012   5.720   2.793 -1.4003  0.7937 -0.5512
   28MOL   H42025854   6.959   5.625   2.932 -0.5866 -3.0822  0.1430
   28MOL   H42125855   6.572   5.665   2.905 -3.5569 -2.1420  0.1545
   28MOL   H42225856   6.334   5.679   2.864 -0.4957 -0.8280 -0.5870
   28MOL   H42325857   6.395   5.864   2.481  1.1236 -1.4266 -1.1693
   28MOL   H42425858   6.655   5.856   2.534  0.7569  0.4146  0.6299
   28MOL   O42525859   5.988   5.690   2.713 -0.0637  0.2728 -0.4691
   28MOL   C42625860   5.920   5.757   2.820 -0.5762  0.1079 -0.4704
   28MOL   C42725861   5.780   5.724   2.778  0.3943  0.2405 -0.7768
   28MOL   C42825862   5.676   5.751   2.885 -0.1333 -0.4516 -0.5199
   28MOL   C42925863   5.561   5.646   2.905 -0.0465 -0.0218  0.0878
   28MOL   C43025864   5.446   5.655   2.801  0.4033 -0.3669  0.7323
   28MOL   C43125865   5.369   5.529   2.779  0.3168 -0.0275  0.0693
   28MOL   C43225866   5.285   5.487   2.893  0.1824  0.3224 -0.2047
   28MOL   C43325867   5.184   5.377   2.860 -0.1198  0.5307 -0.0142
   28MOL   C43425868   5.242   5.252   2.797 -0.0749  0.3505  0.4933
   28MOL   C43525869   5.143   5.139   2.782  0.4692  0.4375  0.0958
   28MOL   O43625870   5.201   5.014   2.756 -0.3863  0.0862 -0.5635
   28MOL   C43725871   5.229   4.984   2.622 -0.1377 -0.0481 -0.2181
   28MOL   O43825872   5.222   5.065   2.530 -0.0883 -0.0188 -0.2023
   28MOL   C43925873   5.272   4.846   2.599  0.6518 -0.5247 -0.7714
   28MOL   C44025874   5.324   4.768   2.708  1.0448 -0.0069  0.3492
   28MOL   C44125875   5.353   4.632   2.682 -0.3851  0.1950 -0.2297
   28MOL   C44225876   5.315   4.565   2.565  0.6430 -0.1856 -0.0515
   28MOL   C44325877   5.333   4.415   2.545  0.0333  0.2229  0.1876
   28MOL   O44425878   5.314   4.365   2.430  0.2268 -0.2107 -0.6550
   28MOL   O44525879   5.400   4.347   2.642 -0.0971  0.2091  0.0325
   28MOL   C44625880   5.254   4.643   2.466  0.0008 -0.1734  0.6393
   28MOL   C44725881   5.239   4.785   2.476  0.3367 -0.5589 -0.4229
   28MOL   H44825882   5.943   5.713   2.917 -0.3748  1.4124  0.0842
   28MOL   H44925883   5.929   5.866   2.820 -0.1037  0.0757  0.3040
   28MOL   H45025884   5.781   5.615   2.770  3.4638  0.1841 -0.2806
   28MOL   H45125885   5.748   5.770   2.685 -0.3441 -0.5677 -0.9233
   28MOL   H45225886   5.715   5.758   2.986 -3.1835  0.6608  0.6180
   28MOL   H45325887   5.633   5.849   2.865  1.1232  0.5315  1.4754
   28MOL   H45425888   5.512   5.648   3.002 -2.8897 -3.1347 -1.1588
   28MOL   H45525889   5.614   5.551   2.907  0.5786  0.3222 -0.1210
   28MOL   H45625890   5.385   5.741   2.827  0.6716 -0.4625  1.7135
   28MOL   H45725891   5.495   5.676   2.706 -1.2024 -1.9878 -0.5007
   28MOL   H45825892   5.320   5.550   2.684  2.0055  0.3725 -0.7271
   28MOL   H45925893   5.437   5.450   2.749  2.4680  0.8876  2.3852
   28MOL   H46025894   5.350   5.448   2.971 -1.8651 -1.1308  0.8392
   28MOL   H46125895   5.225   5.566   2.939  0.1940 -1.0060  2.2052
   28MOL   H46225896   5.140   5.350   2.956  0.6415  1.4979  0.6181
   28MOL   H46325897   5.091   5.403   2.809  0.5150 -1.5707 -2.3513
   28MOL   H46425898   5.304   5.204   2.873  1.0358 -3.3670 -2.5750
   28MOL   H46525899   5.290   5.270   2.701 -1.6737  1.1736 -0.1735
   28MOL   H46625900   5.066   5.170   2.712 -1.0409  0.9366  1.9354
   28MOL   H46725901   5.088   5.133   2.876  0.1483  0.2092 -0.1084
   28MOL   H46825902   5.364   4.816   2.796 -0.7286 -0.3985  1.3782
   28MOL   H46925903   5.406   4.574   2.757 -1.5847  0.4114  0.8092
   28MOL   H47025904   5.219   4.593   2.377 -2.5652 -0.4698  1.7557
   28MOL   H47125905   5.189   4.844   2.402 -0.6791 -1.5730 -0.5579
   28MOL   O47225906   5.452   4.216   2.596  0.2696 -0.9666 -0.6008
   28MOL   C47325907   5.376   4.119   2.664 -0.5967  0.8437  0.2409
   28MOL   C47425908   5.412   3.973   2.607 -0.0307  0.2215 -0.3882
   28MOL   C47525909   5.382   3.962   2.454 -0.1326  0.5328  1.0531
   28MOL   C47625910   5.406   3.821   2.398  0.4334  0.7301 -0.3415
   28MOL   C47725911   5.377   3.797   2.251 -0.2502  0.0298  0.0757
   28MOL   C47825912   5.390   3.655   2.193  0.5531  0.2541  0.9385
   28MOL   C47925913   5.371   3.644   2.044 -0.3753 -0.0532 -0.0474
   28MOL   C48025914   5.236   3.686   1.984 -0.4886  0.1210 -0.0963
   28MOL   C48125915   5.139   3.569   1.960 -0.4700 -0.0828  0.1833
   28MOL   C48225916   5.021   3.622   1.874 -0.8017 -0.3267 -0.0380
   28MOL   O48325917   5.038   3.628   1.736  0.2790 -0.4943  0.0994
   28MOL   C48425918   4.929   3.639   1.650  0.3023 -0.0900  0.3175
   28MOL   O48525919   4.811   3.613   1.682  0.1648  0.2887  0.3994
   28MOL   C48625920   4.968   3.676   1.516 -0.2305  0.4370 -0.0378
   28MOL   C48725921   5.104   3.668   1.475 -0.2959  0.0667  0.1816
   28MOL   C48825922   5.144   3.713   1.347 -0.0678  0.4574 -0.0899
   28MOL   C48925923   5.049   3.775   1.261 -0.2923  0.6715 -0.3168
   28MOL   C49025924   5.091   3.851   1.141 -0.0687  0.2438  0.1443
   28MOL   O49125925   5.210   3.869   1.110 -0.2895 -0.6866  0.3779
   28MOL   O49225926   4.982   3.906   1.071  0.3337  0.3755 -0.0619
   28MOL   C49325927   4.913   3.764   1.297 -0.0383  0.3685 -0.2903
   28MOL   C49425928   4.874   3.730   1.429  0.5031  0.5152 -0.2933
   28MOL   H49525929   5.398   4.135   2.769 -0.7002 -2.3233  0.8016
   28MOL   H49625930   5.269   4.140   2.659 -0.5580  1.0682  0.3797
   28MOL   H49725931   5.360   3.894   2.662 -0.1601 -1.0008 -2.1903
   28MOL   H49825932   5.516   3.947   2.626  0.3478  0.1412 -2.4673
   28MOL   H49925933   5.275   3.979   2.448 -0.1487  0.3962  0.9444
   28MOL   H50025934   5.432   4.038   2.395 -0.3685  0.2389  0.4689
   28MOL   H50125935   5.337   3.749   2.442  0.7545 -0.3483 -1.5811
   28MOL   H50225936   5.505   3.783   2.424  0.1335  0.0072 -0.2515
   28MOL   H50325937   5.280   3.840   2.225 -0.7276 -0.7852  0.5216
   28MOL   H50425938   5.446   3.865   2.200  2.3681 -0.9962  2.1727
   28MOL   H50525939   5.487   3.618   2.226  1.8566  0.9564 -1.9685
   28MOL   H50625940   5.319   3.585   2.237 -0.5473 -0.6959 -2.1739
   28MOL   H50725941   5.458   3.698   2.006  0.7108  0.4435  3.0394
   28MOL   H50825942   5.400   3.544   2.010  0.4361 -0.1667  0.9453
   28MOL   H50925943   5.181   3.758   2.044  0.0573  0.5640 -0.1329
   28MOL   H51025944   5.247   3.722   1.881 -0.7426 -0.8584 -0.4745
   28MOL   H51125945   5.110   3.531   2.058  0.8770  0.1692  0.6931
   28MOL   H51225946   5.191   3.487   1.912 -0.0786 -0.2568  0.9010
   28MOL   H51325947   4.985   3.716   1.914 -1.1768 -1.6844  2.9071
   28MOL   H51425948   4.947   3.543   1.887 -0.6285 -0.5278 -0.2613
   28MOL   H51525949   5.180   3.623   1.538  0.6967  1.3200 -0.0931
   28MOL   H51625950   5.241   3.685   1.310 -0.6740 -2.1552  0.1701
   28MOL   H51725951   4.838   3.801   1.228 -1.8178 -2.7260 -0.1619
   28MOL   H51825952   4.771   3.736   1.459  0.9000 -1.1000  1.4911
   28MOL   O51925953   5.022   3.965   0.938  0.6195  0.0736 -0.2524
   28MOL   C52025954   5.024   4.103   0.951  0.5837  0.0905  0.7741
   28MOL   C52125955   4.994   4.170   0.812  0.1857  0.0837  0.3165
   28MOL   C52225956   5.109   4.166   0.714  0.1204 -0.1010  0.4183
   28MOL   C52325957   5.064   4.248   0.585  0.1649 -0.3878 -0.2479
   28MOL   C52425958   5.167   4.235   0.478  0.0390  0.1204 -0.3281
   28MOL   C52525959   5.165   4.106   0.389  0.0920  0.6464 -0.2166
   28MOL   C52625960   5.276   4.119   0.280  0.3992 -0.0191  0.0275
   28MOL   C52725961   5.305   3.984   0.201  0.0091  0.1239  0.0316
   28MOL   C52825962   5.193   3.945   0.102  0.0400 -0.2515 -0.6896
   28MOL   C52925963   5.127   3.809   0.121  0.5727  0.7838 -0.0446
   28MOL   O53025964   5.048   3.807   0.236  0.1542 -0.2716 -0.6517
   28MOL   C53125965   4.936   3.738   0.243  0.1988  0.0684  0.0164
   28MOL   O53225966   4.881   3.685   0.149 -0.4060 -0.2899 -0.1450
   28MOL   C53325967   4.885   3.734   0.381 -0.8946 -0.4650 -0.1480
   28MOL   C53425968   4.751   3.702   0.403 -0.9075  0.4800 -0.5526
   28MOL   C53525969   4.698   3.697   0.535  0.1761 -0.1575  0.4085
   28MOL   C53625970   4.782   3.724   0.646  0.2019  0.1685 -0.3520
   28MOL   C53725971   4.722   3.737   0.780  0.0838 -0.0513 -0.8193
   28MOL   O53825972   4.778   3.782   0.878 -0.0880 -0.5043 -0.2371
   28MOL   O53925973   4.599   3.683   0.792  0.2531  0.2075  0.1101
   28MOL   C54025974   4.915   3.763   0.621  0.3282  0.9249  0.2615
   28MOL   C54125975   4.970   3.776   0.490 -0.1115 -1.2598  0.4661
   28MOL   H54225976   4.954   4.153   1.018  1.5729  0.7049  1.3574
   28MOL   H54325977   5.120   4.134   0.994 -0.1911  1.0075  1.8661
   28MOL   H54425978   4.957   4.272   0.822  1.1597  0.4917 -0.1585
   28MOL   H54525979   4.913   4.113   0.767 -0.0071 -1.1478  2.1790
   28MOL   H54625980   5.200   4.199   0.763  0.5024 -0.4123 -0.0804
   28MOL   H54725981   5.132   4.065   0.681  0.3912 -0.2327  1.0139
   28MOL   H54825982   5.042   4.352   0.607 -0.8414 -0.3653 -1.3301
   28MOL   H54925983   4.966   4.206   0.561 -0.3097  1.1773 -1.1094
   28MOL   H55025984   5.145   4.317   0.410 -0.8429  0.7685  0.7154
   28MOL   H55125985   5.270   4.246   0.511  0.9542  1.3286 -3.4143
   28MOL   H55225986   5.185   4.023   0.456 -0.0077 -1.4166 -2.6681
   28MOL   H55325987   5.069   4.083   0.343  0.3502 -0.8614 -0.0271
   28MOL   H55425988   5.251   4.195   0.206 -1.3007 -1.1882 -0.6282
   28MOL   H55525989   5.369   4.146   0.331  0.6646  0.8331 -0.9025
   28MOL   H55625990   5.386   4.003   0.131  0.3168 -0.0167  0.3471
   28MOL   H55725991   5.335   3.907   0.273  1.5287  2.2884  1.7661
   28MOL   H55825992   5.227   3.957   7.977  2.1512  0.4548  0.0493
   28MOL   H55925993   5.109   4.014   0.110 -0.0104 -0.4739  0.9287
   28MOL   H56025994   5.202   3.734   0.145 -1.0119 -0.9422 -0.3722
   28MOL   H56125995   5.075   3.781   0.029  0.1632  2.8974 -0.4844
   28MOL   H56225996   4.686   3.671   0.322 -2.3156 -1.7385  1.3653
   28MOL   H56325997   4.594   3.668   0.545 -0.0745  0.6193  0.1514
   28MOL   H56425998   4.985   3.781   0.702 -0.5089 -0.1597  1.2517
   28MOL   H56525999   5.070   3.809   0.468 -0.8929  1.6625  1.1542
   28MOL   O56626000   4.540   3.691   0.935 -0.7158 -0.2916 -0.1230
   28MOL   C56726001   4.456   3.803   0.945  0.6441 -0.0393  0.0272
   28MOL   C56826002   4.448   3.824   1.094  0.2229 -0.9508 -0.3975
   28MOL   C56926003   4.358   3.945   1.118 -0.2615 -0.9601  0.4534
   28MOL   C57026004   4.343   3.987   1.259  0.1544  0.6715 -0.1454
   28MOL   C57126005   4.241   4.108   1.277 -0.9919  0.6418  0.0152
   28MOL   C57226006   4.243   4.171   1.422 -0.3747  0.4773  0.6746
   28MOL   C57326007   4.206   4.315   1.434  0.2499 -0.9494 -0.1945
   28MOL   C57426008   4.223   4.367   1.580  0.2045 -0.0979 -0.2723
   28MOL   C57526009   4.201   4.522   1.581  0.2212  0.8191 -0.2861
   28MOL   C57626010   4.191   4.580   1.724 -0.2797 -0.1626 -0.3717
   28MOL   O57726011   4.143   4.712   1.707 -0.0520 -0.1853  0.4584
   28MOL   C57826012   4.228   4.813   1.695 -0.7941 -0.8662  0.0114
   28MOL   O57926013   4.352   4.793   1.698  0.0911 -0.4763 -0.8554
   28MOL   C58026014   4.159   4.943   1.671 -0.0868 -0.7298 -0.2470
   28MOL   C58126015   4.227   5.064   1.670  0.2049 -0.0775 -0.2061
   28MOL   C58226016   4.159   5.181   1.661 -1.1987 -0.4589 -0.3909
   28MOL   C58326017   4.017   5.184   1.640 -0.9525 -0.7458 -0.4014
   28MOL   C58426018   3.950   5.316   1.616 -0.5114  0.5979  0.1316
   28MOL   O58526019   3.837   5.326   1.580  0.3292 -0.3754  0.9731
   28MOL   O58626020   4.022   5.423   1.653 -0.0333 -0.0728 -0.2511
   28MOL   C58726021   3.945   5.063   1.635  0.1711  0.0274 -0.1193
   28MOL   C58826022   4.018   4.943   1.661  0.1994 -0.3259  0.4250
   28MOL   H58926023   4.494   3.893   0.896 -1.5810  1.1971  0.4881
   28MOL   H59026024   4.359   3.796   0.896  0.7293 -3.1478  0.2391
   28MOL   H59126025   4.550   3.836   1.132  0.2760 -1.0391 -0.5092
   28MOL   H59226026   4.406   3.737   1.144  0.9757 -0.3113  1.3598
   28MOL   H59326027   4.400   4.026   1.059 -0.5507 -1.8754 -1.0523
   28MOL   H59426028   4.258   3.924   1.079  0.7933 -0.0113 -2.9744
   28MOL   H59526029   4.440   4.010   1.302 -0.0250  1.1344  0.0119
   28MOL   H59626030   4.305   3.901   1.314 -1.9652  2.7592  1.6847
   28MOL   H59726031   4.279   4.182   1.207 -1.2883  2.0032  1.2727
   28MOL   H59826032   4.144   4.080   1.237 -0.8794  0.4458 -0.1197
   28MOL   H59926033   4.171   4.104   1.470  0.9104 -0.3255  1.5179
   28MOL   H60026034   4.342   4.155   1.466  0.3424  1.2434 -0.6159
   28MOL   H60126035   4.271   4.371   1.367 -1.7972 -0.1475 -1.5563
   28MOL   H60226036   4.104   4.337   1.402  0.5724 -0.1863 -0.7146
   28MOL   H60326037   4.154   4.314   1.645 -1.9568  1.1693 -1.4619
   28MOL   H60426038   4.318   4.342   1.628  1.2684  0.2016 -2.1526
   28MOL   H60526039   4.104   4.548   1.539 -0.2891 -0.2690  0.2020
   28MOL   H60626040   4.277   4.576   1.525  0.2223  0.3788 -0.7119
   28MOL   H60726041   4.284   4.588   1.780 -0.1268  0.9606 -0.7764
   28MOL   H60826042   4.134   4.511   1.787  0.0314 -0.5270 -0.4910
   28MOL   H60926043   4.334   5.049   1.677  0.0091 -2.1054 -1.1634
   28MOL   H61026044   4.225   5.267   1.663 -1.0914 -0.5529  0.5038
   28MOL   H61126045   3.838   5.057   1.627  0.0161  1.1069  0.9610
   28MOL   H61226046   3.964   4.849   1.659  1.0410 -0.8137  0.0688
   28MOL   O61326047   3.946   5.552   1.689  0.6804 -0.0267 -0.0341
   28MOL   C61426048   3.893   5.550   1.819  0.0213  0.3971 -0.5083
   28MOL   C61526049   4.007   5.550   1.921  0.4150 -0.7300 -0.4410
   28MOL   C61626050   4.121   5.658   1.890 -0.3133 -0.4665 -0.2933
   28MOL   C61726051   4.222   5.694   2.007  0.3005  0.4165  0.2934
   28MOL   C61826052   4.143   5.777   2.110 -0.2954  0.3990 -0.0651
   28MOL   C61926053   4.238   5.834   2.217  0.6375  0.1529  0.0323
   28MOL   C62026054   4.300   5.973   2.180 -0.2444  0.3898  0.1230
   28MOL   C62126055   4.371   6.056   2.292 -1.1585  0.0903  0.6493
   28MOL   C62226056   4.450   6.179   2.241 -0.2211 -0.6485  0.5442
   28MOL   C62326057   4.376   6.311   2.258  0.2734  0.2675  0.3602
   28MOL   O62426058   4.459   6.427   2.220  0.2630  0.1159  0.6914
   28MOL   C62526059   4.456   6.467   2.099 -0.9934 -0.4065  0.0875
   28MOL   O62626060   4.387   6.423   2.006 -0.7055 -0.4507  0.4891
   28MOL   C62726061   4.538   6.589   2.085 -0.3342 -0.8290  0.1549
   28MOL   C62826062   4.520   6.666   1.965 -0.1968  0.1650 -0.9030
   28MOL   C62926063   4.604   6.784   1.950 -0.3972 -0.3376  0.7081
   28MOL   C63026064   4.702   6.820   2.046  0.7732  0.0171 -0.1565
   28MOL   C63126065   4.787   6.945   2.030 -0.2904  0.2297 -0.3320
   28MOL   O63226066   4.853   7.004   2.120  0.6248 -0.3483  0.3307
   28MOL   O63326067   4.793   6.983   1.898  0.7558 -0.1910  0.0034
   28MOL   C63426068   4.722   6.729   2.154 -0.3072  0.0282 -0.0705
   28MOL   C63526069   4.641   6.619   2.174 -0.0736 -0.3695  0.1386
   28MOL   H63626070   3.829   5.637   1.824 -0.2234  0.1986 -0.1686
   28MOL   H63726071   3.832   5.460   1.833  0.9492  0.1023  1.9229
   28MOL   H63826072   4.051   5.453   1.943 -1.2382 -1.0263  1.7599
   28MOL   H63926073   3.964   5.573   2.018 -1.3761 -0.0713 -1.3464
   28MOL   H64026074   4.179   5.643   1.798  3.0621  0.0931  1.6697
   28MOL   H64126075   4.080   5.753   1.855  1.3887  0.1955 -0.5227
   28MOL   H64226076   4.309   5.750   1.970 -0.4084  1.3633  0.0148
   28MOL   H64326077   4.252   5.600   2.053 -1.5090 -0.5511 -0.4961
   28MOL   H64426078   4.086   5.857   2.064 -0.8174  0.9448  1.5240
   28MOL   H64526079   4.077   5.702   2.155  0.5536  0.0126  0.5549
   28MOL   H64626080   4.172   5.848   2.303  0.0632 -1.1101 -0.1942
   28MOL   H64726081   4.308   5.759   2.254  0.1267 -0.7304 -0.7585
   28MOL   H64826082   4.386   5.955   2.115 -1.2582 -1.8515 -0.6332
   28MOL   H64926083   4.236   6.049   2.133 -1.6656 -0.8474  0.0336
   28MOL   H65026084   4.291   6.092   2.358 -0.7505  0.1581  1.1100
   28MOL   H65126085   4.427   5.982   2.350  1.5093 -1.3658 -3.5848
   28MOL   H65226086   4.469   6.182   2.134 -0.7824  1.4072  0.4840
   28MOL   H65326087   4.551   6.191   2.280  0.4040 -0.0531 -1.1960
   28MOL   H65426088   4.352   6.333   2.362  0.8195  1.4074  0.2576
   28MOL   H65526089   4.282   6.311   2.203 -0.6215  2.0708  1.8080
   28MOL   H65626090   4.443   6.641   1.894 -3.2885  1.6316  1.7931
   28MOL   H65726091   4.574   6.857   1.876 -3.5134 -2.2766 -0.0727
   28MOL   H65826092   4.803   6.747   2.224  1.2438 -2.0550 -1.3094
   28MOL   H65926093   4.667   6.553   2.256  1.0612 -0.7597 -0.5290
   28MOL   O66026094   4.886   7.098   1.869 -0.1279 -0.1275  0.2235
   28MOL   C66126095   4.975   7.056   1.767 -0.2209  0.3249 -0.5878
   28MOL   C66226096   4.910   7.064   1.631 -0.2941 -0.1007 -0.2681
   28MOL   C66326097   4.993   7.029   1.510 -0.4741 -0.1376  0.0882
   28MOL   C66426098   4.920   7.064   1.380 -0.6933 -0.5744  0.4527
   28MOL   C66526099   4.815   6.955   1.353 -0.7833  0.1272 -0.1274
   28MOL   C66626100   4.731   6.988   1.236 -0.3635 -0.0743  0.1864
   28MOL   C66726101   4.632   7.106   1.256  0.0004 -0.1499  0.0714
   28MOL   C66826102   4.529   7.129   1.152 -0.1946  0.4726 -0.2789
   28MOL   C66926103   4.450   7.262   1.177  0.4774  0.1858 -0.8437
   28MOL   C67026104   4.340   7.307   1.080 -0.1384  0.0371  0.2425
   28MOL   O67126105   4.390   7.306   0.942 -0.2322  0.3216  0.2233
   28MOL   C67226106   4.338   7.391   0.849 -0.2200 -0.1857 -0.1227
   28MOL   O67326107   4.271   7.487   0.877 -0.7280  0.1308 -0.3251
   28MOL   C67426108   4.363   7.349   0.709 -0.7858  0.2070 -0.3742
   28MOL   C67526109   4.406   7.219   0.685  0.3354  0.5864  0.2189
   28MOL   C67626110   4.438   7.179   0.554  0.3230  0.9494  0.6592
   28MOL   C67726111   4.415   7.263   0.445 -0.0231 -0.1681 -0.4862
   28MOL   C67826112   4.442   7.224   0.299 -0.6878 -0.6126  0.0975
   28MOL   O67926113   4.455   7.311   0.212 -0.0270  0.4955 -0.7411
   28MOL   O68026114   4.448   7.094   0.274 -0.1614  0.0701 -0.5439
   28MOL   C68126115   4.357   7.389   0.468  0.0015  0.0846  0.0102
   28MOL   C68226116   4.326   7.430   0.600  0.6510  0.0439  0.7194
   28MOL   H68326117   5.054   7.131   1.771 -0.8660  0.9291  2.0718
   28MOL   H68426118   5.023   6.964   1.801  1.0159  1.1312 -0.1003
   28MOL   H68526119   4.868   7.164   1.626  1.5352  0.6968 -0.0871
   28MOL   H68626120   4.825   6.995   1.635  1.4750 -2.4788 -1.7484
   28MOL   H68726121   5.079   7.096   1.514  0.2392 -0.8314 -2.8070
   28MOL   H68826122   5.020   6.924   1.505 -0.8682 -0.1324 -2.7508
   28MOL   H68926123   4.990   7.070   1.297 -1.0625 -1.4507  0.0593
   28MOL   H69026124   4.876   7.163   1.382 -2.8235 -1.4949  1.3717
   28MOL   H69126125   4.871   6.866   1.324 -0.2503  0.2455  0.5330
   28MOL   H69226126   4.765   6.928   1.445  1.3237 -2.7374  0.2551
   28MOL   H69326127   4.798   7.008   1.153  1.0721 -0.5176  1.2311
   28MOL   H69426128   4.677   6.898   1.207 -2.0740  0.7878  0.6093
   28MOL   H69526129   4.585   7.102   1.354  0.7332  3.1480  0.6439
   28MOL   H69626130   4.689   7.199   1.253 -1.0108  0.4927  0.5885
   28MOL   H69726131   4.576   7.135   1.054 -0.4138  0.8602 -0.3639
   28MOL   H69826132   4.482   7.031   1.140  0.6122  0.0971 -0.4035
   28MOL   H69926133   4.522   7.342   1.163 -1.0626  1.5945 -0.8266
   28MOL   H70026134   4.423   7.270   1.282  1.7329 -3.0163 -0.2273
   28MOL   H70126135   4.316   7.410   1.105  0.6643  0.6022 -1.1946
   28MOL   H70226136   4.247   7.251   1.088 -0.0520  0.1688  2.5022
   28MOL   H70326137   4.415   7.146   0.764 -0.3179 -0.1333 -0.3578
   28MOL   H70426138   4.481   7.080   0.549  0.7782  1.1435  0.7123
   28MOL   H70526139   4.327   7.449   0.383 -0.4068  0.5195  0.4654
   28MOL   H70626140   4.282   7.528   0.615 -0.1653 -0.4071  1.3098
   28MOL   O70726141   4.417   7.066   0.136  0.1430  0.4742 -0.7035
   28MOL   C70826142   4.536   7.040   0.065 -0.0824  0.5716 -0.5085
   28MOL   C70926143   4.489   7.008   7.897 -0.2535 -0.0063 -0.8064
   28MOL   C71026144   4.619   6.974   7.815 -0.5115  0.1495  0.8987
   28MOL   C71126145   4.576   6.900   7.693 -0.7248  0.5007 -0.0722
   28MOL   C71226146   4.693   6.865   7.599 -0.0379  0.1254 -0.2159
   28MOL   C71326147   4.784   6.986   7.564 -0.4333  0.4160 -0.1927
   28MOL   C71426148   4.862   6.967   7.432  0.3436 -0.1040  0.2971
   28MOL   C71526149   4.950   7.084   7.397  0.3746  0.8283  0.2521
   28MOL   C71626150   4.999   7.092   7.251  0.1443  0.1924  0.1209
   28MOL   C71726151   5.098   6.982   7.213 -0.1414  0.1645  0.2938
   28MOL   O71826152   5.030   6.854   7.197 -0.2421  0.0601 -0.2531
   28MOL   C71926153   5.018   6.799   7.073  0.1641  0.3229 -0.6179
   28MOL   O72026154   5.053   6.855   6.971  0.5002  0.3712 -0.2765
   28MOL   C72126155   4.967   6.661   7.082 -0.5082  0.0761 -0.1935
   28MOL   C72226156   4.941   6.600   6.954  0.3860  0.0271  0.0180
   28MOL   C72326157   4.888   6.467   6.949 -0.2921 -0.2505  0.2726
   28MOL   C72426158   4.855   6.399   7.070  0.0273  0.5792 -0.5068
   28MOL   C72526159   4.805   6.255   7.067  0.0787  0.3926 -0.1269
   28MOL   O72626160   4.816   6.180   6.971  0.0145  0.2983 -0.5426
   28MOL   O72726161   4.748   6.219   7.183 -0.3469  0.1610 -0.2739
   28MOL   C72826162   4.888   6.456   7.197 -0.2903  0.7882 -0.3840
   28MOL   C72926163   4.941   6.587   7.199  0.2545 -0.1831  0.2388
   28MOL   H73026164   4.600   7.128   0.068  2.8265 -1.5184  0.9110
   28MOL   H73126165   4.584   6.958   0.117  2.3548  3.2625  1.6253
   28MOL   H73226166   4.442   7.094   7.848 -1.4154  0.4952  1.1481
   28MOL   H73326167   4.415   6.929   7.902 -0.1103 -0.0396  0.9517
   28MOL   H73426168   4.664   7.072   7.798  1.2815 -1.2675 -3.0963
   28MOL   H73526169   4.683   6.903   7.867 -0.4434  0.4032  1.1649
   28MOL   H73626170   4.499   6.956   7.641 -0.9006  1.5086  1.2495
   28MOL   H73726171   4.537   6.804   7.726  2.2735 -1.1045 -0.9259
   28MOL   H73826172   4.748   6.789   7.655 -2.5619 -0.4915  1.4881
   28MOL   H73926173   4.658   6.827   7.503 -1.9373  0.7749  0.2072
   28MOL   H74026174   4.716   7.070   7.548 -0.2826  0.7591  0.9198
   28MOL   H74126175   4.856   6.996   7.644  0.2687 -2.9355 -0.3301
   28MOL   H74226176   4.917   6.873   7.424  3.0105  1.6693 -3.4501
   28MOL   H74326177   4.791   6.959   7.349  1.5450  0.0380 -0.7470
   28MOL   H74426178   4.891   7.175   7.410  2.0057  2.1738 -1.3360
   28MOL   H74526179   5.039   7.086   7.461  0.7741 -1.9919 -0.1519
   28MOL   H74626180   5.046   7.188   7.229  2.0583 -1.1225 -1.6833
   28MOL   H74726181   4.916   7.090   7.181  1.1527 -0.6792 -1.0778
   28MOL   H74826182   5.184   6.980   7.280  0.8704  2.4116 -0.8930
   28MOL   H74926183   5.136   7.015   7.117 -0.6477 -1.0686 -0.3271
   28MOL   H75026184   4.966   6.658   6.866 -1.4764  1.1289  0.1909
   28MOL   H75126185   4.869   6.413   6.858 -0.4030 -1.1352  0.8119
   28MOL   H75226186   4.884   6.397   7.287 -1.5594  1.8001  0.2235
   28MOL   H75326187   4.972   6.628   7.294 -0.5419  0.6485  0.1416
   28MOL   O75426188   4.727   6.073   7.188  0.1333 -0.2623  0.0531
   28MOL   C75526189   4.813   6.014   7.287 -0.2958 -0.1676  0.2438
   28MOL   C75626190   4.800   5.862   7.278  0.0429  0.0899 -0.5211
   28MOL   C75726191   4.905   5.795   7.368  0.2947 -0.5201 -0.7378
   28MOL   C75826192   4.904   5.644   7.369 -0.2275  0.1460 -1.2646
   28MOL   C75926193   5.040   5.582   7.413  0.4455  0.1261 -0.3215
   28MOL   C76026194   5.035   5.430   7.383  0.1777  0.3734 -0.5569
   28MOL   C76126195   5.155   5.350   7.408 -0.4758  0.4375 -0.1802
   28MOL   C76226196   5.179   5.298   7.551 -0.3708 -0.3581  0.0633
   28MOL   C76326197   5.236   5.390   7.652 -0.4367  0.6440 -0.8059
   28MOL   C76426198   5.379   5.431   7.628 -0.3510  0.3043 -0.6040
   28MOL   O76526199   5.416   5.506   7.740  0.0909  0.1932 -0.1947
   28MOL   C76626200   5.410   5.639   7.740  0.5233 -0.1196 -0.0525
   28MOL   O76726201   5.359   5.707   7.650  0.1943  0.1564 -0.0158
   28MOL   C76826202   5.447   5.692   7.875  0.1655 -0.2277  1.0870
   28MOL   C76926203   5.509   5.817   7.886 -0.7503 -0.0828 -0.1680
   28MOL   C77026204   5.557   5.858   0.033 -0.1197  0.3531  0.3164
   28MOL   C77126205   5.537   5.777   0.150 -0.6037  0.3988  0.0086
   28MOL   C77226206   5.592   5.823   0.279 -0.2656  0.5621  0.5750
   28MOL   O77326207   5.565   5.761   0.380 -0.0642  0.3210 -0.3459
   28MOL   O77426208   5.669   5.931   0.265 -0.2492 -0.4906  0.2416
   28MOL   C77526209   5.457   5.659   0.139 -0.6270  0.7845  0.6270
   28MOL   C77626210   5.414   5.618   0.012  0.1914  0.4214 -0.2289
   28MOL   H77726211   4.917   6.034   7.262 -0.7536 -0.6774 -2.2185
   28MOL   H77826212   4.798   6.059   7.385  0.8776 -0.0212  0.3599
   28MOL   H77926213   4.810   5.822   7.176 -2.5350  0.2466 -0.8582
   28MOL   H78026214   4.699   5.825   7.295  1.3784 -2.1511  3.0542
   28MOL   H78126215   5.002   5.821   7.326 -0.0560 -0.8625 -1.7797
   28MOL   H78226216   4.905   5.815   7.475 -1.4067  0.5797 -0.9141
   28MOL   H78326217   4.893   5.626   7.262  1.1737  0.7829 -1.5357
   28MOL   H78426218   4.821   5.614   7.432  0.9400  1.0959  0.7688
   28MOL   H78526219   5.120   5.630   7.356 -0.0783 -0.9187 -1.9786
   28MOL   H78626220   5.050   5.596   7.520 -0.1470 -1.9057  0.0240
   28MOL   H78726221   4.954   5.391   7.444  0.9205  0.3804  0.4498
   28MOL   H78826222   5.013   5.417   7.277  4.1334  0.2610 -1.4338
   28MOL   H78926223   5.162   5.263   7.343  0.0408 -0.7945  1.4871
   28MOL   H79026224   5.241   5.407   7.370  0.3910 -0.2861  0.6789
   28MOL   H79126225   5.079   5.269   7.584 -0.7359  0.9566  0.1511
   28MOL   H79226226   5.248   5.214   7.544  0.2583  0.1562 -0.0385
   28MOL   H79326227   5.240   5.346   7.752 -1.8961  1.5227 -0.3433
   28MOL   H79426228   5.172   5.475   7.674  1.2451  1.1737  2.2880
   28MOL   H79526229   5.388   5.477   7.529 -2.8763  1.7623 -0.2033
   28MOL   H79626230   5.442   5.343   7.643 -1.9374 -0.6692  0.3919
   28MOL   H79726231   5.546   5.864   7.797 -1.3469  0.1951 -0.2687
   28MOL   H79826232   5.598   5.957   0.049  1.7467 -0.3712  0.0825
   28MOL   H79926233   5.426   5.609   0.229  1.1928  1.4558  1.6510
   28MOL   H80026234   5.356   5.529   7.970  0.5595 -0.0091  0.6194
   28MOL   O80126235   5.747   5.955   0.389 -0.3941 -0.6833 -0.3347
   28MOL   C80226236   5.685   6.048   0.466  0.2676  0.4175 -0.0317
   28MOL   C80326237   5.752   6.048   0.608 -0.3226 -0.7491 -0.2214
   28MOL   C80426238   5.742   5.910   0.676  1.2636  0.2494 -0.5310
   28MOL   C80526239   5.600   5.877   0.724 -0.5509 -0.0771 -0.6955
   28MOL   C80626240   5.592   5.756   0.821 -0.3844  0.0977  0.2410
   28MOL   C80726241   5.446   5.705   0.821 -0.4238  0.1884  0.1455
   28MOL   C80826242   5.427   5.602   0.939  0.1507 -0.9009 -0.8353
   28MOL   C80926243   5.283   5.542   0.946  0.4794  0.2911  0.3151
   28MOL   C81026244   5.243   5.454   0.832 -0.3843  0.2225 -0.3512
   28MOL   C81126245   5.095   5.410   0.830  0.1412  0.6826  0.2172
   28MOL   O81226246   5.051   5.347   0.708 -0.2434 -0.2807 -0.3523
   28MOL   C81326247   5.068   5.213   0.690 -0.3723  0.0327 -0.5183
   28MOL   O81426248   5.123   5.140   0.771  0.8821 -0.4826 -0.4314
   28MOL   C81526249   5.004   5.153   0.569 -0.2622 -0.1657  0.3930
   28MOL   C81626250   5.034   5.023   0.529 -0.2107 -0.0630 -0.1980
   28MOL   C81726251   4.971   4.971   0.412 -0.0845  0.5221 -0.5228
   28MOL   C81826252   4.881   5.043   0.330 -0.5979 -0.2851  0.3733
   28MOL   C81926253   4.820   4.989   0.206 -0.4404 -0.4396 -0.3556
   28MOL   O82026254   4.750   5.049   0.127  0.2058 -0.3882  0.4520
   28MOL   O82126255   4.865   4.862   0.196  0.6865  0.1888 -0.4179
   28MOL   C82226256   4.854   5.179   0.372 -0.1435  0.0921 -0.3056
   28MOL   C82326257   4.914   5.230   0.489  0.2306 -0.6386  0.4343
   28MOL   H82426258   5.677   6.148   0.423 -0.7299  0.5233  0.3909
   28MOL   H82526259   5.580   6.021   0.476  0.2343  0.2395 -0.8210
   28MOL   H82626260   5.712   6.123   0.677  0.0097  0.2542 -1.1206
   28MOL   H82726261   5.860   6.057   0.594  0.3180 -2.2330  3.0569
   28MOL   H82826262   5.777   5.833   0.607  0.8592 -0.8741  0.4896
   28MOL   H82926263   5.810   5.917   0.760 -2.2554 -1.1227  2.5541
   28MOL   H83026264   5.540   5.853   0.636  2.0665 -1.0639 -2.3003
   28MOL   H83126265   5.553   5.969   0.756 -1.3464  0.2818 -2.7885
   28MOL   H83226266   5.666   5.683   0.790  0.6836  1.9527 -1.7204
   28MOL   H83326267   5.629   5.794   0.916  1.6941  1.0700 -0.9093
   28MOL   H83426268   5.370   5.783   0.817 -0.2776  0.1994 -2.7684
   28MOL   H83526269   5.426   5.657   0.726 -0.1134  1.4528 -0.5678
   28MOL   H83626270   5.500   5.523   0.928 -0.9494 -2.0387 -0.0245
   28MOL   H83726271   5.438   5.654   1.034 -1.0828  1.5294 -1.9685
   28MOL   H83826272   5.249   5.492   1.036  1.0833 -3.0323 -1.2061
   28MOL   H83926273   5.211   5.624   0.942 -0.7049 -0.7043  0.8043
   28MOL   H84026274   5.304   5.363   0.837  0.1789  0.6640  1.0843
   28MOL   H84126275   5.264   5.508   0.740  0.5848  0.7574  0.1714
   28MOL   H84226276   5.031   5.498   0.831  1.2845  1.5190  0.4591
   28MOL   H84326277   5.061   5.353   0.917  2.1633 -0.5291  0.2410
   28MOL   H84426278   5.099   4.959   0.587  0.5455  1.8872  1.1855
   28MOL   H84526279   4.989   4.867   0.391  1.6001  0.4851  0.9483
   28MOL   H84626280   4.784   5.244   0.321  0.2098  0.2901 -0.5431
   28MOL   H84726281   4.892   5.333   0.512  1.3322 -0.0217 -1.1574
   28MOL   O84826282   4.843   4.812   0.055 -0.2337 -0.2706 -0.3047
   28MOL   C84926283   4.966   4.836   7.969 -0.4884  0.3184 -0.1625
   28MOL   C85026284   4.960   4.738   7.851  0.2740  0.9191  0.4834
   28MOL   C85126285   5.086   4.688   7.783  0.2091 -0.4645  0.0954
   28MOL   C85226286   5.060   4.566   7.694 -0.5912  0.6567  0.1783
   28MOL   C85326287   5.180   4.483   7.638 -0.0512 -0.1556 -0.2976
   28MOL   C85426288   5.143   4.378   7.535  0.3873  0.0408 -0.8637
   28MOL   C85526289   5.242   4.259   7.525  0.2398  0.3868 -0.2969
   28MOL   C85626290   5.232   4.166   7.408  0.3848 -0.0654  0.2093
   28MOL   C85726291   5.134   4.047   7.432 -0.5151 -0.8153 -0.3317
   28MOL   C85826292   5.115   3.967   7.305  0.2269  0.1804  0.0832
   28MOL   O85926293   5.053   3.844   7.345  0.3446 -0.0647 -0.1492
   28MOL   C86026294   5.020   3.753   7.246  0.7948 -0.0241  0.1239
   28MOL   O86126295   5.049   3.771   7.125 -0.1748 -0.0068  0.6358
   28MOL   C86226296   4.939   3.641   7.299  0.1768  0.2996  0.1282
   28MOL   C86326297   4.912   3.534   7.212  0.2515  0.2976 -0.3934
   28MOL   C86426298   4.847   3.417   7.259 -0.5379 -0.1017 -0.0476
   28MOL   C86526299   4.800   3.410   7.390  0.0593  0.0944  0.2583
   28MOL   C86626300   4.722   3.285   7.438 -0.4192  0.0204  0.8065
   28MOL   O86726301   4.711   3.183   7.370  0.2072 -0.1555  0.0900
   28MOL   O86826302   4.662   3.300   7.558  0.5587 -0.1977  0.1719
   28MOL   C86926303   4.821   3.519   7.472  0.9469 -0.1839  0.5548
   28MOL   C87026304   4.887   3.638   7.430  0.7222  0.2943 -0.0138
   28MOL   H87126305   4.969   4.939   7.937  2.0516  0.1701 -0.4921
   28MOL   H87226306   5.050   4.808   0.054 -0.4014  0.2873 -0.2919
   28MOL   H87326307   4.895   4.784   7.776 -0.0827 -0.8346 -0.2901
   28MOL   H87426308   4.911   4.647   7.886 -0.7834  0.6951 -1.5008
   28MOL   H87526309   5.139   4.766   7.729  0.1211 -1.1079 -0.9282
   28MOL   H87626310   5.155   4.655   7.861  0.5916 -2.2633 -0.9623
   28MOL   H87726311   5.010   4.618   7.612 -2.5469 -0.3723  0.7016
   28MOL   H87826312   4.996   4.489   7.736  1.6116 -1.0650  0.4790
   28MOL   H87926313   5.262   4.548   7.609 -0.3164  0.7574  0.9581
   28MOL   H88026314   5.228   4.437   7.724  0.2619  0.4769 -0.1290
   28MOL   H88126315   5.052   4.336   7.577  2.0347 -0.4357  2.4267
   28MOL   H88226316   5.122   4.417   7.436  0.5536  0.4463 -0.7395
   28MOL   H88326317   5.341   4.303   7.530  0.9303 -1.0979 -0.5294
   28MOL   H88426318   5.230   4.198   7.615  4.0596 -1.5944 -1.0373
   28MOL   H88526319   5.213   4.216   7.313  0.1396 -1.4724 -0.4997
   28MOL   H88626320   5.328   4.115   7.398  0.5411  0.4541 -1.0343
   28MOL   H88726321   5.035   4.070   7.472 -0.1873 -1.3657  0.8403
   28MOL   H88826322   5.182   3.993   7.514 -0.7771 -1.1487 -0.3965
   28MOL   H88926323   5.209   3.933   7.261  0.8124 -0.2270  1.6231
   28MOL   H89026324   5.049   4.030   7.245 -2.2716  0.0139  2.5705
   28MOL   H89126325   4.952   3.534   7.111  1.0974  1.8675 -0.0674
   28MOL   H89226326   4.833   3.332   7.194  1.1427  1.3246 -2.3296
   28MOL   H89326327   4.778   3.511   7.571  0.1465  2.0894  0.4186
   28MOL   H89426328   4.903   3.719   7.499 -0.4574 -1.2347  2.1092
   28MOL   O89526329   4.579   3.183   7.604 -0.0353 -0.3994 -0.1122
   28MOL   C89626330   4.660   3.103   7.695 -0.4362 -0.1059  0.0536
   28MOL   C89726331   4.570   2.999   7.770  0.7128 -0.5639  0.3390
   28MOL   C89826332   4.524   2.878   7.686  0.3416 -0.3594 -0.0339
   28MOL   C89926333   4.382   2.825   7.723  0.4363  0.0646  0.1172
   28MOL   C90026334   4.385   2.781   7.863  0.4295  0.5788  0.2112
   28MOL   C90126335   4.248   2.719   7.902 -0.0930 -0.3709 -0.5055
   28MOL   C90226336   4.252   2.658   0.069 -0.0461  0.2237 -0.1472
   28MOL   C90326337   4.142   2.558   0.098 -0.2061 -0.2565 -0.1659
   28MOL   C90426338   4.173   2.514   0.242  0.1979  0.2063  0.3480
   28MOL   C90526339   4.053   2.444   0.312 -0.1546  0.7459 -0.2326
   28MOL   O90626340   4.019   2.317   0.256  0.3999 -0.1153 -0.1841
   28MOL   C90726341   4.066   2.201   0.304 -0.1967  0.5154 -0.2905
   28MOL   O90826342   4.149   2.190   0.402 -0.4970  0.1233  0.1373
   28MOL   C90926343   4.009   2.083   0.235  0.1109  0.2558 -0.2302
   28MOL   C91026344   3.894   2.097   0.157  0.4603  0.3832 -0.5818
   28MOL   C91126345   3.849   1.990   0.083 -0.1349  0.2148 -0.5200
   28MOL   C91226346   3.900   1.863   0.104  0.2805  0.6050  0.8678
   28MOL   C91326347   3.835   1.754   0.030 -0.3812 -0.1535  0.2977
   28MOL   O91426348   3.751   1.777   7.917  0.4917 -0.1868 -0.0478
   28MOL   O91526349   3.883   1.637   0.059  0.4860  0.0195  0.3742
   28MOL   C91626350   4.010   1.841   0.192  0.0418  0.4086  0.2313
   28MOL   C91726351   4.063   1.954   0.254 -0.7334 -0.2590  0.5628
   28MOL   H91826352   4.744   3.063   7.637  0.1111 -0.1947  0.8993
   28MOL   H91926353   4.713   3.161   7.771 -0.5415 -0.7285  0.6107
   28MOL   H92026354   4.481   3.041   7.815  1.1787 -0.7047  1.3938
   28MOL   H92126355   4.633   2.959   7.849 -0.8542 -0.2324  1.7637
   28MOL   H92226356   4.507   2.906   7.582 -1.0697 -1.4101 -0.0995
   28MOL   H92326357   4.607   2.809   7.683  1.2383  0.6921  0.1276
   28MOL   H92426358   4.359   2.740   7.659  2.0262  0.7535 -1.4045
   28MOL   H92526359   4.312   2.907   7.713  0.5346  0.0914 -0.3758
   28MOL   H92626360   4.467   2.710   7.866 -1.0019 -1.1510 -0.6967
   28MOL   H92726361   4.407   2.858   7.937 -1.8297  0.3439  1.1899
   28MOL   H92826362   4.166   2.791   7.898 -2.2954 -2.7172  1.0233
   28MOL   H92926363   4.211   2.645   7.831 -1.3864 -2.2985  2.0770
   28MOL   H93026364   4.350   2.615   0.091  0.5924  1.7049 -0.0469
   28MOL   H93126365   4.259   2.742   0.139 -0.8961  0.3248 -0.1800
   28MOL   H93226366   4.042   2.602   0.096  0.5017  1.3718 -0.3875
   28MOL   H93326367   4.149   2.466   0.041 -2.9896  0.4930 -1.8003
   28MOL   H93426368   4.191   2.600   0.307 -1.5885  0.4159  0.6108
   28MOL   H93526369   4.259   2.447   0.239 -0.2524 -0.3316 -0.7469
   28MOL   H93626370   3.959   2.499   0.313  0.2169  1.3714  0.3824
   28MOL   H93726371   4.075   2.430   0.418 -0.7619 -0.4145 -0.2569
   28MOL   H93826372   3.850   2.193   0.141 -0.5024 -0.1869 -1.3846
   28MOL   H93926373   3.763   2.010   0.021  0.4821  0.5735 -1.2720
   28MOL   H94026374   4.055   1.744   0.205 -0.3375  0.2152  0.1151
   28MOL   H94126375   4.155   1.945   0.310  0.0096 -1.3067 -0.8188
   28MOL   H94226376   3.909   1.569   7.977  2.3802  0.6448  0.4522
   29MOL     O126377   4.809   0.897   0.921  0.0569  0.2966  0.1046
   29MOL     C226378   4.764   0.813   0.817 -0.4203 -0.6329 -0.6516
   29MOL     C326379   4.619   0.767   0.861  0.3138 -0.3994 -0.1563
   29MOL     C426380   4.552   0.687   0.756 -0.2647  0.3103  0.1891
   29MOL     C526381   4.423   0.623   0.815  0.0052 -0.0247 -0.3124
   29MOL     C626382   4.341   0.542   0.721 -0.0105  0.0215  0.7901
   29MOL     C726383   4.224   0.469   0.788  0.6961 -0.2167 -0.3334
   29MOL     C826384   4.269   0.343   0.873  0.3683  0.2072  0.2011
   29MOL     C926385   4.159   0.271   0.946  0.1547 -0.5661 -0.1042
   29MOL    C1026386   4.222   0.148   1.025 -0.2416 -0.1298 -0.0502
   29MOL    C1126387   4.137   0.104   1.138  0.8994 -0.2211 -0.3307
   29MOL    O1226388   4.191   7.966   1.195  0.0900  0.0553  0.0788
   29MOL    C1326389   4.164   7.946   1.326 -0.0952  0.3980  0.5808
   29MOL    O1426390   4.087   0.039   1.396 -0.0745 -0.3881 -0.2981
   29MOL    C1526391   4.233   7.831   1.385  0.1943  0.0597 -0.8811
   29MOL    C1626392   4.322   7.750   1.319  0.0815 -0.0423  0.5923
   29MOL    C1726393   4.378   7.642   1.377 -0.2373  0.9025  0.0785
   29MOL    C1826394   4.350   7.610   1.512 -0.2151  0.3828 -0.5219
   29MOL    C1926395   4.412   7.499   1.593 -0.3768 -0.1400  0.2293
   29MOL    O2026396   4.415   7.496   1.715  0.2595 -0.4994 -0.2030
   29MOL    O2126397   4.456   7.405   1.518 -0.2287 -0.8140 -0.2439
   29MOL    C2226398   4.261   7.695   1.588 -0.1572 -0.3475  1.0064
   29MOL    C2326399   4.203   7.806   1.522 -0.1491 -0.0962  0.4948
   29MOL    H2426400   4.768   0.875   0.727  2.9012  1.7149  1.0188
   29MOL    H2526401   4.830   0.729   0.797  0.8220  0.0875  0.3940
   29MOL    H2626402   4.557   0.856   0.871  1.2766  0.4884 -1.8955
   29MOL    H2726403   4.622   0.712   0.954 -0.9061  0.6619  0.5302
   29MOL    H2826404   4.521   0.742   0.667 -0.5274  1.1491  0.7908
   29MOL    H2926405   4.613   0.611   0.708 -2.3596 -0.5397 -1.2427
   29MOL    H3026406   4.367   0.709   0.851 -0.7114 -1.1228  1.2266
   29MOL    H3126407   4.463   0.570   0.901 -1.3355  0.1605  0.4353
   29MOL    H3226408   4.301   0.607   0.643 -0.9051 -0.7557  0.5915
   29MOL    H3326409   4.398   0.459   0.678 -0.5023 -0.8452  1.8119
   29MOL    H3426410   4.178   0.537   0.860  2.5626  1.0022 -0.2577
   29MOL    H3526411   4.152   0.441   0.711  1.2583 -0.8487 -0.6256
   29MOL    H3626412   4.314   0.281   0.796  1.3305  0.8998  0.2028
   29MOL    H3726413   4.352   0.368   0.939  1.9087 -0.2084 -1.5452
   29MOL    H3826414   4.110   0.346   1.007  2.1836 -1.9740  3.3621
   29MOL    H3926415   4.079   0.232   0.883  0.1600  1.0354 -1.1472
   29MOL    H4026416   4.311   0.179   1.080  0.4715 -0.8553 -0.7824
   29MOL    H4126417   4.261   0.075   0.954  1.1952  0.3385  0.2461
   29MOL    H4226418   4.040   0.078   1.094  1.0726  0.9134 -1.4017
   29MOL    H4326419   4.140   0.194   1.199  0.6962 -1.2771  1.2995
   29MOL    H4426420   4.351   7.778   1.219 -0.4609 -0.1829  0.3955
   29MOL    H4526421   4.448   7.583   1.319 -0.6299  0.0912  0.4144
   29MOL    H4626422   4.252   7.690   1.695  1.1214 -2.0883  1.0352
   29MOL    H4726423   4.127   7.863   1.572  0.1267 -1.1098  2.0936
   29MOL    H4826424   4.781   0.853   1.000 -0.5299 -0.3954 -0.4847
   29MOL    O4926425   4.524   7.297   1.587  0.3256 -0.1258 -0.4281
   29MOL    C5026426   4.424   7.193   1.595  0.1874 -0.0484 -0.3729
   29MOL    C5126427   4.490   7.062   1.646  0.1695 -0.3964  0.6186
   29MOL    C5226428   4.387   6.948   1.635 -0.0316  0.1126 -0.6615
   29MOL    C5326429   4.287   6.929   1.747  0.0053  0.1150 -0.2911
   29MOL    C5426430   4.222   6.790   1.749  0.0656 -0.0465 -0.1685
   29MOL    C5526431   4.158   6.745   1.885 -0.5491  0.0718  0.5478
   29MOL    C5626432   4.097   6.603   1.888  0.3930  0.5231  0.0210
   29MOL    C5726433   4.067   6.552   2.034  0.4519 -0.1279  0.2970
   29MOL    C5826434   4.022   6.409   2.021 -0.2436  0.5478 -0.4387
   29MOL    C5926435   3.962   6.356   2.151  0.0774  0.1403 -1.1018
   29MOL    O6026436   3.911   6.227   2.147 -0.5487  0.2210 -0.1862
   29MOL    C6126437   3.926   6.138   2.245 -0.9002 -0.7322  0.3072
   29MOL    O6226438   3.998   6.158   2.341 -0.5186  0.4461 -0.2269
   29MOL    C6326439   3.857   6.015   2.214 -0.3492 -0.2345 -0.7773
   29MOL    C6426440   3.825   5.962   2.088 -0.3935 -0.2939  0.5020
   29MOL    C6526441   3.766   5.834   2.076  0.0710  0.1624  0.1390
   29MOL    C6626442   3.747   5.753   2.194  0.1316 -0.9283 -0.8367
   29MOL    C6726443   3.690   5.616   2.181 -0.6967 -0.3926 -0.7429
   29MOL    O6826444   3.665   5.566   2.072 -0.3382  0.1719  0.3028
   29MOL    O6926445   3.653   5.552   2.293 -0.2141 -0.0831  0.2468
   29MOL    C7026446   3.789   5.801   2.319 -0.0554  0.1970 -0.0574
   29MOL    C7126447   3.850   5.930   2.328  0.0794  0.5486  0.6035
   29MOL    H7226448   4.350   7.215   1.672  0.2153  0.8821 -0.6125
   29MOL    H7326449   4.383   7.170   1.497  0.1064 -1.6962  0.0336
   29MOL    H7426450   4.517   7.078   1.751 -0.1217 -1.1345  0.8107
   29MOL    H7526451   4.583   7.034   1.597  0.4039  0.9113  0.3100
   29MOL    H7626452   4.325   6.948   1.545 -0.4925  1.4401 -0.3509
   29MOL    H7726453   4.439   6.855   1.614 -0.7012 -0.5205  0.4278
   29MOL    H7826454   4.204   6.997   1.729 -1.0476 -1.4156 -1.3072
   29MOL    H7926455   4.342   6.950   1.839 -1.6925  1.9009  0.3647
   29MOL    H8026456   4.136   6.795   1.682 -0.1143  4.2428  0.2510
   29MOL    H8126457   4.293   6.719   1.708  2.2779  1.8202  0.3341
   29MOL    H8226458   4.226   6.761   1.968  0.1183  1.3166 -0.2256
   29MOL    H8326459   4.075   6.813   1.908 -1.7082 -1.3669  0.6989
   29MOL    H8426460   4.006   6.591   1.830  0.6806  0.4252 -0.4110
   29MOL    H8526461   4.182   6.548   1.846  1.1203  1.2824  0.4764
   29MOL    H8626462   4.154   6.562   2.099  0.5001  0.8414  0.0894
   29MOL    H8726463   3.994   6.614   2.086  1.7945 -0.5137  2.6876
   29MOL    H8826464   4.108   6.346   1.999 -0.5265 -0.0083  0.0522
   29MOL    H8926465   3.953   6.395   1.939 -0.2144  0.8119 -0.5085
   29MOL    H9026466   3.886   6.418   2.200  1.9821  0.4185  1.6035
   29MOL    H9126467   4.042   6.370   2.223 -1.8550 -1.6287  1.4843
   29MOL    H9226468   3.857   6.011   1.998  1.2288 -0.5335  0.9251
   29MOL    H9326469   3.738   5.803   1.976 -1.0733  2.9787 -0.4460
   29MOL    H9426470   3.779   5.743   2.409  0.5604  1.3573  0.7835
   29MOL    H9526471   3.898   5.958   2.420  0.6940  0.7967  0.2146
   29MOL    O9626472   3.589   5.424   2.263 -0.4013  0.0546  0.3952
   29MOL    C9726473   3.447   5.433   2.282 -0.3560 -0.3480 -0.0449
   29MOL    C9826474   3.409   5.465   2.428 -0.1250  0.3687  0.2443
   29MOL    C9926475   3.478   5.381   2.531  0.1476 -0.3696 -0.3647
   29MOL   C10026476   3.395   5.240   2.553  0.4329 -0.4301 -0.4499
   29MOL   C10126477   3.440   5.170   2.674  0.1607 -0.1507  0.4689
   29MOL   C10226478   3.380   5.021   2.690  0.2897 -0.0263 -0.2108
   29MOL   C10326479   3.341   4.998   2.839  0.0311 -1.0577  0.2352
   29MOL   C10426480   3.214   5.076   2.887  0.5263 -0.6792  0.0534
   29MOL   C10526481   3.179   5.040   3.028 -0.1255  0.1948 -0.6249
   29MOL   C10626482   3.052   5.103   3.077  0.5816 -0.2566 -0.2412
   29MOL   O10726483   2.942   5.053   3.002  0.4799 -0.2341  0.0869
   29MOL   C10826484   2.825   5.119   3.005 -0.2580  0.3205 -0.1518
   29MOL   O10926485   2.799   5.213   3.078 -0.3819  0.4137 -0.5412
   29MOL   C11026486   2.722   5.058   2.916 -0.0663 -0.6755  0.0889
   29MOL   C11126487   2.761   4.988   2.798  0.0255  0.0072 -1.4818
   29MOL   C11226488   2.666   4.928   2.715 -0.2169  0.1109 -0.0952
   29MOL   C11326489   2.531   4.960   2.728  0.2509 -0.0955 -0.3218
   29MOL   C11426490   2.430   4.922   2.628  0.1292 -0.1942 -0.0528
   29MOL   O11526491   2.452   4.837   2.540 -0.1776 -0.2805 -0.4122
   29MOL   O11626492   2.322   5.001   2.632 -0.0108 -0.2063 -0.6165
   29MOL   C11726493   2.492   5.038   2.844  0.6245  0.9392  0.0170
   29MOL   C11826494   2.587   5.087   2.934  0.1630 -0.1875  0.2362
   29MOL   H11926495   3.409   5.502   2.207  0.9246 -0.8714 -1.2166
   29MOL   H12026496   3.398   5.340   2.253  0.3725 -0.9344  0.5833
   29MOL   H12126497   3.301   5.454   2.429 -0.2922  1.8533  0.1104
   29MOL   H12226498   3.432   5.572   2.435 -0.5278  0.4561  0.2322
   29MOL   H12326499   3.582   5.353   2.515  0.4196  1.2274 -1.5053
   29MOL   H12426500   3.486   5.441   2.622  5.4967  0.1750 -1.0532
   29MOL   H12526501   3.394   5.173   2.467  0.8189 -1.2716  0.1999
   29MOL   H12626502   3.288   5.258   2.564  0.7306  0.1248  1.6873
   29MOL   H12726503   3.549   5.175   2.678  0.1329  1.6216 -0.5707
   29MOL   H12826504   3.417   5.236   2.758 -2.2624 -0.9020  0.4264
   29MOL   H12926505   3.294   5.003   2.625 -1.6819 -0.0093  2.2891
   29MOL   H13026506   3.449   4.943   2.661  2.0506  0.9332  1.2889
   29MOL   H13126507   3.327   4.891   2.853  3.7473 -1.7044 -0.5820
   29MOL   H13226508   3.420   5.034   2.903 -2.0040 -1.0059  2.7998
   29MOL   H13326509   3.236   5.183   2.880  1.2364 -0.8926 -1.0743
   29MOL   H13426510   3.129   5.050   2.824  1.0932 -1.7517 -0.2774
   29MOL   H13526511   3.267   5.063   3.088 -1.2844  2.5575  0.2509
   29MOL   H13626512   3.165   4.932   3.031 -0.1425  0.1235 -2.6621
   29MOL   H13726513   3.049   5.211   3.062  1.7029  0.2864  3.0607
   29MOL   H13826514   3.026   5.081   3.180  1.3121  1.6820  0.3864
   29MOL   H13926515   2.867   4.980   2.780  0.6281 -1.2425  2.1412
   29MOL   H14026516   2.706   4.866   2.636  0.8403 -0.0236  0.5442
   29MOL   H14126517   2.387   5.046   2.869  0.5714  0.0083  0.1098
   29MOL   H14226518   2.558   5.142   3.022  0.7694 -2.5887  1.9806
   29MOL   O14326519   2.211   4.967   2.524  0.5270 -0.2219 -0.9596
   29MOL   C14426520   2.250   5.015   2.400  0.2547 -0.4638  0.3480
   29MOL   C14526521   2.208   4.918   2.290  0.1467 -0.2069 -0.6637
   29MOL   C14626522   2.262   4.957   2.154  0.4738  0.3552  0.3778
   29MOL   C14726523   2.236   4.852   2.049 -0.4724  0.4076  0.5525
   29MOL   C14826524   2.344   4.746   2.050  0.0921 -0.0448 -0.0817
   29MOL   C14926525   2.356   4.663   1.932 -0.0938 -1.2482 -0.1867
   29MOL   C15026526   2.240   4.565   1.915 -0.1330  0.3448 -0.0740
   29MOL   C15126527   2.291   4.456   1.821 -0.2176 -0.2183 -1.0698
   29MOL   C15226528   2.177   4.363   1.771  0.5647  0.3891  0.1307
   29MOL   C15326529   2.235   4.251   1.683  0.0460  0.1520 -0.2317
   29MOL   O15426530   2.129   4.157   1.643 -0.2918  0.3990  0.0820
   29MOL   C15526531   2.072   4.068   1.729 -0.2528  0.1583  0.9228
   29MOL   O15626532   2.103   4.063   1.847 -0.2505 -0.0526 -0.0070
   29MOL   C15726533   1.960   4.000   1.667  0.4201 -1.0366 -0.4893
   29MOL   C15826534   1.897   4.066   1.555  0.1403 -0.5289  0.7155
   29MOL   C15926535   1.792   4.011   1.492  0.3281 -0.2001 -0.9631
   29MOL   C16026536   1.733   3.900   1.542 -0.3064 -0.2427 -0.1404
   29MOL   C16126537   1.604   3.844   1.484  0.4062  0.3581  0.3498
   29MOL   O16226538   1.532   3.759   1.529 -0.3022 -0.1500  0.2258
   29MOL   O16326539   1.572   3.900   1.363 -0.2923  0.0648 -0.0991
   29MOL   C16426540   1.784   3.832   1.661  0.0618 -0.3449 -0.4701
   29MOL   C16526541   1.895   3.885   1.726 -0.0607  0.2037 -0.0323
   29MOL   H16626542   2.207   5.114   2.389 -0.4362 -0.7895  0.0888
   29MOL   H16726543   2.356   5.040   2.394  0.8781 -2.8067  0.9670
   29MOL   H16826544   2.100   4.927   2.291 -0.3122 -4.5121 -0.4048
   29MOL   H16926545   2.229   4.815   2.320  4.1464  0.1123 -2.0234
   29MOL   H17026546   2.213   5.048   2.120  0.9622  0.9815  1.3450
   29MOL   H17126547   2.364   4.995   2.149  1.6720 -2.6467  1.1720
   29MOL   H17226548   2.247   4.901   1.952 -2.2388  0.0491  0.1560
   29MOL   H17326549   2.136   4.809   2.052  0.9759 -3.3086 -0.9174
   29MOL   H17426550   2.439   4.796   2.070 -0.3559  1.5703 -1.9212
   29MOL   H17526551   2.326   4.687   2.140 -3.0262  1.1594  0.1460
   29MOL   H17626552   2.358   4.735   1.850  1.2944 -0.4835  0.5041
   29MOL   H17726553   2.454   4.616   1.938 -0.2052 -1.3338  1.2856
   29MOL   H17826554   2.233   4.514   2.011  0.7863  0.7103  0.1923
   29MOL   H17926555   2.145   4.612   1.890 -0.6002  1.2801  3.2299
   29MOL   H18026556   2.343   4.507   1.739 -1.9496  1.3357 -1.2239
   29MOL   H18126557   2.365   4.393   1.871  0.0668 -2.7989 -4.4847
   29MOL   H18226558   2.107   4.423   1.714  0.2416  0.1488  0.2746
   29MOL   H18326559   2.123   4.324   1.857  0.9107  1.7068  0.9573
   29MOL   H18426560   2.318   4.206   1.738  0.9678  1.7672 -0.2834
   29MOL   H18526561   2.277   4.296   1.593 -1.4243  1.8180 -0.1026
   29MOL   H18626562   1.937   4.155   1.508 -0.9562  0.9774  2.5425
   29MOL   H18726563   1.765   4.056   1.397 -0.2129  1.2223 -0.1497
   29MOL   H18826564   1.733   3.741   1.689 -0.7584  0.4608  0.7245
   29MOL   H18926565   1.937   3.838   1.813 -1.0440 -0.4580  0.0829
   29MOL   O19026566   1.506   3.814   1.260 -0.8250 -0.1897  0.0488
   29MOL   C19126567   1.371   3.851   1.257  0.7942 -0.0061  0.4437
   29MOL   C19226568   1.308   3.765   1.138  0.7690 -0.0347 -0.3848
   29MOL   C19326569   1.154   3.774   1.139 -0.6683 -0.0006  0.6304
   29MOL   C19426570   1.083   3.685   1.040  0.2102  0.2980  0.2175
   29MOL   C19526571   1.091   3.731   0.891 -0.3825 -0.5908  0.2808
   29MOL   C19626572   1.021   3.629   0.802 -0.1195  0.4621 -0.6487
   29MOL   C19726573   1.039   3.654   0.654  0.9749  0.2788 -0.4490
   29MOL   C19826574   0.961   3.556   0.560  0.0267 -0.2850 -0.1334
   29MOL   C19926575   0.985   3.595   0.411 -0.0334 -0.7519  0.7753
   29MOL   C20026576   0.910   3.504   0.324  0.1255 -0.0301  0.0857
   29MOL   O20126577   0.943   3.543   0.196  0.5601 -0.0396 -0.1771
   29MOL   C20226578   0.867   3.505   0.091  0.1319  0.1148 -0.0002
   29MOL   O20326579   0.761   3.444   0.097  0.4500 -0.2996 -0.2788
   29MOL   C20426580   0.921   3.539   7.942  0.3774 -0.5118 -0.5210
   29MOL   C20526581   0.835   3.565   7.829 -0.4739 -0.1213 -0.3460
   29MOL   C20626582   0.896   3.596   7.703  0.0938  0.6910  0.1862
   29MOL   C20726583   1.035   3.600   7.689 -0.2751 -0.1183 -0.3140
   29MOL   C20826584   1.095   3.641   7.556  0.6510 -0.2498 -0.6205
   29MOL   O20926585   1.021   3.671   7.455 -0.3054 -0.5889 -0.2700
   29MOL   O21026586   1.236   3.662   7.558 -0.3960 -0.1609 -0.4309
   29MOL   C21126587   1.118   3.573   7.801 -0.5856  0.9979 -0.4261
   29MOL   C21226588   1.062   3.546   7.925 -0.1320  0.0018 -0.2188
   29MOL   H21326589   1.327   3.816   1.350 -1.3849 -2.2131 -1.3395
   29MOL   H21426590   1.374   3.960   1.247  0.5173 -0.1733 -1.8601
   29MOL   H21526591   1.344   3.664   1.159  2.5346  0.8340  0.8991
   29MOL   H21626592   1.356   3.796   1.045  0.0550  0.8315 -0.4648
   29MOL   H21726593   1.120   3.756   1.241  1.3631  2.7067  1.8504
   29MOL   H21826594   1.121   3.876   1.118  1.3418  1.0347  2.3730
   29MOL   H21926595   0.980   3.669   1.073 -0.3967  2.9209 -0.2343
   29MOL   H22026596   1.129   3.587   1.034 -0.5748  0.0287 -2.1943
   29MOL   H22126597   1.043   3.828   0.877 -1.0006 -0.9769 -0.3129
   29MOL   H22226598   1.192   3.747   0.853 -0.6356  1.3805  0.3797
   29MOL   H22326599   1.048   3.527   0.829  0.4114  0.8976  0.5051
   29MOL   H22426600   0.915   3.640   0.824 -0.4466 -0.6503 -1.6258
   29MOL   H22526601   1.008   3.757   0.637 -1.3753 -0.3640 -0.2002
   29MOL   H22626602   1.143   3.660   0.623  1.3164 -1.5747  0.2669
   29MOL   H22726603   0.993   3.455   0.586  0.5013  0.1322  0.9011
   29MOL   H22826604   0.853   3.558   0.579 -0.0436  3.2665 -0.5140
   29MOL   H22926605   1.094   3.593   0.400 -0.2094  0.6944 -1.5559
   29MOL   H23026606   0.949   3.696   0.392  1.6015 -0.3830 -0.5350
   29MOL   H23126607   0.806   3.496   0.356  0.8869 -0.6219  2.4809
   29MOL   H23226608   0.942   3.401   0.341 -0.2010  0.1766  2.0772
   29MOL   H23326609   0.727   3.566   7.835 -0.4574  1.8970  0.1488
   29MOL   H23426610   0.834   3.623   7.619 -0.6279  0.7688  0.7430
   29MOL   H23526611   1.225   3.588   7.798 -0.2065 -1.5645 -0.9142
   29MOL   H23626612   1.128   3.516   0.027 -1.9853 -0.7871  1.0404
   29MOL   O23726613   1.289   3.721   7.424  0.4279  0.3998  0.1382
   29MOL   C23826614   1.363   3.623   7.354 -0.5082 -0.1490  0.6456
   29MOL   C23926615   1.482   3.581   7.429 -0.2412  0.0526 -0.4769
   29MOL   C24026616   1.565   3.482   7.343 -0.0402 -0.6690 -0.1096
   29MOL   C24126617   1.680   3.431   7.434 -0.5080 -0.7021  0.7778
   29MOL   C24226618   1.787   3.354   7.368  0.3705  0.5518 -0.1534
   29MOL   C24326619   1.896   3.294   7.458 -0.6560 -0.3362  0.2746
   29MOL   C24426620   1.852   3.182   7.554  0.7409 -0.3325 -0.3763
   29MOL   C24526621   1.776   3.070   7.485 -0.9468  0.3252 -0.3790
   29MOL   C24626622   1.729   2.974   7.596  0.3686 -0.1957 -0.1391
   29MOL   C24726623   1.631   2.866   7.563 -0.1459 -0.4524 -0.3335
   29MOL   O24826624   1.502   2.919   7.542 -0.1513  0.6220  0.3988
   29MOL   C24926625   1.398   2.828   7.545 -0.0343 -0.7702 -0.0554
   29MOL   O25026626   1.413   2.707   7.537 -0.2596  0.1809 -0.8991
   29MOL   C25126627   1.263   2.887   7.573  0.1223  0.3848 -0.7548
   29MOL   C25226628   1.249   3.030   7.574  0.1969 -0.1447  0.6545
   29MOL   C25326629   1.126   3.089   7.597 -0.1450 -0.0391 -0.6761
   29MOL   C25426630   1.010   3.016   7.632 -0.1470 -0.2545  0.7521
   29MOL   C25526631   0.888   3.091   7.670 -0.9050  0.7122 -0.5235
   29MOL   O25626632   0.872   3.209   7.659  0.3492  0.0677  0.3005
   29MOL   O25726633   0.792   3.023   7.732  0.2575  0.5045 -0.1042
   29MOL   C25826634   1.024   2.875   7.624 -0.1845  0.5856 -0.8957
   29MOL   C25926635   1.145   2.812   7.599 -0.5745  0.0188 -0.4296
   29MOL   H26026636   1.298   3.536   7.344  0.1565 -0.7910  1.8695
   29MOL   H26126637   1.385   3.669   7.258 -1.4651 -0.6200  0.1911
   29MOL   H26226638   1.440   3.533   7.517  0.9567 -0.7106 -0.3029
   29MOL   H26326639   1.541   3.669   7.455 -1.2765  0.8107 -0.6482
   29MOL   H26426640   1.506   3.391   7.326  0.4573 -0.7913 -1.2266
   29MOL   H26526641   1.614   3.518   7.253 -1.1067 -0.0993 -0.4703
   29MOL   H26626642   1.639   3.368   7.512 -0.8570  0.6502  1.7099
   29MOL   H26726643   1.723   3.515   7.488  1.2894 -0.5688 -0.7981
   29MOL   H26826644   1.740   3.280   7.304  1.1518  0.0136 -0.1094
   29MOL   H26926645   1.845   3.411   7.294 -1.6919  0.8605 -1.5626
   29MOL   H27026646   1.972   3.253   7.392 -1.0887 -0.6663 -0.0170
   29MOL   H27126647   1.942   3.374   7.518  0.4193 -0.9219  0.2426
   29MOL   H27226648   1.938   3.147   7.610  0.0658 -0.7364  0.4206
   29MOL   H27326649   1.791   3.232   7.629  1.7452 -1.4793  1.2445
   29MOL   H27426650   1.688   3.103   7.429 -0.0987 -1.2157 -2.7286
   29MOL   H27526651   1.841   3.030   7.407 -1.1490 -1.2908  0.2657
   29MOL   H27626652   1.699   3.038   7.679 -4.0684  0.6709 -2.2681
   29MOL   H27726653   1.813   2.918   7.637 -0.2190 -0.2026  1.0633
   29MOL   H27826654   1.636   2.791   7.641  0.7916 -0.9552 -0.8747
   29MOL   H27926655   1.649   2.803   7.476 -0.2629 -1.1343  0.1317
   29MOL   H28026656   1.330   3.098   7.551  0.6029 -1.2527 -1.3863
   29MOL   H28126657   1.118   3.197   7.604  1.0748  0.1397 -1.7096
   29MOL   H28226658   0.935   2.827   7.662 -0.1095  1.8426  0.9439
   29MOL   H28326659   1.148   2.704   7.600  0.6064  0.0419  1.5403
   29MOL   O28426660   0.674   3.106   7.771 -0.4763 -0.3298  0.0847
   29MOL   C28526661   0.683   3.126   7.910  0.4064 -0.3175  0.2200
   29MOL   C28626662   0.647   2.998   0.007 -0.4376 -0.0437  0.1668
   29MOL   C28726663   0.504   2.968   7.955 -0.2890  0.1188 -0.9937
   29MOL   C28826664   0.456   2.827   0.007  0.3310  0.6711 -0.7795
   29MOL   C28926665   0.459   2.775   0.150 -0.2331  0.3268 -0.3853
   29MOL   C29026666   0.395   2.630   0.149  0.2508  0.5322 -0.4572
   29MOL   C29126667   0.363   2.571   0.290 -0.3761  0.0978 -0.1337
   29MOL   C29226668   0.347   2.423   0.290  0.0558  0.2647 -0.5591
   29MOL   C29326669   0.319   2.385   0.433 -0.4575 -0.0293 -0.9650
   29MOL   C29426670   0.279   2.239   0.448 -0.4261  0.8060  0.0903
   29MOL   O29526671   0.144   2.205   0.416  0.3657 -0.8931 -0.0041
   29MOL   C29626672   0.109   2.160   0.298  0.3042  0.5564 -0.1095
   29MOL   O29726673   0.181   2.148   0.206  0.1051 -0.1254 -0.5037
   29MOL   C29826674   7.949   2.106   0.296  0.1805  0.1289  0.2211
   29MOL   C29926675   7.861   2.133   0.398  0.4719 -0.1340 -0.8617
   29MOL   C30026676   7.737   2.073   0.407  0.2842 -0.5847  0.0442
   29MOL   C30126677   7.690   1.986   0.309 -0.0034  0.2979  0.9071
   29MOL   C30226678   7.561   1.921   0.323 -0.1532 -0.8710  0.6101
   29MOL   O30326679   7.487   1.938   0.423  0.3260  0.0245 -0.0838
   29MOL   O30426680   7.532   1.837   0.221 -0.1336  0.0814 -0.1029
   29MOL   C30526681   7.772   1.966   0.193  0.6714 -0.0193  0.1228
   29MOL   C30626682   7.902   2.021   0.188 -0.2953  0.1841 -0.5730
   29MOL   H30726683   0.785   3.159   7.929  1.1882 -1.4490 -1.7987
   29MOL   H30826684   0.608   3.200   7.940 -1.0583 -1.4833 -0.4504
   29MOL   H30926685   0.669   3.017   0.112  0.3426  0.3178 -0.0594
   29MOL   H31026686   0.718   2.927   7.943  0.8097  1.1186  0.2802
   29MOL   H31126687   0.450   3.044   0.033  0.4679  0.6869 -1.0209
   29MOL   H31226688   0.484   2.975   7.848  0.3179 -2.4690 -1.3059
   29MOL   H31326689   0.521   2.757   7.932 -0.2145  1.4102 -2.4386
   29MOL   H31426690   0.357   2.806   7.946  0.8194 -1.5053 -0.9123
   29MOL   H31526691   0.559   2.770   0.192  0.0005  2.0120 -0.7257
   29MOL   H31626692   0.393   2.831   0.217 -0.0754 -1.9834  1.7866
   29MOL   H31726693   0.307   2.642   0.086  0.5823 -0.6150 -1.1400
   29MOL   H31826694   0.465   2.578   0.084 -1.9024 -1.7806 -1.0141
   29MOL   H31926695   0.447   2.589   0.357  2.2060 -1.5686 -2.7514
   29MOL   H32026696   0.278   2.628   0.326 -1.9839 -1.5644 -1.2277
   29MOL   H32126697   0.261   2.395   0.228 -1.0146 -2.2536  1.9845
   29MOL   H32226698   0.427   2.364   0.244 -0.7538 -3.3465  2.4137
   29MOL   H32326699   0.248   2.451   0.483  0.1735 -1.3273  1.7638
   29MOL   H32426700   0.410   2.379   0.494 -1.1796  0.4083  0.1687
   29MOL   H32526701   0.272   2.210   0.553 -1.1091  0.8002  0.0421
   29MOL   H32626702   0.355   2.174   0.405 -1.6492 -0.6407  0.0543
   29MOL   H32726703   7.895   2.197   0.478  0.8585  0.4413 -1.4829
   29MOL   H32826704   7.687   2.095   0.500 -0.5072 -0.8942 -0.2986
   29MOL   H32926705   7.758   1.896   0.113  1.9400  1.5750 -1.5247
   29MOL   H33026706   7.974   1.995   0.111 -0.3391  0.2217 -0.6262
   29MOL   O33126707   7.430   1.734   0.245 -0.6985  0.2947 -0.2148
   29MOL   C33226708   7.311   1.776   0.189 -0.3730 -0.7503  0.0922
   29MOL   C33326709   7.195   1.708   0.255  0.3194  0.8887 -0.0864
   29MOL   C33426710   7.193   1.550   0.256  0.2432  0.4371 -0.4638
   29MOL   C33526711   7.252   1.486   0.385 -0.3770  0.5161 -0.0661
   29MOL   C33626712   7.283   1.337   0.383  0.4953  0.2875  0.0966
   29MOL   C33726713   7.401   1.301   0.295  0.5323  0.6801  0.1439
   29MOL   C33826714   7.528   1.393   0.315  0.3286 -0.1967 -0.6536
   29MOL   C33926715   7.662   1.329   0.286  0.5188  0.1774 -0.3416
   29MOL   C34026716   7.790   1.417   0.281 -0.9477  0.1629 -0.3467
   29MOL   C34126717   7.915   1.334   0.261  0.5248  0.2835  0.1541
   29MOL   O34226718   7.896   1.264   0.135 -0.3101  0.3773  0.3614
   29MOL   C34326719   7.958   1.138   0.115 -0.2328  0.1718 -0.3851
   29MOL   O34426720   0.039   1.078   0.207  0.2697  0.4962 -0.0569
   29MOL   C34526721   7.938   1.086   7.956  0.0708  0.2030 -0.3263
   29MOL   C34626722   7.871   1.165   7.856 -0.4321  0.7578  0.1050
   29MOL   C34726723   7.862   1.118   7.725 -0.4787  0.6696 -0.1204
   29MOL   C34826724   7.917   0.992   7.688 -0.8174 -0.2207  0.4251
   29MOL   C34926725   7.899   0.943   7.552 -0.0331 -0.3948 -0.5987
   29MOL   O35026726   7.882   1.008   7.450  0.1800 -0.5287 -0.0448
   29MOL   O35126727   7.915   0.807   7.539 -0.2671  0.1382 -0.1033
   29MOL   C35226728   7.976   0.909   7.791 -0.5691  0.4004  0.5589
   29MOL   C35326729   0.008   0.964   7.921 -0.2889  0.4555  0.2398
   29MOL   H35426730   7.293   1.882   0.204  1.7615 -0.4135  0.3761
   29MOL   H35526731   7.309   1.755   0.082 -1.5137 -0.9257  0.1375
   29MOL   H35626732   7.102   1.739   0.208  0.4306  1.6415  0.1897
   29MOL   H35726733   7.191   1.753   0.354  1.6791  0.9169 -0.0370
   29MOL   H35826734   7.091   1.510   0.248  0.1366  0.3236  1.1947
   29MOL   H35926735   7.259   1.520   0.175  1.7681  1.2208  0.4711
   29MOL   H36026736   7.178   1.511   0.461 -2.5362 -0.2509 -1.8768
   29MOL   H36126737   7.342   1.542   0.411 -0.4832 -0.5936  2.8606
   29MOL   H36226738   7.305   1.307   0.485 -2.7448 -1.2026  0.4163
   29MOL   H36326739   7.200   1.271   0.358  0.4301 -0.0118  1.0761
   29MOL   H36426740   7.419   1.196   0.319 -0.9713 -0.0471 -1.7587
   29MOL   H36526741   7.380   1.301   0.188  2.0862 -1.6112 -0.2053
   29MOL   H36626742   7.511   1.480   0.252 -0.0755  0.2873  0.1107
   29MOL   H36726743   7.539   1.431   0.417  1.1153 -2.6723  0.2304
   29MOL   H36826744   7.680   1.242   0.350 -0.7016  0.5579  0.5362
   29MOL   H36926745   7.648   1.291   0.185  1.3803  0.8833 -0.7389
   29MOL   H37026746   7.788   1.474   0.373 -2.3098 -1.1659  0.4734
   29MOL   H37126747   7.786   1.491   0.201  1.6525 -0.0113 -0.6657
   29MOL   H37226748   7.931   1.255   0.334 -0.0704 -0.2825 -0.3239
   29MOL   H37326749   0.032   1.387   0.250  0.4135  0.4286 -0.1292
   29MOL   H37426750   7.831   1.263   7.882  0.1282  1.3675 -1.2878
   29MOL   H37526751   7.809   1.177   7.653  1.8114 -0.4679 -2.8275
   29MOL   H37626752   0.017   0.805   7.771 -0.5225  0.2703  1.2793
   29MOL   H37726753   0.067   0.917   0.020  0.2071  0.3774 -0.1921
   29MOL   O37826754   7.913   0.763   7.399 -0.3159  0.4645  0.0972
   29MOL   C37926755   0.069   0.741   7.356  0.3163  0.1825  0.2103
   29MOL   C38026756   0.067   0.719   7.202 -0.8575 -0.4687 -0.5247
   29MOL   C38126757   7.951   0.600   7.157  0.1194 -0.3363  0.5095
   29MOL   C38226758   7.952   0.594   7.004 -0.1838  0.0539 -0.6686
   29MOL   C38326759   0.103   0.522   6.944  0.0880  0.5848 -0.7863
   29MOL   C38426760   0.110   0.535   6.791 -0.3057  0.2558  0.1163
   29MOL   C38526761   0.224   0.445   6.746  0.0661 -0.1752 -0.5740
   29MOL   C38626762   0.226   0.442   6.593  0.8752  0.3532  0.6369
   29MOL   C38726763   0.326   0.343   6.528  0.6613  0.2117  0.4385
   29MOL   C38826764   0.340   0.329   6.378  0.6123  0.0175 -0.5982
   29MOL   O38926765   0.378   0.456   6.324  0.1745  0.0951  0.1316
   29MOL   C39026766   0.438   0.464   6.204  0.2080  0.2346 -0.1063
   29MOL   O39126767   0.455   0.368   6.129  0.0611 -0.5931  0.1660
   29MOL   C39226768   0.475   0.608   6.166  0.2270 -0.3244  0.2550
   29MOL   C39326769   0.515   0.635   6.034  0.4800  0.1361 -0.1497
   29MOL   C39426770   0.551   0.766   5.997 -0.5687 -0.3520  0.4236
   29MOL   C39526771   0.559   0.870   6.093 -0.0721  0.2977 -0.2315
   29MOL   C39626772   0.597   1.010   6.060  0.1555  0.1870  0.5446
   29MOL   O39726773   0.548   1.107   6.125  0.1449 -0.2152 -0.1959
   29MOL   O39826774   0.689   1.022   5.962  0.6431 -0.2243  0.1017
   29MOL   C39926775   0.506   0.841   6.224  0.3083 -0.1412 -0.1471
   29MOL   C40026776   0.455   0.714   6.258 -0.0945 -0.1182  0.1785
   29MOL   H40126777   0.122   0.833   7.379  0.0274 -0.1869  2.4297
   29MOL   H40226778   0.117   0.663   7.415 -1.4259 -0.6028  0.6387
   29MOL   H40326779   0.171   0.716   7.168 -0.4138  0.7185  0.6818
   29MOL   H40426780   0.029   0.811   7.158 -0.1092 -0.6951 -1.6906
   29MOL   H40526781   0.007   0.508   7.205  0.7859  0.8661  2.4125
   29MOL   H40626782   7.858   0.638   7.198  0.2831 -1.2777  1.7942
   29MOL   H40726783   7.932   0.691   6.958  1.1215  1.3389  1.3569
   29MOL   H40826784   7.860   0.544   6.974 -0.5123 -0.4744  1.1505
   29MOL   H40926785   0.197   0.564   6.982 -0.2790 -0.7686  1.7140
   29MOL   H41026786   0.097   0.416   6.969  2.1698  0.5473 -0.2977
   29MOL   H41126787   0.020   0.497   6.743  0.1233 -0.8152  0.1450
   29MOL   H41226788   0.132   0.638   6.762  1.6608 -0.2849 -0.3502
   29MOL   H41326789   0.324   0.482   6.770 -0.2123  0.0177  0.3058
   29MOL   H41426790   0.220   0.342   6.782  2.9710 -0.0042  0.3678
   29MOL   H41526791   0.126   0.424   6.555  1.4883  0.2965 -0.9903
   29MOL   H41626792   0.245   0.547   6.570  2.6891  0.1423  1.0949
   29MOL   H41726793   0.293   0.245   6.564 -0.6857 -1.0543 -3.8347
   29MOL   H41826794   0.424   0.353   6.574  0.1373 -0.5580  1.7647
   29MOL   H41926795   0.245   0.290   6.344  0.8359 -2.2473  1.2098
   29MOL   H42026796   0.398   0.239   6.357  0.8940 -0.2106  1.0355
   29MOL   H42126797   0.515   0.553   5.963 -0.5063 -0.0413  0.0419
   29MOL   H42226798   0.583   0.774   5.895 -1.0868  0.1750  0.3066
   29MOL   H42326799   0.504   0.915   6.303 -3.4139  0.2879 -0.5155
   29MOL   H42426800   0.412   0.693   6.355  2.3732 -0.6695  1.1679
   29MOL   O42526801   0.729   1.166   5.927 -0.5363 -0.2756  0.4285
   29MOL   C42626802   0.858   1.188   5.980 -0.1200 -0.1257  0.6622
   29MOL   C42726803   0.882   1.333   6.011 -0.4316  0.3436  0.2376
   29MOL   C42826804   0.819   1.362   6.150  0.5361  0.0612 -0.2531
   29MOL   C42926805   0.840   1.505   6.208  0.5492  0.3587 -0.0118
   29MOL   C43026806   0.743   1.606   6.147  0.5614  0.5487 -0.1932
   29MOL   C43126807   0.767   1.743   6.200 -0.7829  0.1474  0.7741
   29MOL   C43226808   0.686   1.848   6.146  0.6269 -0.1924  0.2922
   29MOL   C43326809   0.698   1.854   5.996  0.0136  0.0030  0.5160
   29MOL   C43426810   0.601   1.960   5.931 -0.0384  0.6191  0.1629
   29MOL   C43526811   0.627   2.011   5.789 -0.2162  0.0976 -0.1163
   29MOL   O43626812   0.623   1.911   5.689 -0.1275  0.3057  0.3946
   29MOL   C43726813   0.736   1.857   5.644  0.7553  0.4989 -0.1049
   29MOL   O43826814   0.846   1.892   5.683 -0.3185 -0.0984 -0.5962
   29MOL   C43926815   0.714   1.748   5.543 -0.3807  0.3435  0.1968
   29MOL   C44026816   0.594   1.674   5.543  0.1445  0.5121  0.2519
   29MOL   C44126817   0.579   1.555   5.463 -1.1122 -1.2409 -0.2053
   29MOL   C44226818   0.685   1.513   5.380 -0.1510 -0.3139  0.0218
   29MOL   C44326819   0.663   1.402   5.288  0.0011 -0.2334  0.2733
   29MOL   O44426820   0.546   1.359   5.279  0.5398  0.1637 -0.1720
   29MOL   O44526821   0.774   1.347   5.233 -0.7230 -0.5774  0.6338
   29MOL   C44626822   0.802   1.597   5.365 -0.3652 -0.1216  0.6590
   29MOL   C44726823   0.815   1.713   5.451  0.3355  0.0211 -1.1332
   29MOL   H44826824   0.860   1.132   6.074 -2.1143  1.5810  1.7800
   29MOL   H44926825   0.928   1.153   5.905  0.9603 -0.6199  1.8923
   29MOL   H45026826   0.855   1.406   5.934 -1.7343  2.1101  2.3390
   29MOL   H45126827   0.990   1.343   6.025 -0.1222 -1.4559 -0.7148
   29MOL   H45226828   0.711   1.352   6.134  0.3888 -0.8339  1.2029
   29MOL   H45326829   0.837   1.282   6.222  1.1493  0.5649  0.1566
   29MOL   H45426830   0.946   1.532   6.207  1.0448 -1.5129  0.7949
   29MOL   H45526831   0.816   1.500   6.315  2.4457  0.3003  0.4207
   29MOL   H45626832   0.763   1.597   6.040  1.4112  0.9458 -0.0750
   29MOL   H45726833   0.639   1.578   6.159  0.6062 -0.1732 -1.4197
   29MOL   H45826834   0.767   1.731   6.308  2.7516 -0.4205  0.7734
   29MOL   H45926835   0.872   1.763   6.179 -0.9627  2.4680  1.8895
   29MOL   H46026836   0.583   1.828   6.176  0.1745  0.2288 -0.9452
   29MOL   H46126837   0.711   1.945   6.189  0.0351  0.4166 -0.7024
   29MOL   H46226838   0.800   1.886   5.973 -0.2578 -0.0055 -0.7411
   29MOL   H46326839   0.683   1.759   5.944  0.2871  0.8729 -1.1917
   29MOL   H46426840   0.594   2.053   5.988  0.5235  1.8106 -1.6416
   29MOL   H46526841   0.498   1.925   5.932 -0.0252  0.5822  0.2214
   29MOL   H46626842   0.721   2.065   5.798 -0.1423 -0.0565  0.0531
   29MOL   H46726843   0.559   2.089   5.756 -1.0560 -0.9010 -0.7527
   29MOL   H46826844   0.518   1.702   5.615  1.7684 -2.3594  3.2170
   29MOL   H46926845   0.497   1.486   5.476 -1.4495 -1.1539 -1.7528
   29MOL   H47026846   0.868   1.581   5.280 -1.9196  0.2554 -0.6473
   29MOL   H47126847   0.900   1.779   5.448 -0.8218  1.6825  0.9217
   29MOL   O47226848   0.748   1.230   5.137  0.2819  0.1658  0.0874
   29MOL   C47326849   0.715   1.282   5.009  1.1253 -0.0840 -0.5948
   29MOL   C47426850   0.666   1.173   4.912  0.8318 -0.1956 -0.1338
   29MOL   C47526851   0.665   1.222   4.769 -1.2364  0.2462  0.6286
   29MOL   C47626852   0.808   1.250   4.713 -0.2840 -0.4132  0.4936
   29MOL   C47726853   0.807   1.280   4.568  0.5706 -0.2063 -0.0820
   29MOL   C47826854   0.955   1.277   4.511  0.0999 -0.6791 -0.5995
   29MOL   C47926855   0.970   1.354   4.376  0.4413  0.0274 -0.3664
   29MOL   C48026856   1.115   1.359   4.336  0.3514 -0.4427 -0.1932
   29MOL   C48126857   1.139   1.428   4.206  0.7173  0.6173  0.4491
   29MOL   C48226858   1.272   1.396   4.149 -0.4994  0.0420  0.2512
   29MOL   O48326859   1.297   1.459   4.020 -0.7007  0.5619 -0.0747
   29MOL   C48426860   1.348   1.584   4.019  0.1641 -0.4419 -0.2551
   29MOL   O48526861   1.343   1.660   4.110  0.2938  0.4838  0.5956
   29MOL   C48626862   1.428   1.610   3.895 -0.5261 -0.1911 -0.0153
   29MOL   C48726863   1.447   1.512   3.793  0.0845 -0.4465 -0.1258
   29MOL   C48826864   1.530   1.537   3.678 -0.4694 -0.6048 -0.1888
   29MOL   C48926865   1.600   1.660   3.669  0.3569 -0.1047  0.7291
   29MOL   C49026866   1.678   1.697   3.547  0.3263 -0.2965 -0.2373
   29MOL   O49126867   1.724   1.808   3.526 -0.6900  0.2193 -0.5937
   29MOL   O49226868   1.691   1.594   3.453 -0.0667 -0.0358 -0.0928
   29MOL   C49326869   1.587   1.755   3.775  0.6908 -0.7088 -0.0112
   29MOL   C49426870   1.502   1.730   3.887 -0.3600  0.4924  0.0445
   29MOL   H49526871   0.649   1.368   5.011 -0.3590 -1.1084 -2.8601
   29MOL   H49626872   0.805   1.319   4.960  1.0923 -0.7766 -1.1942
   29MOL   H49726873   0.568   1.149   4.953 -0.4614  0.8252 -2.5188
   29MOL   H49826874   0.734   1.088   4.907 -1.2448 -1.8230 -1.7682
   29MOL   H49926875   0.617   1.146   4.708 -0.3777 -0.4164  0.7661
   29MOL   H50026876   0.610   1.316   4.763 -0.3228  0.8722  1.6833
   29MOL   H50126877   0.867   1.161   4.736 -1.9808 -0.4018  5.5002
   29MOL   H50226878   0.853   1.336   4.763  1.0169 -0.9155  0.2283
   29MOL   H50326879   0.742   1.220   4.505 -0.5720  0.6190  0.3092
   29MOL   H50426880   0.776   1.382   4.545  0.1148  0.0004  1.3799
   29MOL   H50526881   1.014   1.321   4.590 -1.7108  0.2495  0.2525
   29MOL   H50626882   0.994   1.176   4.499  0.7244 -0.3147 -1.7589
   29MOL   H50726883   0.918   1.296   4.300  1.0311  1.5770 -2.0007
   29MOL   H50826884   0.925   1.454   4.384  0.5595  0.0683 -0.2113
   29MOL   H50926885   1.178   1.410   4.408  0.2568  0.4756 -0.7446
   29MOL   H51026886   1.149   1.256   4.330 -1.3405 -1.0463  0.1925
   29MOL   H51126887   1.128   1.537   4.208  0.0431  0.5653 -0.3582
   29MOL   H51226888   1.068   1.383   4.137  0.3286 -0.6386  1.6547
   29MOL   H51326889   1.284   1.288   4.138  4.1640  0.5229 -0.3671
   29MOL   H51426890   1.346   1.408   4.229  0.7855  1.7848 -1.1602
   29MOL   H51526891   1.391   1.420   3.802 -1.9015  0.6554 -0.9271
   29MOL   H51626892   1.523   1.467   3.596 -1.0877  0.4211 -1.0279
   29MOL   H51726893   1.638   1.850   3.777 -0.4730 -0.0465 -0.6346
   29MOL   H51826894   1.491   1.801   3.967  0.4608  1.0227 -0.3080
   29MOL   O51926895   1.753   1.651   3.327  0.4253 -0.1169 -0.2231
   29MOL   C52026896   1.889   1.615   3.320  0.6400  0.5282 -1.0434
   29MOL   C52126897   1.945   1.657   3.186  0.3386  0.3053 -0.5193
   29MOL   C52226898   2.075   1.596   3.154 -0.6486  0.0372 -0.5002
   29MOL   C52326899   2.117   1.614   3.006  0.1534 -0.2650 -0.0839
   29MOL   C52426900   2.260   1.547   2.987  0.1006  0.0116 -0.1932
   29MOL   C52526901   2.372   1.635   3.054  0.0994 -0.9557  0.7495
   29MOL   C52626902   2.513   1.593   3.010 -0.9777 -0.4410  0.2562
   29MOL   C52726903   2.625   1.678   3.075  0.1955  0.5345 -0.5498
   29MOL   C52826904   2.764   1.645   3.011 -0.0103  1.0160 -0.3190
   29MOL   C52926905   2.771   1.651   2.861  0.1535  0.5113  0.2886
   29MOL   O53026906   2.901   1.681   2.816  0.1470  0.1157 -0.3362
   29MOL   C53126907   2.995   1.584   2.803  0.4613 -0.4300 -0.0289
   29MOL   O53226908   2.973   1.466   2.832  0.3331 -0.0611  0.1075
   29MOL   C53326909   3.122   1.637   2.745 -0.4152  0.1397  0.6914
   29MOL   C53426910   3.224   1.544   2.702  0.8461  0.2904 -0.2457
   29MOL   C53526911   3.342   1.598   2.647  0.3306 -0.9059  0.3565
   29MOL   C53626912   3.356   1.736   2.635  0.0443  0.3885 -0.0682
   29MOL   C53726913   3.477   1.797   2.575  0.4051 -0.8689  0.6866
   29MOL   O53826914   3.482   1.902   2.511  0.3414 -0.4498 -0.3739
   29MOL   O53926915   3.591   1.725   2.592  0.3289  0.0968  0.4685
   29MOL   C54026916   3.256   1.827   2.675 -0.1689  0.4388 -0.1351
   29MOL   C54126917   3.138   1.774   2.730 -0.2875 -0.6846  0.6135
   29MOL   H54226918   1.950   1.648   3.404  0.8227 -0.9083 -0.5970
   29MOL   H54326919   1.889   1.506   3.316 -1.8014  0.5312 -2.0053
   29MOL   H54426920   1.958   1.765   3.174  0.3546  0.4671  0.8023
   29MOL   H54526921   1.875   1.625   3.109  0.4026  0.2525 -0.5556
   29MOL   H54626922   2.149   1.647   3.217  0.7870 -0.7359 -1.5256
   29MOL   H54726923   2.070   1.490   3.176 -3.3947  0.0964 -0.7148
   29MOL   H54826924   2.124   1.715   2.966  1.7716  0.0284  0.9451
   29MOL   H54926925   2.038   1.578   2.939  0.6330  1.3797 -1.5609
   29MOL   H55026926   2.269   1.445   3.024  0.6579  0.3385  0.5755
   29MOL   H55126927   2.288   1.532   2.882 -0.1686 -0.6327 -0.1723
   29MOL   H55226928   2.363   1.740   3.027 -3.0467 -1.2673  0.4048
   29MOL   H55326929   2.355   1.635   3.162  0.3636 -1.3861  0.7925
   29MOL   H55426930   2.528   1.486   3.028 -3.6210 -0.7872  0.6490
   29MOL   H55526931   2.523   1.618   2.905  2.1162 -1.2095  0.3151
   29MOL   H55626932   2.610   1.785   3.063  2.0504  0.9175  0.4503
   29MOL   H55726933   2.630   1.660   3.182 -0.9674  0.9807 -0.4151
   29MOL   H55826934   2.786   1.545   3.048 -0.5551  1.0761  0.1805
   29MOL   H55926935   2.841   1.712   3.050  3.2544 -2.6202 -0.1699
   29MOL   H56026936   2.701   1.723   2.819  0.6687  1.2545  0.6908
   29MOL   H56126937   2.734   1.562   2.811  0.8335 -0.0690  0.8076
   29MOL   H56226938   3.215   1.439   2.725  1.9310  0.2234 -0.1209
   29MOL   H56326939   3.416   1.528   2.610  0.8878  0.2665 -0.7893
   29MOL   H56426940   3.270   1.933   2.659  1.4965  0.1654 -0.5542
   29MOL   H56526941   3.058   1.847   2.740  1.4524  1.1858  1.1506
   29MOL   O56626942   3.711   1.786   2.514  0.5747 -0.4676 -0.1025
   29MOL   C56726943   3.786   1.864   2.609 -0.4897  0.2737 -0.1124
   29MOL   C56826944   3.879   1.958   2.535 -1.3367  0.4348 -1.0928
   29MOL   C56926945   4.005   1.991   2.621 -0.1774 -0.0461 -0.8440
   29MOL   C57026946   4.097   2.090   2.550 -0.1061 -0.1677 -0.2568
   29MOL   C57126947   4.209   2.127   2.644  0.2664 -0.0615 -0.4302
   29MOL   C57226948   4.291   2.246   2.591 -0.1211 -0.3497 -0.2632
   29MOL   C57326949   4.391   2.293   2.705 -0.0579  0.1085  0.3828
   29MOL   C57426950   4.474   2.187   2.781  1.0760 -0.1822 -0.3837
   29MOL   C57526951   4.594   2.133   2.699  0.3004 -0.1086  0.4233
   29MOL   C57626952   4.673   2.016   2.766  0.5849 -0.2706 -0.1109
   29MOL   O57726953   4.591   1.899   2.777  0.1956  1.0254  0.1042
   29MOL   C57826954   4.623   1.810   2.875  0.7396  0.2627  0.6128
   29MOL   O57926955   4.724   1.821   2.948 -0.2626  0.0488 -0.2580
   29MOL   C58026956   4.519   1.705   2.885 -0.2512  0.3092 -0.3682
   29MOL   C58126957   4.554   1.567   2.906  0.0719  0.0652 -0.4908
   29MOL   C58226958   4.443   1.480   2.930 -0.2394  0.1440  0.5368
   29MOL   C58326959   4.313   1.520   2.933  0.1573 -0.0228 -0.8470
   29MOL   C58426960   4.208   1.422   2.967 -0.4000  0.5833 -0.0024
   29MOL   O58526961   4.096   1.461   2.998 -0.2549  0.3278 -0.7217
   29MOL   O58626962   4.247   1.288   2.972  0.3834 -0.4677  0.6064
   29MOL   C58726963   4.283   1.660   2.915  0.4541  0.6770 -0.2214
   29MOL   C58826964   4.383   1.751   2.882 -0.1209 -0.0781 -0.0723
   29MOL   H58926965   3.739   1.925   2.687 -0.6921  2.4187 -1.8837
   29MOL   H59026966   3.832   1.789   2.673 -1.4996 -1.1443 -1.0019
   29MOL   H59126967   3.816   2.046   2.522 -3.5471 -1.2875 -2.2966
   29MOL   H59226968   3.902   1.935   2.431  0.7896  1.3476 -0.8655
   29MOL   H59326969   3.976   2.018   2.722 -1.0237 -4.6782  0.2868
   29MOL   H59426970   4.056   1.896   2.637 -1.0649 -0.1275  1.7483
   29MOL   H59526971   4.047   2.181   2.516 -0.8292 -0.7775 -0.8446
   29MOL   H59626972   4.134   2.036   2.463  0.6681  0.2227 -0.1683
   29MOL   H59726973   4.177   2.158   2.744  1.5386  1.8855 -0.6084
   29MOL   H59826974   4.261   2.034   2.667 -0.0251 -0.6722 -2.1662
   29MOL   H59926975   4.351   2.206   2.508  0.5857  2.1147 -0.9897
   29MOL   H60026976   4.237   2.338   2.571  0.5285 -0.2966 -1.8635
   29MOL   H60126977   4.462   2.366   2.666  1.1211 -2.3645 -2.3013
   29MOL   H60226978   4.335   2.343   2.784 -2.2238  0.4919 -1.3536
   29MOL   H60326979   4.517   2.235   2.869  0.1812 -1.4282  0.7547
   29MOL   H60426980   4.408   2.115   2.830 -0.5457  2.0319  0.7473
   29MOL   H60526981   4.670   2.207   2.675  0.0749  0.2151  0.7046
   29MOL   H60626982   4.550   2.104   2.604  1.6995 -2.7056  0.5297
   29MOL   H60726983   4.698   2.058   2.863 -2.8642 -2.2004  1.7216
   29MOL   H60826984   4.772   1.991   2.727  0.5363  0.1161 -0.4825
   29MOL   H60926985   4.658   1.538   2.906  0.1250  0.0444  2.9485
   29MOL   H61026986   4.474   1.378   2.951 -1.1251 -0.4389 -0.9232
   29MOL   H61126987   4.180   1.691   2.928 -0.1748 -0.6428 -1.8663
   29MOL   H61226988   4.361   1.856   2.888  0.6894  0.2919 -2.7565
   29MOL   O61326989   4.141   1.199   3.022 -0.4694  0.1804  0.0609
   29MOL   C61426990   4.126   1.104   2.914 -0.1510  0.1979 -0.0468
   29MOL   C61526991   4.087   1.168   2.777 -0.6750 -0.2773 -0.7904
   29MOL   C61626992   4.020   1.062   2.684 -0.0160  0.7135  0.2685
   29MOL   C61726993   3.957   1.114   2.552  0.5159  0.2382  0.1001
   29MOL   C61826994   4.057   1.121   2.437  0.2468 -1.0994  0.6752
   29MOL   C61926995   4.005   1.196   2.316  0.2206  0.5298  0.0760
   29MOL   C62026996   3.949   1.088   2.226  0.1667 -0.7713  0.4473
   29MOL   C62126997   3.890   1.147   2.099 -0.0814  0.2165  0.0385
   29MOL   C62226998   3.755   1.211   2.116  0.1708 -0.4570 -0.1365
   29MOL   C62326999   3.711   1.307   2.009 -0.1129  0.5661  0.1164
   29MOL   O62427000   3.574   1.329   2.036  0.5161  0.4236  0.3969
   29MOL   C62527001   3.485   1.305   1.936  0.2063  0.0476  0.2893
   29MOL   O62627002   3.510   1.231   1.843  0.1536  0.0870 -0.0976
   29MOL   C62727003   3.351   1.372   1.954  0.5433  0.2915  0.6867
   29MOL   C62827004   3.315   1.440   2.075 -0.1007 -0.7633 -0.3926
   29MOL   C62927005   3.197   1.513   2.084  0.2862 -0.5068  0.3676
   29MOL   C63027006   3.107   1.518   1.970  0.3340 -0.1687 -1.0990
   29MOL   C63127007   2.972   1.600   1.967 -0.3013 -0.0026 -0.0629
   29MOL   O63227008   2.914   1.645   2.069  0.5987 -0.1243  0.0602
   29MOL   O63327009   2.916   1.622   1.845 -0.1388 -0.0048  0.0933
   29MOL   C63427010   3.137   1.441   1.856  0.1132 -0.6510 -0.0362
   29MOL   C63527011   3.261   1.370   1.850 -0.5632 -0.1474  0.7163
   29MOL   H63627012   4.208   1.032   2.906 -0.3849  0.0991 -1.7018
   29MOL   H63727013   4.042   1.043   2.946  1.8372 -2.5781  0.0949
   29MOL   H63827014   4.174   1.214   2.731 -1.9231  2.4358 -0.5198
   29MOL   H63927015   4.018   1.252   2.785 -0.7536 -0.3916 -0.2133
   29MOL   H64027016   4.083   0.978   2.653 -2.6126 -0.5911 -1.6865
   29MOL   H64127017   3.942   1.023   2.750  0.8729 -0.3024  0.7232
   29MOL   H64227018   3.913   1.213   2.567 -1.6670 -0.5641 -0.8575
   29MOL   H64327019   3.874   1.047   2.531 -0.0788  0.4348  1.7582
   29MOL   H64427020   4.151   1.162   2.475  1.0810 -2.2284 -0.1744
   29MOL   H64527021   4.078   1.019   2.407  2.5326 -0.2241 -0.7689
   29MOL   H64627022   3.926   1.260   2.355 -0.2114 -0.7901  1.3956
   29MOL   H64727023   4.079   1.260   2.268  2.1701 -1.0693  0.8484
   29MOL   H64827024   4.030   1.027   2.186 -1.1948 -2.4535  0.2029
   29MOL   H64927025   3.867   1.045   2.283 -1.3364  0.1538 -0.9563
   29MOL   H65027026   3.959   1.212   2.045  0.6348 -1.9615 -1.7347
   29MOL   H65127027   3.882   1.052   2.046 -0.3654 -1.5669  3.1852
   29MOL   H65227028   3.753   1.275   2.204  1.6213 -1.7737  0.8623
   29MOL   H65327029   3.684   1.129   2.120 -1.4462  0.8975 -0.1232
   29MOL   H65427030   3.727   1.259   1.912  0.7108  2.1739 -0.5691
   29MOL   H65527031   3.772   1.397   2.018  2.0947 -0.9461  0.6969
   29MOL   H65627032   3.384   1.454   2.157  0.6543 -0.9354 -0.9842
   29MOL   H65727033   3.172   1.575   2.169  2.8295 -0.0252  0.8124
   29MOL   H65827034   3.071   1.452   1.771 -0.0361  0.3539  0.2069
   29MOL   H65927035   3.276   1.329   1.751  1.0569  1.6956  0.1657
   29MOL   O66027036   2.801   1.698   1.843 -0.2870 -0.1766 -0.0344
   29MOL   C66127037   2.843   1.829   1.812 -0.5409  0.0543 -0.0759
   29MOL   C66227038   2.887   1.837   1.660  0.5775  0.2129 -0.4448
   29MOL   C66327039   2.769   1.834   1.556 -0.2714  0.6573 -0.9794
   29MOL   C66427040   2.838   1.855   1.419  0.0128 -0.3981 -0.5940
   29MOL   C66527041   2.742   1.847   1.292  0.4168  0.4240 -0.1448
   29MOL   C66627042   2.811   1.896   1.166  0.0609  0.1553  0.2187
   29MOL   C66727043   2.781   2.040   1.120 -0.3113  0.4360 -0.1422
   29MOL   C66827044   2.829   2.150   1.217 -0.4066  0.0258  0.2449
   29MOL   C66927045   2.983   2.158   1.219  0.1345  0.2543  0.1278
   29MOL   C67027046   3.041   2.277   1.288 -0.2761 -0.1154 -0.7713
   29MOL   O67127047   2.992   2.280   1.419 -0.2317  0.1789 -0.2771
   29MOL   C67227048   3.035   2.374   1.505  0.4834  0.5217  0.0298
   29MOL   O67327049   3.113   2.463   1.480 -0.0183 -0.0683 -0.2434
   29MOL   C67427050   2.978   2.350   1.645 -0.3605 -0.0516  0.3052
   29MOL   C67527051   3.027   2.431   1.747  0.4590 -0.4540  0.1435
   29MOL   C67627052   2.984   2.415   1.878  0.5547  0.6852 -0.0681
   29MOL   C67727053   2.880   2.327   1.916  0.3105  0.5551  0.2670
   29MOL   C67827054   2.818   2.324   2.052 -0.3157 -0.1594  0.2407
   29MOL   O67927055   2.847   2.400   2.145 -0.5743  0.0726  0.4612
   29MOL   O68027056   2.739   2.218   2.073 -0.3149  0.0779  1.0808
   29MOL   C68127057   2.825   2.247   1.810  0.8247 -0.3721 -1.1697
   29MOL   C68227058   2.885   2.250   1.682 -0.3190  0.3897 -0.2102
   29MOL   H68327059   2.765   1.904   1.824 -0.0258  0.5511  0.1380
   29MOL   H68427060   2.917   1.865   1.884 -0.5613  0.2833 -0.1700
   29MOL   H68527061   2.960   1.757   1.646 -0.9318 -1.2277 -0.2072
   29MOL   H68627062   2.937   1.933   1.649  0.7619  0.0649 -0.9126
   29MOL   H68727063   2.724   1.736   1.559  0.8235  0.1543 -0.6867
   29MOL   H68827064   2.690   1.905   1.580  0.2701  0.9911 -0.1520
   29MOL   H68927065   2.918   1.781   1.408  0.5509  0.4603 -2.6683
   29MOL   H69027066   2.885   1.953   1.429 -2.1857  0.6942 -0.7633
   29MOL   H69127067   2.726   1.741   1.277 -0.5666  0.6371 -0.5977
   29MOL   H69227068   2.649   1.899   1.315 -0.5228 -1.9889  1.7984
   29MOL   H69327069   2.919   1.877   1.174  0.1852 -0.5646 -2.8393
   29MOL   H69427070   2.775   1.825   1.092  1.5270  0.8609 -1.2135
   29MOL   H69527071   2.819   2.060   1.020  1.4450 -0.9336  0.2252
   29MOL   H69627072   2.677   2.054   1.088  0.5386  2.2534 -2.2818
   29MOL   H69727073   2.805   2.253   1.189  0.8084  0.4648  0.7891
   29MOL   H69827074   2.786   2.138   1.316 -1.1753 -0.0527 -0.0889
   29MOL   H69927075   3.017   2.167   1.116 -2.3479  1.4195 -0.6216
   29MOL   H70027076   3.027   2.068   1.262 -3.1444 -0.2303  2.6824
   29MOL   H70127077   3.038   2.365   1.223 -1.4419 -0.3285 -1.0214
   29MOL   H70227078   3.146   2.247   1.294  0.0164  1.2723  1.6949
   29MOL   H70327079   3.106   2.503   1.729 -1.3706  1.8940  1.2648
   29MOL   H70427080   3.030   2.475   1.955 -0.5543 -0.8696  1.8552
   29MOL   H70527081   2.761   2.166   1.841  1.6635  0.3059  2.7250
   29MOL   H70627082   2.858   2.179   1.605  0.2355  1.1905 -1.1518
   29MOL   O70727083   2.682   2.207   2.211 -0.0043  0.0145 -0.5673
   29MOL   C70827084   2.748   2.094   2.269 -0.1884  0.0824 -0.0581
   29MOL   C70927085   2.733   1.955   2.192  0.1020 -0.2450  0.0439
   29MOL   C71027086   2.583   1.901   2.194 -0.2400 -0.5601 -0.3939
   29MOL   C71127087   2.549   1.780   2.107  0.1537  0.4724  0.9328
   29MOL   C71227088   2.493   1.821   1.969 -0.2049  0.3764  0.2024
   29MOL   C71327089   2.458   1.705   1.873  0.1872  0.5238  0.3748
   29MOL   C71427090   2.416   1.758   1.731 -0.2830  0.7222 -0.5478
   29MOL   C71527091   2.362   1.647   1.638  0.4170  0.3294 -0.1720
   29MOL   C71627092   2.225   1.599   1.689  0.4940 -0.4983  0.4406
   29MOL   C71727093   2.144   1.528   1.580 -0.0514 -0.0932  0.1154
   29MOL   O71827094   2.020   1.505   1.637 -0.0184 -0.2667 -0.1248
   29MOL   C71927095   1.995   1.400   1.724  0.1984 -0.5886 -0.2998
   29MOL   O72027096   2.079   1.315   1.754  0.1934 -1.0740  0.4637
   29MOL   C72127097   1.866   1.416   1.802  0.3091  0.6095  0.1315
   29MOL   C72227098   1.748   1.467   1.745 -0.1875  0.2373 -0.4526
   29MOL   C72327099   1.626   1.472   1.810 -0.4846  0.3142  0.3679
   29MOL   C72427100   1.610   1.411   1.935  0.2694 -0.5463  0.1835
   29MOL   C72527101   1.479   1.410   2.006 -0.6112  0.4719  0.0537
   29MOL   O72627102   1.385   1.475   1.953  0.3477 -0.1569  0.0320
   29MOL   O72727103   1.472   1.337   2.119  0.1587  0.4064  0.6892
   29MOL   C72827104   1.725   1.351   1.988 -0.0439  0.9279  0.4693
   29MOL   C72927105   1.854   1.365   1.928 -0.1550  1.4172  0.3891
   29MOL   H73027106   2.855   2.114   2.272 -0.4343  1.3431  0.3109
   29MOL   H73127107   2.698   2.083   2.366 -1.8988  0.0586 -0.9223
   29MOL   H73227108   2.802   1.882   2.234  1.2366  0.9016  0.1925
   29MOL   H73327109   2.774   1.972   2.093  0.8598  1.4343  0.6357
   29MOL   H73427110   2.555   1.876   2.296  0.2162  0.6776  0.0517
   29MOL   H73527111   2.527   1.991   2.167 -0.7624 -0.2680  1.6328
   29MOL   H73627112   2.474   1.713   2.151 -2.8895  2.7322 -0.6418
   29MOL   H73727113   2.645   1.729   2.104 -0.6909 -1.0905 -0.2511
   29MOL   H73827114   2.397   1.872   1.978 -0.5519 -0.1282 -0.6402
   29MOL   H73927115   2.573   1.887   1.938  0.2267  0.7859  2.0849
   29MOL   H74027116   2.543   1.640   1.850  0.1001  1.0371 -1.5395
   29MOL   H74127117   2.383   1.642   1.921 -0.1855  0.1076 -0.7157
   29MOL   H74227118   2.351   1.844   1.749  0.5619  1.2807 -0.1590
   29MOL   H74327119   2.508   1.794   1.687  0.8868  0.0345  1.2601
   29MOL   H74427120   2.347   1.692   1.540 -3.1037  1.8350  0.9727
   29MOL   H74527121   2.432   1.564   1.630 -0.8169 -0.5681 -1.7538
   29MOL   H74627122   2.169   1.687   1.721  0.8109 -0.2996  0.4567
   29MOL   H74727123   2.238   1.536   1.777  0.8301 -1.3977 -0.2520
   29MOL   H74827124   2.195   1.443   1.533  0.9066 -0.7711  2.3445
   29MOL   H74927125   2.139   1.595   1.494  0.7076  1.0966  1.0042
   29MOL   H75027126   1.755   1.513   1.648  3.1010 -0.2728 -0.5054
   29MOL   H75127127   1.544   1.526   1.764 -2.5229 -1.0284  2.2946
   29MOL   H75227128   1.721   1.314   2.090  1.6309 -0.7210 -0.0265
   29MOL   H75327129   1.932   1.317   1.987 -1.0861  0.9778  1.2726
   29MOL   O75427130   1.347   1.363   2.193 -0.3180  0.0728 -0.0074
   29MOL   C75527131   1.268   1.246   2.179  0.2617  0.0187 -1.2837
   29MOL   C75627132   1.171   1.234   2.295  0.5257 -0.2529  0.2342
   29MOL   C75727133   1.171   1.100   2.372  0.4672  0.0763 -0.5548
   29MOL   C75827134   1.046   1.010   2.347 -0.0558  0.2095 -0.3327
   29MOL   C75927135   0.908   1.067   2.392 -0.7714  0.4840  0.9664
   29MOL   C76027136   0.788   0.972   2.364  0.2706 -0.8881 -0.0414
   29MOL   C76127137   0.786   0.834   2.443  0.1912  0.1652 -0.0406
   29MOL   C76227138   0.645   0.765   2.457  0.2933  0.1381 -0.8474
   29MOL   C76327139   0.657   0.647   2.548  0.7454  1.2063 -0.2615
   29MOL   C76427140   0.532   0.551   2.549  0.3653 -0.0478 -0.1946
   29MOL   O76527141   0.576   0.433   2.611  0.0596 -0.2259  0.6284
   29MOL   C76627142   0.474   0.350   2.668 -0.6434 -0.2472  0.5488
   29MOL   O76727143   0.352   0.370   2.659 -0.0762 -0.5416  0.2031
   29MOL   C76827144   0.535   0.235   2.749  0.3809  0.0228  0.6098
   29MOL   C76927145   0.674   0.227   2.783 -0.0717 -0.9531 -0.1589
   29MOL   C77027146   0.721   0.128   2.869 -0.3196 -0.7083 -0.5501
   29MOL   C77127147   0.641   0.033   2.925 -0.1195  0.1613 -0.0339
   29MOL   C77227148   0.695   7.902   3.016 -0.1301  0.5130  0.2309
   29MOL   O77327149   0.818   7.900   3.042 -0.2532 -0.1906  0.0271
   29MOL   O77427150   0.609   7.805   3.050  0.5662  0.3849 -0.0311
   29MOL   C77527151   0.508   0.033   2.880  0.0503  0.1904 -0.1920
   29MOL   C77627152   0.457   0.133   2.796 -0.0250 -0.0914 -0.5793
   29MOL   H77727153   1.217   1.253   2.083  1.3583  0.1413 -1.8752
   29MOL   H77827154   1.317   1.149   2.171  0.1302 -0.0663 -1.0720
   29MOL   H77927155   1.069   1.238   2.256  0.8602  0.9401 -0.5556
   29MOL   H78027156   1.181   1.310   2.372  3.1128  1.7973 -1.9994
   29MOL   H78127157   1.260   1.042   2.350  0.5590  0.2912 -0.7462
   29MOL   H78227158   1.175   1.121   2.479  2.8797 -0.7628 -0.4676
   29MOL   H78327159   1.071   0.916   2.397  0.3498  0.3165 -0.3312
   29MOL   H78427160   1.043   0.996   2.239  2.8339 -0.4900 -0.3705
   29MOL   H78527161   0.905   1.082   2.500 -0.6585  0.1396  1.0169
   29MOL   H78627162   0.892   1.171   2.363  1.0326  0.6166  0.4071
   29MOL   H78727163   0.690   1.017   2.381  0.5248 -0.0406 -0.7886
   29MOL   H78827164   0.785   0.942   2.259 -0.4177  0.4246 -0.4068
   29MOL   H78927165   0.861   0.772   2.394  2.0656  1.3275  1.3266
   29MOL   H79027166   0.817   0.856   2.545 -0.4500  0.0339  0.1850
   29MOL   H79127167   0.575   0.837   2.498  1.1284 -0.0078  0.8655
   29MOL   H79227168   0.601   0.738   2.361 -1.8787  0.3906  0.0582
   29MOL   H79327169   0.657   0.666   2.656  2.1676 -0.2894  0.0268
   29MOL   H79427170   0.753   0.602   2.523  0.3905 -0.1103  0.6970
   29MOL   H79527171   0.510   0.537   2.444  2.6471 -2.1110 -0.4428
   29MOL   H79627172   0.440   0.586   2.596 -0.6571 -1.8388 -0.8243
   29MOL   H79727173   0.735   0.306   2.743 -1.6467  0.6512  0.5454
   29MOL   H79827174   0.825   0.139   2.897 -0.2704  0.7290 -1.2835
   29MOL   H79927175   0.441   7.935   2.918  1.0706 -0.4400  0.3500
   29MOL   H80027176   0.351   0.139   2.776 -0.2052 -2.0557 -0.2771
   29MOL   O80127177   0.673   7.672   3.097  0.1826 -0.2811 -0.6058
   29MOL   C80227178   0.669   7.580   2.986 -0.0797  0.3385  0.1161
   29MOL   C80327179   0.802   7.503   2.993 -0.4343 -1.1191  0.4287
   29MOL   C80427180   0.917   7.594   2.941  0.2961 -0.3673 -0.8937
   29MOL   C80527181   1.058   7.550   2.955 -0.5085  0.4749 -0.6312
   29MOL   C80627182   1.136   7.612   3.072  0.0690  0.0712  1.2102
   29MOL   C80727183   1.077   7.545   3.196  0.2490  0.1143  0.5872
   29MOL   C80827184   1.165   7.557   3.321 -0.0103 -0.3568  0.7173
   29MOL   C80927185   1.138   7.466   3.438  0.3843  0.8053  0.2456
   29MOL   C81027186   1.205   7.504   3.574  0.4336 -0.5064  0.8585
   29MOL   C81127187   1.156   7.405   3.675  0.2547  0.4079  0.6320
   29MOL   O81227188   1.245   7.392   3.782  0.1514  0.2673 -0.1726
   29MOL   C81327189   1.244   7.297   3.876  0.1389 -0.0593  0.0862
   29MOL   O81427190   1.161   7.202   3.882 -0.1569 -0.3798  0.3092
   29MOL   C81527191   1.359   7.313   3.963 -0.0687  0.6056 -0.3213
   29MOL   C81627192   1.423   7.436   3.988 -0.2378  0.8682  0.0794
   29MOL   C81727193   1.536   7.441   4.076  0.3630  0.4379  0.4229
   29MOL   C81827194   1.575   7.332   4.154 -1.2766  0.4070  0.2200
   29MOL   C81927195   1.672   7.335   4.269  0.2588  0.3286 -0.3233
   29MOL   O82027196   1.688   7.241   4.346  0.1620 -0.1041  0.0553
   29MOL   O82127197   1.725   7.459   4.298 -0.0745 -0.6841  0.2388
   29MOL   C82227198   1.520   7.211   4.122 -0.7405  1.1382  0.3333
   29MOL   C82327199   1.417   7.200   4.024 -0.0381 -0.3341 -0.3393
   29MOL   H82427200   0.601   7.503   3.022 -1.8292  0.6680 -2.3648
   29MOL   H82527201   0.639   7.609   2.886 -1.2907  0.5801  0.5365
   29MOL   H82627202   0.791   7.414   2.930  1.9585 -0.5943 -0.7897
   29MOL   H82727203   0.829   7.463   3.091  0.8323 -1.8029 -0.1681
   29MOL   H82827204   0.893   7.598   2.835  0.4497 -1.5115 -0.9841
   29MOL   H82927205   0.894   7.686   2.994 -0.1755 -1.4830  0.8930
   29MOL   H83027206   1.116   7.591   2.872  0.6383 -1.1943 -0.6780
   29MOL   H83127207   1.064   7.442   2.956 -0.5661  0.4453 -2.2170
   29MOL   H83227208   1.244   7.596   3.076  0.6462  2.1712 -2.9144
   29MOL   H83327209   1.129   7.721   3.076  0.7523  0.2381 -1.2841
   29MOL   H83427210   0.979   7.589   3.214 -0.2553 -0.7789  0.0620
   29MOL   H83527211   1.065   7.438   3.177  0.1374  0.5624 -2.0726
   29MOL   H83627212   1.268   7.555   3.286 -0.1685 -0.8512  0.2794
   29MOL   H83727213   1.155   7.658   3.362 -0.2991  0.3950 -1.1618
   29MOL   H83827214   1.034   7.444   3.460  0.0823  1.4086 -0.5688
   29MOL   H83927215   1.174   7.369   3.402  1.4436  1.1080  0.4601
   29MOL   H84027216   1.177   7.607   3.596 -0.7464 -0.6848  0.2673
   29MOL   H84127217   1.313   7.498   3.564  0.4982 -0.2010  1.4168
   29MOL   H84227218   1.146   7.305   3.633 -0.3897  1.4363 -1.7675
   29MOL   H84327219   1.053   7.427   3.706  0.0173  1.0202 -0.5769
   29MOL   H84427220   1.385   7.525   3.940 -0.8550  1.3055  1.3615
   29MOL   H84527221   1.588   7.532   4.099  0.5505  0.9753 -1.9662
   29MOL   H84627222   1.551   7.122   4.175  2.4212  2.5876  1.0860
   29MOL   H84727223   1.374   7.102   4.008 -1.4042  0.3888 -1.2822
   29MOL   O84827224   1.792   7.470   4.430 -0.1307  0.3381 -0.3763
   29MOL   C84927225   1.930   7.444   4.413  0.9336 -0.7060  0.3337
   29MOL   C85027226   1.991   7.434   4.551 -0.6344 -0.2552  0.2777
   29MOL   C85127227   2.045   7.566   4.621 -0.0417 -0.4317  0.2835
   29MOL   C85227228   2.096   7.529   4.761  0.4254 -0.2952 -0.0967
   29MOL   C85327229   2.201   7.637   4.813 -0.8947  0.3479  0.3503
   29MOL   C85427230   2.215   7.630   4.963  0.1764  0.1801 -0.8820
   29MOL   C85527231   2.322   7.722   5.033  0.2799  0.1197  0.9928
   29MOL   C85627232   2.325   7.694   5.185 -0.3245  0.3085 -0.2299
   29MOL   C85727233   2.425   7.783   5.265  0.0193  0.7224 -0.6705
   29MOL   C85827234   2.366   7.909   5.327 -0.0416 -0.1660 -0.2747
   29MOL   O85927235   2.341   0.027   5.221  0.0422 -0.4373 -0.4525
   29MOL   C86027236   2.274   0.140   5.259  0.0633 -0.5413 -0.0804
   29MOL   O86127237   2.256   0.184   5.369 -0.0804 -0.2663  0.1268
   29MOL   C86227238   2.233   0.213   5.136 -0.0947  0.4688 -0.4836
   29MOL   C86327239   2.261   0.167   5.002  0.7120 -0.0513 -0.2397
   29MOL   C86427240   2.231   0.245   4.893 -0.0435  0.4639 -0.0192
   29MOL   C86527241   2.154   0.363   4.909 -1.0057 -1.1365  0.5904
   29MOL   C86627242   2.092   0.425   4.794 -0.8227  0.5240 -0.3796
   29MOL   O86727243   2.076   0.363   4.688  0.5433  0.8116 -0.6148
   29MOL   O86827244   2.066   0.554   4.819 -0.4300  1.2093  0.6019
   29MOL   C86927245   2.148   0.420   5.035 -0.0157 -0.3038 -0.2492
   29MOL   C87027246   2.177   0.344   5.150 -0.0619  0.0164  0.7518
   29MOL   H87127247   1.934   7.344   4.372  0.8463 -0.4910 -0.1972
   29MOL   H87227248   1.978   7.522   4.354 -0.0241  0.8916  1.6099
   29MOL   H87327249   2.084   7.380   4.529  0.8712  1.9855  0.9705
   29MOL   H87427250   1.931   7.372   4.617  0.8044 -2.1317 -0.1457
   29MOL   H87527251   2.123   7.615   4.564 -0.7223  0.5825  0.2052
   29MOL   H87627252   1.961   7.635   4.634  0.0168 -0.6188  1.7842
   29MOL   H87727253   2.141   7.429   4.757 -0.6232 -0.8891  2.2064
   29MOL   H87827254   2.012   7.531   4.830 -0.4505 -2.0818 -1.0645
   29MOL   H87927255   2.301   7.614   4.776 -0.4372 -0.5760  2.1309
   29MOL   H88027256   2.164   7.735   4.784  1.2716  0.8605 -0.8095
   29MOL   H88127257   2.118   7.668   4.995 -0.2388 -0.1875 -1.7083
   29MOL   H88227258   2.216   7.526   4.996 -2.6187  0.5461  0.5103
   29MOL   H88327259   2.423   7.701   4.999  0.4993  0.4545  1.4368
   29MOL   H88427260   2.299   7.826   5.009 -0.0862 -0.2341 -0.2175
   29MOL   H88527261   2.226   7.697   5.230 -0.8772  3.4132 -1.4980
   29MOL   H88627262   2.354   7.590   5.198  1.1904  0.8851  1.1417
   29MOL   H88727263   2.492   7.811   5.183 -0.4114  2.6016 -0.4004
   29MOL   H88827264   2.482   7.726   5.339  2.0250  2.8928 -0.4925
   29MOL   H88927265   2.443   7.952   5.390 -0.8628 -1.6627  1.7797
   29MOL   H89027266   2.281   7.878   5.388  0.0227  0.0388 -0.0837
   29MOL   H89127267   2.298   0.067   4.984 -1.0823 -0.3070 -2.6708
   29MOL   H89227268   2.244   0.200   4.796  1.2959 -1.4231  1.0103
   29MOL   H89327269   2.098   0.515   5.053  4.0258  1.8481  0.0937
   29MOL   H89427270   2.167   0.380   5.251  1.5165  4.0694 -0.4238
   29MOL   O89527271   2.042   0.638   4.698 -0.0364  0.2482  0.2025
   29MOL   C89627272   1.906   0.629   4.663  0.2727  0.2390  0.2863
   29MOL   C89727273   1.875   0.726   4.547  0.3880 -0.0001  0.4521
   29MOL   C89827274   1.725   0.729   4.521  0.3870  0.3615 -0.4799
   29MOL   C89927275   1.687   0.788   4.384 -0.7056 -0.4374  0.4679
   29MOL   C90027276   1.721   0.937   4.366  0.8936  0.8200 -0.0042
   29MOL   C90127277   1.678   1.001   4.238 -0.1714 -0.4751 -0.2521
   29MOL   C90227278   1.730   1.144   4.222  0.3948 -0.1488  0.0498
   29MOL   C90327279   1.885   1.163   4.198  0.1983 -0.0751 -0.5590
   29MOL   C90427280   1.950   1.098   4.074  0.4996  0.4213 -0.0911
   29MOL   C90527281   2.090   1.133   4.050 -0.6809  0.3491 -0.2962
   29MOL   O90627282   2.097   1.271   4.010  0.3491 -0.0299 -0.0875
   29MOL   C90727283   2.149   1.362   4.106  0.0608  0.3971  0.2861
   29MOL   O90827284   2.237   1.337   4.188 -0.2891 -0.1994 -0.9464
   29MOL   C90927285   2.087   1.497   4.091  0.0421  0.5997  0.2370
   29MOL   C91027286   2.143   1.608   4.151  0.0399 -0.0486  0.1875
   29MOL   C91127287   2.082   1.738   4.136  0.4021  0.8983 -0.2405
   29MOL   C91227288   1.965   1.760   4.056 -0.4108 -0.4331 -0.5806
   29MOL   C91327289   1.893   1.889   4.047 -0.2370 -0.1883  0.3831
   29MOL   O91427290   1.809   1.908   3.961  0.4356  0.0307  0.5181
   29MOL   O91527291   1.930   1.975   4.149  0.0171 -0.2865 -0.1669
   29MOL   C91627292   1.911   1.644   3.993 -0.0543  0.6693  0.4162
   29MOL   C91727293   1.962   1.513   4.018 -0.5575  0.4290 -0.2015
   29MOL   H91827294   1.883   0.527   4.635  0.3288 -0.0838  1.3698
   29MOL   H91927295   1.841   0.648   4.749 -0.1780  0.3614 -0.0849
   29MOL   H92027296   1.927   0.675   4.466  0.3693  2.1270 -0.9610
   29MOL   H92127297   1.916   0.827   4.550  2.7956 -0.9568  0.7728
   29MOL   H92227298   1.694   0.625   4.527  0.7555  0.2045 -1.2298
   29MOL   H92327299   1.673   0.779   4.603  0.2167  0.2668 -0.5298
   29MOL   H92427300   1.579   0.771   4.376 -0.2251 -3.1766 -0.8418
   29MOL   H92527301   1.740   0.732   4.306 -0.5320 -2.2138  1.8385
   29MOL   H92627302   1.697   0.998   4.453  1.1114  0.3837  0.3657
   29MOL   H92727303   1.830   0.941   4.360  0.8156  0.4710 -1.9000
   29MOL   H92827304   1.709   0.938   4.155  1.3491  0.8395 -0.7246
   29MOL   H92927305   1.570   1.004   4.245 -0.1502 -0.2553 -0.0068
   29MOL   H93027306   1.675   1.194   4.144 -1.1643 -1.4195  0.3081
   29MOL   H93127307   1.706   1.185   4.320  3.3394  1.1846  0.2861
   29MOL   H93227308   1.909   1.268   4.208 -2.4422  0.4752  0.4917
   29MOL   H93327309   1.937   1.129   4.287 -0.8407 -0.7696 -0.2013
   29MOL   H93427310   1.900   1.117   3.979  3.1506  1.6026 -1.2677
   29MOL   H93527311   1.950   0.989   4.087 -1.1654  0.2377 -1.4714
   29MOL   H93627312   2.132   1.079   3.966  1.1693 -1.0846  1.5126
   29MOL   H93727313   2.146   1.122   4.143  0.4417  0.2733 -0.9848
   29MOL   H93827314   2.233   1.601   4.210  0.2327 -1.2461 -0.2279
   29MOL   H93927315   2.129   1.824   4.182  0.2543  0.2576  1.1155
   29MOL   H94027316   1.817   1.649   3.940  0.3869 -1.5126 -0.5971
   29MOL   H94127317   1.917   1.426   3.973  0.5363 -0.3574  0.2200
   29MOL   H94227318   1.868   2.046   4.139  0.1989 -0.4440 -2.8318
   30MOL     O127319   4.843   4.363   1.549  0.2876 -0.2296  0.0844
   30MOL     C227320   4.907   4.487   1.539 -0.3641 -0.3200 -0.3447
   30MOL     C327321   4.985   4.500   1.666  1.3398 -0.1960 -0.2139
   30MOL     C427322   5.102   4.397   1.667 -0.0600 -0.2319 -0.0741
   30MOL     C527323   5.198   4.414   1.782  0.5825  0.4715  0.8042
   30MOL     C627324   5.254   4.552   1.800  0.1040 -0.4511  0.6173
   30MOL     C727325   5.344   4.556   1.922 -0.1904  0.3921 -0.3333
   30MOL     C827326   5.409   4.696   1.948  0.3059 -0.5052  0.6205
   30MOL     C927327   5.449   4.718   2.096  0.0552  0.5259  0.0520
   30MOL    C1027328   5.498   4.864   2.125  0.4304  0.1289  0.4987
   30MOL    C1127329   5.524   4.885   2.278 -0.5462 -0.5764 -0.3366
   30MOL    O1227330   5.566   5.018   2.289  0.3039  0.4551  0.0613
   30MOL    C1327331   5.553   5.082   2.407  0.1817  0.2138 -0.3035
   30MOL    O1427332   5.531   5.027   2.515 -0.8180 -0.4407  0.2906
   30MOL    C1527333   5.578   5.234   2.388 -0.8130 -0.0904  0.0490
   30MOL    C1627334   5.589   5.315   2.502 -0.2518 -0.9460 -0.2506
   30MOL    C1727335   5.609   5.459   2.485  0.1244 -0.3275  0.3976
   30MOL    C1827336   5.630   5.511   2.356 -0.1554 -0.0866 -0.3405
   30MOL    C1927337   5.659   5.654   2.330 -0.0840  0.4889 -0.7882
   30MOL    O2027338   5.619   5.714   2.232 -1.1764  0.0398  0.0990
   30MOL    O2127339   5.726   5.714   2.431  0.1579 -0.0923 -0.0871
   30MOL    C2227340   5.608   5.427   2.246  0.5381 -0.1729  0.1507
   30MOL    C2327341   5.578   5.293   2.258  0.1373  0.0194  0.0160
   30MOL    H2427342   4.971   4.492   1.451 -1.2931 -0.8541 -1.0622
   30MOL    H2527343   4.829   4.563   1.534 -0.7931 -0.7321  0.0056
   30MOL    H2627344   4.924   4.492   1.756 -2.3225  0.4623 -2.5225
   30MOL    H2727345   5.016   4.605   1.665  1.8326 -0.3357 -3.2721
   30MOL    H2827346   5.071   4.293   1.661 -1.3047 -0.0626  2.6730
   30MOL    H2927347   5.170   4.420   1.585  0.7072 -1.7680  0.1168
   30MOL    H3027348   5.281   4.343   1.771 -1.2441 -1.4536 -1.0368
   30MOL    H3127349   5.147   4.402   1.878 -0.5972  1.8519  0.3598
   30MOL    H3227350   5.311   4.582   1.712 -0.9385  0.6951  0.3227
   30MOL    H3327351   5.176   4.628   1.805  0.8399  0.3310  0.3244
   30MOL    H3427352   5.290   4.527   2.012  0.7865  1.2948  0.5661
   30MOL    H3527353   5.422   4.481   1.910  0.0363  0.5621  0.0619
   30MOL    H3627354   5.498   4.713   1.889 -1.2815  0.2601 -1.6369
   30MOL    H3727355   5.332   4.770   1.927  1.6531  1.0521  1.0724
   30MOL    H3827356   5.363   4.703   2.162 -1.8341 -2.5121 -2.8980
   30MOL    H3927357   5.526   4.644   2.114 -1.0765 -0.3040  1.6291
   30MOL    H4027358   5.413   4.928   2.102 -0.3520 -1.4583 -1.1723
   30MOL    H4127359   5.581   4.878   2.056 -0.0745 -1.6547 -0.5118
   30MOL    H4227360   5.594   4.812   2.318 -1.5950  0.0119  2.7776
   30MOL    H4327361   5.431   4.867   2.332  0.0114  0.6133  1.0565
   30MOL    H4427362   5.598   5.271   2.600  0.4442 -0.1755  0.0351
   30MOL    H4527363   5.612   5.518   2.575  0.5530 -2.2016  1.6527
   30MOL    H4627364   5.608   5.466   2.146 -1.2064 -1.0618 -0.1987
   30MOL    H4727365   5.569   5.224   2.176  2.3709  0.1683 -0.4027
   30MOL    H4827366   4.899   4.289   1.567  0.1988 -0.4579 -0.5863
   30MOL    O4927367   5.718   5.868   2.425 -0.3399 -0.4295 -0.6556
   30MOL    C5027368   5.830   5.925   2.370  0.3930 -0.3901  0.3013
   30MOL    C5127369   5.809   6.074   2.356 -0.0736 -0.7313  0.2037
   30MOL    C5227370   5.937   6.158   2.313  0.4349  0.5934 -0.3350
   30MOL    C5327371   5.904   6.312   2.315 -0.2790  0.1707 -0.0953
   30MOL    C5427372   6.021   6.404   2.274  0.6476  0.2840 -0.4665
   30MOL    C5527373   5.997   6.555   2.281  0.1334 -0.0414 -0.1341
   30MOL    C5627374   5.967   6.621   2.416 -0.4029  0.0595 -0.1755
   30MOL    C5727375   6.077   6.592   2.522  1.0269 -0.5191 -0.1893
   30MOL    C5827376   6.224   6.623   2.486 -0.2290 -0.0882  0.2229
   30MOL    C5927377   6.278   6.759   2.532 -0.4672 -0.5690 -0.1010
   30MOL    O6027378   6.415   6.749   2.526 -0.9643  0.0398 -0.1980
   30MOL    C6127379   6.489   6.856   2.501  0.0935  0.3138 -0.1522
   30MOL    O6227380   6.440   6.967   2.496  0.0430 -0.2712 -0.3127
   30MOL    C6327381   6.633   6.823   2.478 -0.9371  0.0712  0.2941
   30MOL    C6427382   6.719   6.934   2.470 -0.4551 -0.2486  0.7116
   30MOL    C6527383   6.856   6.925   2.435  0.1710 -0.0044  0.1876
   30MOL    C6627384   6.908   6.795   2.407  0.2993  0.6157 -0.0704
   30MOL    C6727385   7.050   6.777   2.374 -0.3479 -0.1284 -0.0703
   30MOL    O6827386   7.105   6.855   2.294  0.8937  0.0459  0.1361
   30MOL    O6927387   7.110   6.663   2.422 -0.4203 -0.1089 -0.0263
   30MOL    C7027388   6.823   6.682   2.421  0.2304  0.6568  0.3987
   30MOL    C7127389   6.683   6.694   2.452 -0.6983  0.6506 -0.6698
   30MOL    H7227390   5.922   5.900   2.423 -0.2924 -2.0948  0.7176
   30MOL    H7327391   5.842   5.885   2.270 -1.3927  0.7287 -0.3838
   30MOL    H7427392   5.777   6.118   2.450  3.7726  0.9740  0.8054
   30MOL    H7527393   5.740   6.102   2.276 -0.2125  1.7783  1.1823
   30MOL    H7627394   6.019   6.137   2.381  0.1675 -0.1244 -0.2365
   30MOL    H7727395   5.965   6.120   2.215 -1.4613 -1.5728 -0.0657
   30MOL    H7827396   5.857   6.324   2.412 -0.1807  1.0663 -0.1525
   30MOL    H7927397   5.818   6.331   2.252 -0.1737 -0.9807 -0.6119
   30MOL    H8027398   6.101   6.376   2.343 -0.9532 -0.9485  0.9321
   30MOL    H8127399   6.062   6.382   2.176  2.6037  2.5595 -0.1901
   30MOL    H8227400   6.083   6.606   2.238  0.1058  0.6187  0.5779
   30MOL    H8327401   5.927   6.597   2.209 -0.4393  0.5471  0.7589
   30MOL    H8427402   5.962   6.730   2.421  1.3336  0.1425  0.0798
   30MOL    H8527403   5.877   6.573   2.455 -1.3677  1.0143 -1.1834
   30MOL    H8627404   6.063   6.628   2.624  0.3567  0.4455 -0.6075
   30MOL    H8727405   6.075   6.488   2.553  0.5005 -0.3618  0.3125
   30MOL    H8827406   6.244   6.599   2.381 -0.1726 -1.5614  0.5533
   30MOL    H8927407   6.282   6.556   2.549  1.6463  0.4129 -0.9329
   30MOL    H9027408   6.268   6.769   2.640  0.5427  0.1703 -0.0743
   30MOL    H9127409   6.244   6.843   2.473  2.3005  1.5775  1.2633
   30MOL    H9227410   6.671   7.030   2.476 -0.9309 -0.1105 -3.5512
   30MOL    H9327411   6.914   7.016   2.431 -0.3856  0.2577 -3.3461
   30MOL    H9427412   6.863   6.583   2.405  1.8871  1.2988  0.4704
   30MOL    H9527413   6.620   6.606   2.446  0.3600  0.0174 -2.6113
   30MOL    O9627414   7.244   6.645   2.360 -0.3233  0.0775 -0.2847
   30MOL    C9727415   7.343   6.689   2.452  0.0571 -0.7890  0.3056
   30MOL    C9827416   7.485   6.701   2.379  0.1382  0.0361 -0.4804
   30MOL    C9927417   7.567   6.560   2.384  0.0265 -0.2873 -0.3416
   30MOL   C10027418   7.712   6.567   2.342  0.0187 -0.3877 -0.2501
   30MOL   C10127419   7.765   6.433   2.287  0.6817  0.0816  0.7761
   30MOL   C10227420   7.914   6.421   2.273 -0.1248 -0.4429  0.2696
   30MOL   C10327421   0.007   6.371   2.404  0.1515 -0.4987  0.2474
   30MOL   C10427422   0.138   6.308   2.362 -0.1139  0.2409  0.0780
   30MOL   C10527423   0.223   6.258   2.491 -0.2857  0.0102  0.5143
   30MOL   C10627424   0.346   6.176   2.464 -0.3114 -0.6173 -0.3801
   30MOL   O10727425   0.440   6.251   2.387  0.1667  0.1747 -0.3901
   30MOL   C10827426   0.528   6.182   2.309 -0.2832 -0.0216 -0.5295
   30MOL   O10927427   0.524   6.061   2.281 -0.2029 -0.1154 -0.7209
   30MOL   C11027428   0.641   6.266   2.268  0.6755 -0.4313 -0.0532
   30MOL   C11127429   0.749   6.208   2.196  0.3335  0.2074  0.3713
   30MOL   C11227430   0.863   6.289   2.176 -0.1696  0.3174  0.1806
   30MOL   C11327431   0.856   6.431   2.192  0.4885  0.7198  0.4432
   30MOL   C11427432   0.974   6.513   2.167  0.4337 -0.7496 -0.6735
   30MOL   O11527433   1.094   6.470   2.152  0.4529 -0.8354 -0.1140
   30MOL   O11627434   0.941   6.652   2.153  0.6959 -0.3854  0.5697
   30MOL   C11727435   0.742   6.487   2.243 -0.0704 -1.2882  0.1284
   30MOL   C11827436   0.638   6.401   2.281  0.1349  0.0483 -0.4726
   30MOL   H11927437   7.317   6.784   2.499 -2.0223 -0.3192 -1.7029
   30MOL   H12027438   7.346   6.620   2.537 -0.4083  0.9959  1.8113
   30MOL   H12127439   7.538   6.782   2.430 -2.3432  1.0790  0.5090
   30MOL   H12227440   7.471   6.728   2.275 -1.9599 -0.1551 -0.2525
   30MOL   H12327441   7.585   6.521   2.484  1.6107 -0.7941 -0.8110
   30MOL   H12427442   7.508   6.482   2.335  0.4721  0.0087 -1.3741
   30MOL   H12527443   7.763   6.595   2.434 -1.7486 -1.4700  1.1144
   30MOL   H12627444   7.728   6.639   2.262  1.2266  0.7452  0.9989
   30MOL   H12727445   7.728   6.348   2.343 -1.3583 -0.4087 -1.2337
   30MOL   H12827446   7.723   6.422   2.187 -0.7476  2.0591  1.1432
   30MOL   H12927447   7.933   6.342   2.200 -0.1707 -1.0038  0.8650
   30MOL   H13027448   7.955   6.518   2.244 -2.4799  0.5624  0.2163
   30MOL   H13127449   0.007   6.456   2.472 -1.0322  0.3206 -0.7592
   30MOL   H13227450   7.931   6.286   2.447  1.3749 -0.8195  1.1523
   30MOL   H13327451   0.103   6.225   2.301 -2.4389  1.9842 -1.0356
   30MOL   H13427452   0.198   6.363   2.288 -2.2784  0.3053 -1.6907
   30MOL   H13527453   0.159   6.207   2.564 -0.4055 -0.7816 -0.1388
   30MOL   H13627454   0.262   6.348   2.539  0.3814 -1.1490  2.2014
   30MOL   H13727455   0.328   6.082   2.411  1.5617 -3.0717  3.1250
   30MOL   H13827456   0.392   6.159   2.561 -1.8619  2.1786  0.9022
   30MOL   H13927457   0.760   6.102   2.184  3.0904  0.7130 -2.0378
   30MOL   H14027458   0.951   6.234   2.145 -1.1140 -0.1580 -1.7324
   30MOL   H14127459   0.738   6.593   2.264 -0.1582 -1.0624 -1.0132
   30MOL   H14227460   0.550   6.447   2.323  0.2321  1.1704 -1.4740
   30MOL   O14327461   1.057   6.746   2.174  0.3441 -0.7703  0.0877
   30MOL   C14427462   1.039   6.807   2.301  0.2383  0.7496  0.2491
   30MOL   C14527463   1.146   6.915   2.331 -0.1833 -0.1045  0.2479
   30MOL   C14627464   1.147   7.028   2.228 -0.6942 -0.5676 -0.1750
   30MOL   C14727465   1.279   7.100   2.229  0.2326 -0.3544  0.7438
   30MOL   C14827466   1.289   7.208   2.121  0.3929  0.8596  0.6916
   30MOL   C14927467   1.428   7.251   2.070 -0.1687  0.3742 -1.0638
   30MOL   C15027468   1.424   7.308   1.931 -0.0822 -0.6730 -0.2835
   30MOL   C15127469   1.550   7.387   1.873 -0.4881  0.4654 -0.7565
   30MOL   C15227470   1.681   7.308   1.871  1.0624 -0.2262  0.0126
   30MOL   C15327471   1.798   7.400   1.831  0.6559 -0.6720 -0.1854
   30MOL   O15427472   1.760   7.442   1.702 -0.0699  0.2326  0.2190
   30MOL   C15527473   1.806   7.562   1.645  0.3990 -0.2910 -0.1278
   30MOL   O15627474   1.855   7.653   1.705  0.0055 -0.2676 -0.1353
   30MOL   C15727475   1.786   7.565   1.498  0.5931  0.0271  0.4113
   30MOL   C15827476   1.788   7.450   1.414  0.9805 -0.2796  0.4328
   30MOL   C15927477   1.748   7.464   1.277  0.5727 -0.1500 -0.3962
   30MOL   C16027478   1.705   7.582   1.226 -0.0185  0.3802 -1.0292
   30MOL   C16127479   1.653   7.586   1.087 -0.2882 -0.0985  0.5105
   30MOL   O16227480   1.665   7.491   1.006 -0.0415 -0.8829 -0.2815
   30MOL   O16327481   1.601   7.709   1.057 -0.5232 -0.2929  0.3108
   30MOL   C16427482   1.702   7.699   1.305  0.1574  0.3553 -0.0365
   30MOL   C16527483   1.740   7.688   1.442 -0.2465  0.0829 -0.7069
   30MOL   H16627484   0.941   6.854   2.315  0.1814  1.1115 -1.2695
   30MOL   H16727485   1.053   6.737   2.382  1.8415 -0.2672 -0.8792
   30MOL   H16827486   1.237   6.854   2.326 -0.6439 -0.9386  1.5482
   30MOL   H16927487   1.136   6.949   2.434  1.2256 -0.7724  0.6218
   30MOL   H17027488   1.134   6.995   2.125 -1.4157  1.8712 -0.9040
   30MOL   H17127489   1.074   7.099   2.266  0.9888  0.6595  0.8533
   30MOL   H17227490   1.362   7.032   2.208 -0.9207 -0.7729 -2.9639
   30MOL   H17327491   1.295   7.156   2.321 -0.6415  1.2702 -0.0662
   30MOL   H17427492   1.232   7.170   2.037  1.9988  0.8464 -0.4142
   30MOL   H17527493   1.225   7.291   2.151 -3.1690 -1.4773 -0.2111
   30MOL   H17627494   1.471   7.325   2.138 -0.1089 -0.2254 -0.4409
   30MOL   H17727495   1.491   7.163   2.078 -0.7084  0.2922  3.2756
   30MOL   H17827496   1.393   7.229   1.862 -2.0508 -0.3098  0.1456
   30MOL   H17927497   1.343   7.381   1.930 -0.1000 -0.6927 -0.3044
   30MOL   H18027498   1.525   7.425   1.774 -0.4933 -0.4176 -1.0909
   30MOL   H18127499   1.567   7.477   1.933  1.1751  0.0570 -0.5862
   30MOL   H18227500   1.667   7.221   1.807  0.3837 -0.4059  0.3997
   30MOL   H18327501   1.713   7.279   1.971  0.5792 -0.4282  0.1099
   30MOL   H18427502   1.893   7.347   1.834 -0.1788 -2.3160 -1.7925
   30MOL   H18527503   1.797   7.487   1.897  0.2648  1.4377 -2.8618
   30MOL   H18627504   1.824   7.360   1.461  1.3869 -0.3690 -0.0575
   30MOL   H18727505   1.732   7.379   1.213  0.6037 -1.5487  1.3896
   30MOL   H18827506   1.672   7.799   1.276 -1.7441 -0.2251 -0.1176
   30MOL   H18927507   1.742   7.771   1.510  1.2985 -0.6675  0.2024
   30MOL   O19027508   1.528   7.716   0.935  0.8319  0.2059 -0.3922
   30MOL   C19127509   1.387   7.676   0.959  0.1270 -0.3616 -0.0784
   30MOL   C19227510   1.317   7.640   0.825 -0.3237 -0.4334  0.2200
   30MOL   C19327511   1.383   7.513   0.769 -0.5403 -0.1143  1.1982
   30MOL   C19427512   1.309   7.462   0.644  0.6381 -0.7847  0.0486
   30MOL   C19527513   1.350   7.527   0.512  0.1411  0.4710  0.6470
   30MOL   C19627514   1.252   7.499   0.394  0.0448 -0.3165  0.1997
   30MOL   C19727515   1.314   7.546   0.256 -1.3064  0.1854 -0.5558
   30MOL   C19827516   1.456   7.487   0.225 -0.1803 -0.2565  0.4273
   30MOL   C19927517   1.486   7.524   0.078 -0.2371  0.4633  0.2041
   30MOL   C20027518   1.621   7.473   0.024 -0.4230 -0.5825  0.6628
   30MOL   O20127519   1.639   7.331   0.017  0.3887 -0.4218 -0.6704
   30MOL   C20227520   1.767   7.276   0.017 -0.4614  0.8388 -0.6079
   30MOL   O20327521   1.875   7.328   7.976  0.8789  0.1149  0.2131
   30MOL   C20427522   1.749   7.134   0.058 -0.5977  0.4412  0.5969
   30MOL   C20527523   1.864   7.053   0.103 -0.3937 -0.1729  0.3232
   30MOL   C20627524   1.842   6.920   0.144 -0.0699 -0.4880  0.2281
   30MOL   C20727525   1.717   6.863   0.149  0.5146 -0.2492  0.1424
   30MOL   C20827526   1.700   6.718   0.185  0.2886 -0.0034 -0.0063
   30MOL   O20927527   1.798   6.640   0.192  0.1040 -0.1713 -0.3162
   30MOL   O21027528   1.572   6.679   0.197 -0.4486  0.0317 -0.1929
   30MOL   C21127529   1.605   6.941   0.100  0.5948 -0.4183 -0.0434
   30MOL   C21227530   1.620   7.075   0.062  0.1997  0.2960 -0.6577
   30MOL   H21327531   1.389   7.595   1.032 -0.2593 -2.2116 -2.0644
   30MOL   H21427532   1.332   7.761   0.997  2.1408 -0.1602  2.5007
   30MOL   H21527533   1.325   7.718   0.748  0.7264 -1.0458 -0.2918
   30MOL   H21627534   1.209   7.624   0.827 -0.2142 -1.0339  1.6743
   30MOL   H21727535   1.485   7.531   0.738 -0.0269  0.1668  2.9975
   30MOL   H21827536   1.379   7.427   0.836 -2.0524 -1.9565 -1.1495
   30MOL   H21927537   1.201   7.476   0.650  0.8983  1.4606 -0.2141
   30MOL   H22027538   1.329   7.357   0.620 -1.7526 -1.3013  0.1568
   30MOL   H22127539   1.346   7.635   0.530  0.8053  0.9650 -1.9062
   30MOL   H22227540   1.458   7.513   0.497  0.5320  3.0884  0.7690
   30MOL   H22327541   1.206   7.400   0.387 -1.2819  0.1233  2.2047
   30MOL   H22427542   1.158   7.554   0.395 -0.7287 -1.5845 -0.4602
   30MOL   H22527543   1.240   7.525   0.180  1.3532  1.2982 -3.5521
   30MOL   H22627544   1.331   7.654   0.257  0.3833 -0.0615  1.2104
   30MOL   H22727545   1.537   7.530   0.284  0.3280  2.2884 -1.9963
   30MOL   H22827546   1.460   7.379   0.215  1.6681 -0.2067  0.3380
   30MOL   H22927547   1.492   7.632   0.066  1.4586  0.1832 -1.7421
   30MOL   H23027548   1.409   7.480   0.014 -1.0704  1.2723  0.6428
   30MOL   H23127549   1.686   7.521   0.097 -1.9296 -0.5122  2.0090
   30MOL   H23227550   1.627   7.529   7.909 -3.0733  0.8679  1.2913
   30MOL   H23327551   1.963   7.098   0.102 -0.2588 -0.4754 -1.6795
   30MOL   H23427552   1.932   6.870   0.177  1.4722 -0.1475 -3.1424
   30MOL   H23527553   1.502   6.910   0.090  0.4532 -0.1710  0.6191
   30MOL   H23627554   1.527   7.126   0.043  0.3986  0.4554 -1.2235
   30MOL   O23727555   1.554   6.543   0.253 -0.2816  0.2098 -0.4939
   30MOL   C23827556   1.512   6.558   0.394 -0.6865  0.5105  0.2153
   30MOL   C23927557   1.525   6.430   0.474 -0.1123 -0.3689  0.6670
   30MOL   C24027558   1.510   6.451   0.622  0.1656 -0.4194 -0.1409
   30MOL   C24127559   1.504   6.316   0.699  0.2274  0.1037  0.1683
   30MOL   C24227560   1.641   6.245   0.706  0.5928  0.1796  0.5355
   30MOL   C24327561   1.649   6.109   0.784  0.2738  0.2779 -0.8903
   30MOL   C24427562   1.780   6.028   0.755 -0.1013  0.1362 -0.0806
   30MOL   C24527563   1.892   6.084   0.843 -0.0077 -0.1193 -0.7385
   30MOL   C24627564   2.032   6.045   0.793  0.0302  0.4272  0.4934
   30MOL   C24727565   2.137   6.145   0.837  0.2599 -0.5926  0.7155
   30MOL   O24827566   2.110   6.279   0.777  0.0747  0.1897 -0.0157
   30MOL   C24927567   2.131   6.387   0.840  0.0511 -0.6310 -0.1582
   30MOL   O25027568   2.197   6.396   0.942 -0.1963 -0.0939 -0.2354
   30MOL   C25127569   2.056   6.503   0.776  0.2402  0.8216 -0.5865
   30MOL   C25227570   1.963   6.477   0.669 -0.6244 -0.3664 -0.1416
   30MOL   C25327571   1.875   6.577   0.620  0.5162  0.4411 -0.7765
   30MOL   C25427572   1.888   6.712   0.673 -0.2048  0.0339 -0.3813
   30MOL   C25527573   1.801   6.813   0.611  0.0916  0.8835 -0.4488
   30MOL   O25627574   1.714   6.784   0.529 -0.3023  0.0416 -0.6144
   30MOL   O25727575   1.825   6.937   0.652 -0.7957  0.2223  0.4127
   30MOL   C25827576   1.983   6.739   0.777  0.4361 -0.2987  0.1805
   30MOL   C25927577   2.072   6.634   0.826 -0.0198  0.3502  0.1370
   30MOL   H26027578   1.564   6.639   0.445  2.4629 -0.0364 -2.0070
   30MOL   H26127579   1.410   6.596   0.394 -1.1506 -0.6993 -0.6314
   30MOL   H26227580   1.626   6.394   0.459  1.5573  3.9177  0.9554
   30MOL   H26327581   1.464   6.349   0.433 -2.1275 -0.1868  3.1463
   30MOL   H26427582   1.597   6.502   0.663 -1.1284  0.9122  1.0093
   30MOL   H26527583   1.413   6.498   0.637  1.6868  2.9895 -0.6487
   30MOL   H26627584   1.437   6.252   0.640  0.8806 -1.5811  1.2187
   30MOL   H26727585   1.467   6.335   0.799 -0.0185 -0.2705  0.1508
   30MOL   H26827586   1.661   6.225   0.601 -0.9440  1.0829  0.0424
   30MOL   H26927587   1.713   6.322   0.737  0.9304  0.6937 -1.4926
   30MOL   H27027588   1.643   6.125   0.891 -0.7794 -0.4336 -0.8283
   30MOL   H27127589   1.561   6.049   0.759  0.3107  0.1266 -0.6564
   30MOL   H27227590   1.767   5.920   0.768 -2.7941  0.4560  0.2321
   30MOL   H27327591   1.810   6.046   0.651  0.9149  3.0401  0.6646
   30MOL   H27427592   1.885   6.193   0.844  1.0966 -0.0233  3.6375
   30MOL   H27527593   1.863   6.069   0.947 -1.0084 -1.8282 -1.2395
   30MOL   H27627594   2.041   6.044   0.684  1.1603 -0.3863  0.5841
   30MOL   H27727595   2.050   5.942   0.824 -2.2282 -0.2250 -0.2512
   30MOL   H27827596   2.236   6.117   0.800  0.4650  1.2451 -0.1731
   30MOL   H27927597   2.141   6.143   0.946  0.6373  0.7745  0.7261
   30MOL   H28027598   1.945   6.374   0.640  3.3635 -1.1751 -0.0225
   30MOL   H28127599   1.809   6.555   0.537  0.6057 -1.8753 -0.2856
   30MOL   H28227600   1.995   6.834   0.826  3.8471  0.0381 -1.1524
   30MOL   H28327601   2.139   6.655   0.909 -0.8820  0.9243  0.6939
   30MOL   O28427602   1.742   7.048   0.593  0.0217  0.2203 -0.1047
   30MOL   C28527603   1.821   7.100   0.487  0.2466 -0.5794 -0.2520
   30MOL   C28627604   1.758   7.216   0.408  0.1641 -0.1490 -0.1300
   30MOL   C28727605   1.739   7.336   0.501  0.9290 -0.9475  0.5508
   30MOL   C28827606   1.872   7.417   0.536  0.5320 -0.3338 -0.5519
   30MOL   C28927607   1.857   7.536   0.635  0.4813 -1.1097  0.7410
   30MOL   C29027608   1.743   7.634   0.609 -0.1360 -0.0478  0.6176
   30MOL   C29127609   1.747   7.712   0.482 -0.6088  0.8531 -0.0904
   30MOL   C29227610   1.631   7.811   0.466  0.0836 -0.2596  0.4036
   30MOL   C29327611   1.588   7.855   0.322 -0.1540 -0.0421  0.1075
   30MOL   C29427612   1.455   7.931   0.334  0.0077 -0.1041  0.4152
   30MOL   O29527613   1.467   0.083   0.396 -0.7938 -0.1469 -0.3185
   30MOL   C29627614   1.374   0.179   0.382  0.7784  0.7458  0.5952
   30MOL   O29727615   1.276   0.162   0.301 -0.0568  0.3697  0.6829
   30MOL   C29827616   1.387   0.290   0.479  0.0414  0.7640 -0.0122
   30MOL   C29927617   1.283   0.378   0.509 -0.2273  0.0163  0.3054
   30MOL   C30027618   1.297   0.464   0.615  0.1432 -0.7664  0.4658
   30MOL   C30127619   1.419   0.483   0.690 -0.5482 -0.7383  0.5836
   30MOL   C30227620   1.421   0.583   0.808  0.2666  0.3308  0.1670
   30MOL   O30327621   1.320   0.644   0.851 -0.0371  0.8143 -0.4214
   30MOL   O30427622   1.545   0.600   0.857  0.0632  0.1382  0.1670
   30MOL   C30527623   1.530   0.408   0.647 -0.9511 -0.0715 -0.0251
   30MOL   C30627624   1.511   0.316   0.541 -0.0532  0.0727 -0.5275
   30MOL   H30727625   1.914   7.131   0.536  0.8840 -0.6391 -1.3940
   30MOL   H30827626   1.839   7.017   0.418  0.6924  0.7670 -1.8105
   30MOL   H30927627   1.668   7.188   0.354  0.1101  2.0569 -1.2430
   30MOL   H31027628   1.835   7.243   0.335 -0.0537 -1.2674 -0.7950
   30MOL   H31127629   1.663   7.398   0.454  1.6658 -0.4066  0.0750
   30MOL   H31227630   1.681   7.314   0.591  2.2371  0.0929  1.6593
   30MOL   H31327631   1.929   7.436   0.445  0.0069  1.2321 -0.5650
   30MOL   H31427632   1.942   7.344   0.579 -2.6971 -3.5653 -0.5165
   30MOL   H31527633   1.846   7.493   0.735  1.1988 -1.8816  0.4857
   30MOL   H31627634   1.953   7.588   0.641 -0.0880  0.2819 -1.7430
   30MOL   H31727635   1.651   7.580   0.586  0.3824 -0.4169 -0.6755
   30MOL   H31827636   1.714   7.692   0.697 -3.7979 -0.0853 -0.4609
   30MOL   H31927637   1.848   7.754   0.488 -0.1152 -0.4559  1.2923
   30MOL   H32027638   1.749   7.627   0.413  0.4279 -0.3077  1.3400
   30MOL   H32127639   1.542   7.768   0.513 -0.1980 -1.4868 -1.2177
   30MOL   H32227640   1.654   7.906   0.514 -0.0112 -1.1046  2.1877
   30MOL   H32327641   1.576   7.776   0.248 -0.4745 -0.4305  0.5662
   30MOL   H32427642   1.672   7.914   0.286 -0.0689 -0.0616  0.2716
   30MOL   H32527643   1.388   7.863   0.386 -0.9035  0.5367  0.0859
   30MOL   H32627644   1.416   7.940   0.232  0.3362  2.3610  0.4869
   30MOL   H32727645   1.183   0.379   0.468  0.3547  1.3984 -1.0974
   30MOL   H32827646   1.220   0.529   0.653 -0.1220 -1.0643  0.4394
   30MOL   H32927647   1.623   0.427   0.698 -0.8184  1.1186 -0.7059
   30MOL   H33027648   1.600   0.254   0.540  0.7391  0.9940  3.2461
   30MOL   O33127649   1.550   0.697   0.974 -0.2064  0.1081 -0.2459
   30MOL   C33227650   1.560   0.620   1.090  0.4471 -0.3089 -0.5691
   30MOL   C33327651   1.552   0.721   1.201  0.5628 -0.0511 -0.4901
   30MOL   C33427652   1.536   0.641   1.335 -0.1904  0.2795 -0.4567
   30MOL   C33527653   1.522   0.725   1.457  0.2963 -0.0291  0.3549
   30MOL   C33627654   1.539   0.644   1.588  0.4396  0.2420 -0.7861
   30MOL   C33727655   1.524   0.713   1.723  0.2088  0.3487 -0.2448
   30MOL   C33827656   1.499   0.613   1.838 -0.7592  1.0266  0.4346
   30MOL   C33927657   1.623   0.521   1.873 -0.3753  0.1033 -0.5702
   30MOL   C34027658   1.735   0.601   1.924  0.0177  0.2262  0.2027
   30MOL   C34127659   1.854   0.518   1.964  0.5181  0.0654  0.7037
   30MOL   O34227660   1.800   0.450   2.074  0.4201  0.0877  0.4647
   30MOL   C34327661   1.866   0.357   2.139 -0.3499  0.1882 -0.7108
   30MOL   O34427662   1.983   0.319   2.113 -0.3607  0.5341  0.1038
   30MOL   C34527663   1.787   0.311   2.258 -0.0046 -0.0657 -0.0604
   30MOL   C34627664   1.647   0.320   2.259 -0.3643  0.8864  0.7540
   30MOL   C34727665   1.579   0.272   2.369 -0.1992 -0.2237 -0.2640
   30MOL   C34827666   1.640   0.209   2.481 -0.0833  0.3223  0.5304
   30MOL   C34927667   1.555   0.147   2.588  0.1641  0.2919 -0.2442
   30MOL   O35027668   1.594   0.060   2.668 -0.0360 -0.5263 -0.3404
   30MOL   O35127669   1.429   0.186   2.583 -0.3544 -0.3134  0.0228
   30MOL   C35227670   1.778   0.195   2.474  0.1592  0.1822  0.6300
   30MOL   C35327671   1.852   0.245   2.362  0.2581  0.9519 -0.4571
   30MOL   H35427672   1.483   0.543   1.097  1.9881 -2.0794 -2.4204
   30MOL   H35527673   1.655   0.567   1.099  1.2153  1.0736 -0.2436
   30MOL   H35627674   1.457   0.772   1.185 -0.3593 -1.0302  1.6362
   30MOL   H35727675   1.634   0.791   1.197  1.9570 -1.5675  0.8427
   30MOL   H35827676   1.453   0.571   1.325  0.7754 -0.7801 -1.1888
   30MOL   H35927677   1.623   0.576   1.338 -0.1993  0.3318  1.3426
   30MOL   H36027678   1.418   0.757   1.455  1.1233  2.7225 -1.0138
   30MOL   H36127679   1.584   0.815   1.461  1.2855 -0.5673 -1.9463
   30MOL   H36227680   1.470   0.560   1.585  2.0742 -1.0751 -2.1032
   30MOL   H36327681   1.642   0.609   1.590  0.2535 -0.3049 -0.8439
   30MOL   H36427682   1.606   0.781   1.743 -0.5538  1.2514 -0.1238
   30MOL   H36527683   1.440   0.783   1.723  1.0737  1.4086 -1.4958
   30MOL   H36627684   1.464   0.666   1.927  2.2953 -0.1282  2.3942
   30MOL   H36727685   1.419   0.542   1.814  0.8704 -0.1656 -1.5983
   30MOL   H36827686   1.588   0.457   1.954  2.7490 -0.6413  0.2626
   30MOL   H36927687   1.640   0.447   1.795  0.7860 -2.1637  1.7696
   30MOL   H37027688   1.708   0.663   2.009 -0.7018  1.8428 -1.1659
   30MOL   H37127689   1.773   0.671   1.850 -0.2273  2.3332  2.0204
   30MOL   H37227690   1.936   0.578   2.004  1.3334 -1.4979  1.4497
   30MOL   H37327691   1.871   0.441   1.889 -1.4164  0.7314 -0.4288
   30MOL   H37427692   1.596   0.363   2.173 -1.1446 -2.6655 -0.6428
   30MOL   H37527693   1.471   0.276   2.372 -0.2171  0.6226 -1.7185
   30MOL   H37627694   1.831   0.143   2.552 -0.9231 -1.2963  0.4034
   30MOL   H37727695   1.958   0.230   2.354  0.3658  1.5426 -0.1379
   30MOL   O37827696   1.332   0.107   2.669  0.4676 -0.0084  0.1366
   30MOL   C37927697   1.236   0.055   2.578  0.1005 -0.3504 -0.1083
   30MOL   C38027698   1.133   7.943   2.641  0.8635  0.2899  0.0823
   30MOL   C38127699   1.023   7.898   2.540  0.1603  0.4844 -0.1914
   30MOL   C38227700   0.913   7.803   2.595 -0.4010  0.5929  0.7480
   30MOL   C38327701   0.798   7.775   2.494  0.2261  0.3953 -0.1738
   30MOL   C38427702   0.682   7.682   2.542 -0.1469 -0.3168  0.0110
   30MOL   C38527703   0.720   7.544   2.583 -0.1196  0.2727 -0.0863
   30MOL   C38627704   0.613   7.437   2.569 -0.0580  0.2607  0.3247
   30MOL   C38727705   0.653   7.296   2.619  0.0243  0.4977 -0.6791
   30MOL   C38827706   0.543   7.190   2.601  0.0347 -0.5138 -0.7231
   30MOL   O38927707   0.593   7.068   2.637 -0.4914  0.1127  0.6593
   30MOL   C39027708   0.518   6.991   2.715 -0.1579  0.2498  0.3650
   30MOL   O39127709   0.411   7.021   2.770 -0.2042  0.4379 -0.2607
   30MOL   C39227710   0.566   6.851   2.714 -0.4670  0.2753 -0.3392
   30MOL   C39327711   0.525   6.764   2.817  0.3356 -0.4226 -0.5144
   30MOL   C39427712   0.559   6.628   2.835  0.1728  0.4793  0.2756
   30MOL   C39527713   0.628   6.566   2.734  0.5191  0.1320  0.2872
   30MOL   C39627714   0.654   6.421   2.750 -0.9468 -0.1979  0.6483
   30MOL   O39727715   0.674   6.363   2.859 -0.3234 -0.1253 -0.2682
   30MOL   O39827716   0.647   6.355   2.632  0.0997  0.5106 -0.0027
   30MOL   C39927717   0.668   6.646   2.622 -0.1361  0.2185  0.3048
   30MOL   C40027718   0.643   6.788   2.616 -1.1350  0.6066  0.2580
   30MOL   H40127719   1.189   0.143   2.534 -0.1412  0.0788  0.9755
   30MOL   H40227720   1.297   0.011   2.499  2.2329  2.9302 -0.3880
   30MOL   H40327721   1.068   0.010   2.716  0.4940  2.4560 -1.4821
   30MOL   H40427722   1.187   7.862   2.689 -0.7970  0.7953  2.8796
   30MOL   H40527723   0.985   0.012   2.495 -1.0574 -0.6357 -1.5206
   30MOL   H40627724   1.064   7.850   2.451 -1.8000 -1.3958 -0.1395
   30MOL   H40727725   0.878   7.842   2.691 -0.7693  1.7782  0.1540
   30MOL   H40827726   0.958   7.707   2.617  0.8623  0.6365 -1.5262
   30MOL   H40927727   0.755   7.873   2.472  1.2828  0.6437 -1.1947
   30MOL   H41027728   0.841   7.742   2.399  1.1512  0.1646  0.3117
   30MOL   H41127729   0.622   7.735   2.616 -1.2757 -1.2733 -0.2074
   30MOL   H41227730   0.597   7.680   2.474 -1.5455 -1.5991  1.7817
   30MOL   H41327731   0.813   7.518   2.534  0.4816  1.1605  0.5698
   30MOL   H41427732   0.743   7.544   2.690 -2.0784 -2.5291  0.3899
   30MOL   H41527733   0.525   7.472   2.622 -0.8384 -0.8731 -0.2105
   30MOL   H41627734   0.588   7.429   2.463  1.7877  1.2979 -0.2215
   30MOL   H41727735   0.694   7.301   2.720  0.1782  2.2034 -0.8073
   30MOL   H41827736   0.735   7.266   2.553 -0.0923  1.8660 -1.4684
   30MOL   H41927737   0.515   7.185   2.495 -1.4744  1.8833 -0.4771
   30MOL   H42027738   0.457   7.232   2.654  0.1745 -1.8450  0.5786
   30MOL   H42127739   0.462   6.806   2.895 -0.2258  0.9343 -1.6764
   30MOL   H42227740   0.529   6.575   2.924  2.1146 -1.2442 -0.0457
   30MOL   H42327741   0.722   6.610   2.536  1.5784 -0.9844  1.8352
   30MOL   H42427742   0.675   6.846   2.531 -1.8667 -3.1215 -2.6992
   30MOL   O42527743   0.646   6.200   2.650 -0.5231  0.3652  0.3228
   30MOL   C42627744   0.782   6.160   2.660 -0.3570 -0.1588 -0.3265
   30MOL   C42727745   0.856   6.173   2.522  0.7265  0.2411 -0.6028
   30MOL   C42827746   0.994   6.104   2.523 -0.5174  0.2047 -0.9181
   30MOL   C42927747   1.060   6.097   2.390  0.4871  0.1305  0.3151
   30MOL   C43027748   1.180   6.001   2.380 -0.0968  0.1378 -0.2873
   30MOL   C43127749   1.296   6.063   2.458  0.0954  0.4594  0.0035
   30MOL   C43227750   1.406   5.964   2.452 -0.6044 -0.3287 -0.6402
   30MOL   C43327751   1.525   6.016   2.533 -0.7372 -0.0181 -0.0912
   30MOL   C43427752   1.503   5.976   2.675 -0.4022 -0.1100 -0.9237
   30MOL   C43527753   1.624   6.029   2.764  0.4183 -0.6768  0.7188
   30MOL   O43627754   1.750   5.985   2.705  0.1365 -0.0029 -0.3259
   30MOL   C43727755   1.850   5.935   2.786  0.0749 -0.3583 -0.1997
   30MOL   O43827756   1.837   5.929   2.910  0.1206  0.4191 -0.3341
   30MOL   C43927757   1.968   5.899   2.705  0.4095 -0.6432  0.2266
   30MOL   C44027758   1.994   5.958   2.578 -0.0868  0.4640 -0.7386
   30MOL   C44127759   2.110   5.920   2.512  0.1868 -0.8210  0.0707
   30MOL   C44227760   2.205   5.832   2.565  0.1851  0.4141 -0.0093
   30MOL   C44327761   2.339   5.808   2.500  1.0039  0.2216  0.0416
   30MOL   O44427762   2.428   5.749   2.560  0.2014  0.0346  0.3278
   30MOL   O44527763   2.345   5.854   2.372 -0.1900 -0.3255  0.3737
   30MOL   C44627764   2.172   5.769   2.684 -0.3305 -0.3520 -0.3895
   30MOL   C44727765   2.061   5.813   2.759 -1.0375  0.4222 -0.2140
   30MOL   H44827766   0.829   6.208   2.746 -0.3368 -2.9828  1.2944
   30MOL   H44927767   0.773   6.056   2.691 -0.0470  0.3793  1.6314
   30MOL   H45027768   0.863   6.274   2.481 -2.3669  0.7133 -0.1009
   30MOL   H45127769   0.794   6.112   2.456  0.0668 -0.7651  0.9102
   30MOL   H45227770   1.053   6.161   2.594  1.0374  1.8387 -3.4518
   30MOL   H45327771   0.968   6.002   2.553 -1.6406 -0.0758 -2.7067
   30MOL   H45427772   1.080   6.198   2.353  0.2331 -1.0261 -3.2321
   30MOL   H45527773   0.978   6.066   2.325  0.1118  0.8197  0.4481
   30MOL   H45627774   1.149   5.903   2.417  1.7759 -0.9423 -1.4584
   30MOL   H45727775   1.201   5.977   2.275  0.7273  1.6086 -0.4661
   30MOL   H45827776   1.314   6.154   2.400 -1.2820 -0.1817 -1.4626
   30MOL   H45927777   1.269   6.108   2.553  0.2729  0.8294 -0.1197
   30MOL   H46027778   1.364   5.869   2.487  0.4198 -0.4153  0.3999
   30MOL   H46127779   1.436   5.944   2.349 -2.3695  0.3965 -1.3064
   30MOL   H46227780   1.617   5.971   2.496 -1.1399 -0.2189 -0.8586
   30MOL   H46327781   1.523   6.124   2.518  0.0772  0.5572  3.4922
   30MOL   H46427782   1.493   5.869   2.694 -1.6429 -0.0741 -1.3433
   30MOL   H46527783   1.406   6.015   2.707  0.3486  0.0145  1.3189
   30MOL   H46627784   1.625   6.009   2.871 -1.6313 -0.6990  0.7553
   30MOL   H46727785   1.632   6.137   2.754  1.1376 -0.9636 -2.3910
   30MOL   H46827786   1.925   6.026   2.531 -0.5791  1.2769  1.0968
   30MOL   H46927787   2.128   5.972   2.420  0.8906 -0.9404  0.1322
   30MOL   H47027788   2.235   5.694   2.731  0.4344  1.8372  2.1995
   30MOL   H47127789   2.048   5.773   2.858 -1.9262  2.5444  0.5483
   30MOL   O47227790   2.489   5.865   2.320 -0.2761 -0.4422 -0.4126
   30MOL   C47327791   2.538   5.997   2.339 -0.9343 -0.3748 -0.2307
   30MOL   C47427792   2.698   5.996   2.330  0.3250  0.2591  0.4471
   30MOL   C47527793   2.765   5.987   2.468 -0.1055  0.2495  0.2720
   30MOL   C47627794   2.914   5.972   2.457  0.8771  0.1340 -0.3842
   30MOL   C47727795   2.998   5.973   2.591 -0.3304  0.0640 -0.4570
   30MOL   C47827796   3.134   5.885   2.577 -0.2078 -0.0340 -0.0126
   30MOL   C47927797   3.228   5.944   2.469 -0.6890 -0.8387  0.1352
   30MOL   C48027798   3.347   5.861   2.417  0.0182  0.0168 -0.0508
   30MOL   C48127799   3.410   5.916   2.287 -0.1564  0.0990 -0.0160
   30MOL   C48227800   3.484   6.051   2.307  0.0787  0.1865  0.1420
   30MOL   O48327801   3.380   6.150   2.304  0.5280 -0.9381 -0.6209
   30MOL   C48427802   3.411   6.276   2.353  0.0764 -0.7124  0.7820
   30MOL   O48527803   3.528   6.313   2.383  0.0750  0.2033  0.2688
   30MOL   C48627804   3.292   6.366   2.371 -0.1763  0.3928 -0.0299
   30MOL   C48727805   3.160   6.321   2.343 -0.1123 -0.2129 -0.0629
   30MOL   C48827806   3.053   6.408   2.383 -0.2421  0.2714 -0.2236
   30MOL   C48927807   3.072   6.541   2.431  0.6197 -0.0384 -0.1183
   30MOL   C49027808   2.959   6.633   2.438 -0.2957 -0.2668  0.4381
   30MOL   O49127809   2.961   6.749   2.461 -0.0951 -0.2124  0.1812
   30MOL   O49227810   2.833   6.579   2.417 -0.2148  0.1574 -0.3349
   30MOL   C49327811   3.202   6.579   2.457 -0.1518 -0.7335 -0.8188
   30MOL   C49427812   3.311   6.492   2.427 -0.1111 -0.1883 -0.5863
   30MOL   H49527813   2.503   6.071   2.267  0.6227 -0.3215 -0.9500
   30MOL   H49627814   2.509   6.041   2.435  0.2516  0.3701 -0.1908
   30MOL   H49727815   2.743   6.082   2.281  0.2235  1.1668  1.9137
   30MOL   H49827816   2.726   5.912   2.266  2.3284  0.7906  0.5973
   30MOL   H49927817   2.752   6.082   2.521 -1.3753 -0.4121  1.1655
   30MOL   H50027818   2.723   5.902   2.521  1.8196 -0.6219  0.4722
   30MOL   H50127819   2.952   6.047   2.388 -1.6811  1.1790 -0.7170
   30MOL   H50227820   2.932   5.878   2.405  2.6767  1.6065 -2.4560
   30MOL   H50327821   3.007   6.075   2.628 -0.1386  0.8299 -2.6071
   30MOL   H50427822   2.931   5.928   2.665 -0.0027 -1.3288 -0.9938
   30MOL   H50527823   3.183   5.881   2.675 -0.8870 -1.6041  0.2759
   30MOL   H50627824   3.117   5.780   2.555  0.3196 -0.3425  1.0094
   30MOL   H50727825   3.161   5.948   2.383  2.9248 -0.8603 -2.7833
   30MOL   H50827826   3.263   6.044   2.493  1.0268 -0.7448 -2.5295
   30MOL   H50927827   3.419   5.840   2.496 -2.1424 -0.7147  1.7815
   30MOL   H51027828   3.325   5.756   2.397  0.0434 -0.3924  2.0187
   30MOL   H51127829   3.350   5.917   2.196  1.9636 -0.0100 -1.4682
   30MOL   H51227830   3.488   5.846   2.257  2.5616  2.9446  0.1316
   30MOL   H51327831   3.540   6.060   2.214 -2.5442 -1.5364 -1.7021
   30MOL   H51427832   3.552   6.056   2.391 -0.1433  1.7550  0.2303
   30MOL   H51527833   3.133   6.226   2.300 -0.9766 -0.4371  0.9437
   30MOL   H51627834   2.957   6.367   2.356  0.9652 -2.9384  0.0878
   30MOL   H51727835   3.224   6.679   2.492 -0.9387 -0.4994 -0.9860
   30MOL   H51827836   3.413   6.523   2.442  0.7156 -2.2833 -1.7741
   30MOL   O51927837   2.725   6.678   2.373  0.1112  0.1705  0.0561
   30MOL   C52027838   2.647   6.717   2.482 -0.5915 -0.1815 -0.0896
   30MOL   C52127839   2.596   6.609   2.570  0.2183 -0.4390 -0.0529
   30MOL   C52227840   2.481   6.666   2.659 -0.0521  0.3622 -0.8321
   30MOL   C52327841   2.433   6.560   2.754  0.0465  0.5200 -0.3395
   30MOL   C52427842   2.327   6.618   2.844 -0.3329  0.3048  0.3056
   30MOL   C52527843   2.291   6.523   2.961 -0.0631 -0.2470 -0.6297
   30MOL   C52627844   2.166   6.574   3.036 -0.7037 -0.2272 -0.2467
   30MOL   C52727845   2.119   6.494   3.152  0.0841 -0.6443  0.1445
   30MOL   C52827846   2.176   6.539   3.285  0.2712  0.2337  0.2525
   30MOL   C52927847   2.114   6.479   3.417  0.7244  0.4602 -0.5943
   30MOL   O53027848   2.164   6.542   3.531 -0.1525  0.3804  0.1173
   30MOL   C53127849   2.134   6.494   3.649 -1.2894 -0.4065  0.7750
   30MOL   O53227850   2.053   6.403   3.669  0.1767  0.2990  0.5008
   30MOL   C53327851   2.217   6.557   3.751 -0.3556  0.1092 -0.6198
   30MOL   C53427852   2.205   6.525   3.891  0.1364  0.1419 -0.5076
   30MOL   C53527853   2.295   6.570   3.994 -0.0604 -0.2493  0.4517
   30MOL   C53627854   2.391   6.662   3.958  0.7257  0.3920 -0.2697
   30MOL   C53727855   2.474   6.706   4.072  0.0978 -0.8690  0.1925
   30MOL   O53827856   2.454   6.665   4.189  0.0661 -0.4129  0.5380
   30MOL   O53927857   2.566   6.811   4.042  0.2014  0.4963 -0.5382
   30MOL   C54027858   2.415   6.689   3.820  0.4530  0.5618  0.3537
   30MOL   C54127859   2.327   6.641   3.723  0.0581 -0.1620 -0.1722
   30MOL   H54227860   2.702   6.787   2.545 -2.4108  1.3828 -0.2146
   30MOL   H54327861   2.574   6.778   2.428 -0.7008  0.6076  0.9457
   30MOL   H54427862   2.669   6.576   2.644 -0.0116 -0.6955  0.0646
   30MOL   H54527863   2.569   6.530   2.500  0.0142  0.3926 -0.9186
   30MOL   H54627864   2.520   6.752   2.713 -1.7401  0.8650 -0.4008
   30MOL   H54727865   2.397   6.705   2.602  1.1077 -0.5692 -3.2175
   30MOL   H54827866   2.522   6.533   2.810  0.3605 -0.0611 -1.1017
   30MOL   H54927867   2.401   6.469   2.703  1.4389  0.8049 -1.7857
   30MOL   H55027868   2.371   6.711   2.880  3.0781 -0.5275 -1.4845
   30MOL   H55127869   2.244   6.626   2.774  2.3522  0.4015 -3.0012
   30MOL   H55227870   2.260   6.428   2.918 -0.8670 -1.3021  2.1230
   30MOL   H55327871   2.374   6.509   3.029  0.2870  1.5847 -0.6671
   30MOL   H55427872   2.195   6.677   3.058 -1.2947  0.0658 -0.8351
   30MOL   H55527873   2.081   6.584   2.969  0.6239 -2.0206 -2.2565
   30MOL   H55627874   2.010   6.493   3.148  0.0763 -0.4700  0.3148
   30MOL   H55727875   2.140   6.388   3.136  0.7377 -0.7218  1.4757
   30MOL   H55827876   2.162   6.646   3.296 -0.6837  0.0559  0.8368
   30MOL   H55927877   2.282   6.511   3.289 -0.1680 -1.6820 -0.8989
   30MOL   H56027878   2.124   6.371   3.410  2.5614  0.5498  0.2120
   30MOL   H56127879   2.009   6.495   3.397  1.3116  3.5456 -1.4287
   30MOL   H56227880   2.130   6.458   3.929 -0.4254 -0.0731 -1.9416
   30MOL   H56327881   2.271   6.549   4.097  1.2909 -1.1195  0.5844
   30MOL   H56427882   2.492   6.754   3.783  0.2513  0.9818  0.6564
   30MOL   H56527883   2.353   6.665   3.621 -0.5283 -0.2968 -0.3542
   30MOL   O56627884   2.633   6.869   4.166  0.4368 -0.4119 -0.0378
   30MOL   C56727885   2.773   6.830   4.175  0.2135  0.1373 -0.3227
   30MOL   C56827886   2.843   6.935   4.254  0.0932 -0.2644  0.5107
   30MOL   C56927887   2.998   6.934   4.251 -0.4083 -0.7222 -0.6645
   30MOL   C57027888   3.065   7.075   4.236 -0.2423 -0.0144 -0.1842
   30MOL   C57127889   3.067   7.134   4.096 -0.4843 -0.0130  0.2979
   30MOL   C57227890   3.109   7.279   4.092 -0.7359  1.1713  0.3954
   30MOL   C57327891   3.125   7.325   3.939 -0.1499 -0.4626  0.1070
   30MOL   C57427892   3.182   7.463   3.916 -0.0852 -0.3386  0.1900
   30MOL   C57527893   3.221   7.489   3.765  0.4807 -0.2066  0.1061
   30MOL   C57627894   3.228   7.638   3.746  0.4385 -1.0136 -0.5571
   30MOL   O57727895   3.340   7.668   3.655 -0.1254  0.4022 -0.1746
   30MOL   C57827896   3.326   7.774   3.571  0.1149  0.2806  0.0640
   30MOL   O57927897   3.230   7.853   3.564 -0.1882 -0.1571 -0.5092
   30MOL   C58027898   3.444   7.784   3.483  0.4509 -0.0291 -0.7130
   30MOL   C58127899   3.561   7.704   3.500  0.1274 -0.5141 -0.0501
   30MOL   C58227900   3.667   7.713   3.407  0.2908  0.5326  0.3468
   30MOL   C58327901   3.660   7.806   3.298 -0.5564  0.5600 -0.4031
   30MOL   C58427902   3.777   7.817   3.208 -0.7167 -0.2148 -0.3316
   30MOL   O58527903   3.883   7.755   3.220 -0.5929 -0.5437 -0.3409
   30MOL   O58627904   3.752   7.900   3.107 -0.1969 -0.5193 -0.3693
   30MOL   C58727905   3.548   7.893   3.287  0.7643  0.6435 -0.2074
   30MOL   C58827906   3.438   7.870   3.371  0.3181 -0.1923 -0.5587
   30MOL   H58927907   2.769   6.731   4.221  1.7484 -0.0580 -0.5693
   30MOL   H59027908   2.810   6.831   4.072  0.0219  0.3992 -0.3874
   30MOL   H59127909   2.797   6.932   4.353 -0.4641 -0.1872  0.2540
   30MOL   H59227910   2.808   7.030   4.214 -0.4642 -0.5972  0.2134
   30MOL   H59327911   3.028   6.888   4.345 -1.5696 -1.8040 -0.7991
   30MOL   H59427912   3.036   6.872   4.170  1.3822  0.0902 -0.4498
   30MOL   H59527913   3.172   7.064   4.258 -0.5335 -0.0711  1.2416
   30MOL   H59627914   3.016   7.143   4.306  0.8428  1.2716 -0.6505
   30MOL   H59727915   3.122   7.066   4.032  1.7600  0.9568  1.1607
   30MOL   H59827916   2.966   7.125   4.054 -0.6481 -2.8150  1.1846
   30MOL   H59927917   3.040   7.343   4.147 -0.0999  0.9587  1.4567
   30MOL   H60027918   3.212   7.290   4.126 -0.1411  1.1515 -1.3247
   30MOL   H60127919   3.199   7.253   3.904  0.8735  0.0892  1.1016
   30MOL   H60227920   3.026   7.324   3.895  0.3184  1.7667 -1.1162
   30MOL   H60327921   3.114   7.531   3.966  0.1431 -0.3078  0.4598
   30MOL   H60427922   3.264   7.473   3.987 -1.0024  0.4908  1.1425
   30MOL   H60527923   3.167   7.433   3.689  2.3560  0.4042 -1.7159
   30MOL   H60627924   3.322   7.447   3.763  1.4246  2.0318 -3.0200
   30MOL   H60727925   3.268   7.676   3.840  2.6128 -0.9433 -1.4920
   30MOL   H60827926   3.133   7.688   3.728  0.4758  0.1275  2.1756
   30MOL   H60927927   3.576   7.641   3.587 -1.7801 -1.8677 -0.6552
   30MOL   H61027928   3.755   7.651   3.414 -1.5579 -1.9994  2.0909
   30MOL   H61127929   3.548   7.968   3.208 -0.5013  2.0478  1.1047
   30MOL   H61227930   3.354   7.937   3.361  0.0299 -0.6199 -1.0457
   30MOL   O61327931   3.867   7.927   3.017  0.5316 -0.5530 -0.6712
   30MOL   C61427932   3.873   7.834   2.911  0.2513  0.2061 -0.4863
   30MOL   C61527933   3.759   7.839   2.814  0.8164 -0.4918  0.0883
   30MOL   C61627934   3.777   7.953   2.700 -0.1480 -0.0798 -0.3358
   30MOL   C61727935   3.639   0.002   2.638 -0.3001 -0.5525  0.1833
   30MOL   C61827936   3.644   0.136   2.578 -0.3013 -0.1604  0.6400
   30MOL   C61927937   3.506   0.152   2.503 -0.2832  0.1756 -0.3829
   30MOL   C62027938   3.486   0.287   2.440 -0.1608 -0.2164 -0.7326
   30MOL   C62127939   3.444   0.399   2.536 -0.5164  0.3421 -0.4538
   30MOL   C62227940   3.410   0.537   2.467 -0.4682 -0.1379 -0.2454
   30MOL   C62327941   3.343   0.625   2.575 -0.0103 -0.1856  0.5790
   30MOL   O62427942   3.447   0.668   2.658  0.3401 -0.0046 -0.1685
   30MOL   C62527943   3.432   0.673   2.791  0.1923 -0.0407  0.3125
   30MOL   O62627944   3.327   0.645   2.849 -0.0506  0.0250  0.5132
   30MOL   C62727945   3.560   0.712   2.852  0.5570 -0.6096  0.0175
   30MOL   C62827946   3.561   0.733   2.994 -0.0941 -0.8778 -0.2875
   30MOL   C62927947   3.682   0.770   3.059  0.3013 -0.2055  0.0692
   30MOL   C63027948   3.805   0.779   2.985  0.2245 -0.5471 -0.5685
   30MOL   C63127949   3.937   0.811   3.054  0.3366  0.1115  0.1309
   30MOL   O63227950   4.046   0.799   2.999  0.1347 -0.5092  0.0705
   30MOL   O63327951   3.916   0.861   3.181  0.2122  0.2128 -0.4014
   30MOL   C63427952   3.800   0.757   2.845 -0.6247 -0.0551  0.2677
   30MOL   C63527953   3.684   0.721   2.780  0.2072  0.4681 -0.3441
   30MOL   H63627954   3.961   7.859   2.852  1.8469 -0.2281  1.6641
   30MOL   H63727955   3.891   7.733   2.948  0.5866  0.4452  0.0124
   30MOL   H63827956   3.675   7.860   2.881 -0.3646 -0.2913 -1.4446
   30MOL   H63927957   3.743   7.742   2.766 -2.2014 -0.6374  1.2552
   30MOL   H64027958   3.813   0.062   2.753 -0.5774 -0.5762  0.7894
   30MOL   H64127959   3.851   7.924   2.625 -0.2044 -0.5835 -0.1986
   30MOL   H64227960   3.568   0.006   2.720  0.8062  1.9438  1.0557
   30MOL   H64327961   3.607   7.905   2.566 -0.1807  0.9101 -1.4442
   30MOL   H64427962   3.652   0.223   2.643  0.6260 -0.0478  0.3819
   30MOL   H64527963   3.725   0.151   2.506  0.4079 -2.3995  0.9475
   30MOL   H64627964   3.511   0.079   2.423  2.5712 -2.6384  2.2639
   30MOL   H64727965   3.435   0.115   2.577  0.1299 -1.0097 -0.5841
   30MOL   H64827966   3.582   0.317   2.397 -0.9733  1.1218 -1.6968
   30MOL   H64927967   3.416   0.287   2.357 -1.9075 -0.4504  0.7253
   30MOL   H65027968   3.358   0.368   2.595 -0.7739 -0.1269 -1.0799
   30MOL   H65127969   3.523   0.413   2.611  0.0728 -0.9618 -0.8202
   30MOL   H65227970   3.338   0.533   2.385 -0.8945  2.1474 -0.0256
   30MOL   H65327971   3.505   0.574   2.428  0.0303 -0.0593  1.0361
   30MOL   H65427972   3.266   0.559   2.615 -0.2604 -0.1128  0.2173
   30MOL   H65527973   3.280   0.701   2.529 -0.0617 -0.5624  0.0258
   30MOL   H65627974   3.479   0.725   3.064 -1.8748  0.8641 -2.1044
   30MOL   H65727975   3.684   0.791   3.165  0.5767  2.5716 -0.4562
   30MOL   H65827976   3.888   0.766   2.784 -0.3640 -3.7649 -0.0404
   30MOL   H65927977   3.671   0.708   2.674 -4.6112  0.2061  0.1305
   30MOL   O66027978   4.050   0.871   3.259  0.4544 -0.1069 -0.4420
   30MOL   C66127979   4.064   0.758   3.341  0.2293  0.2083  0.2007
   30MOL   C66227980   4.212   0.760   3.379 -0.1430  0.7225 -0.3473
   30MOL   C66327981   4.277   0.886   3.427  0.8747 -0.8681  0.3387
   30MOL   C66427982   4.409   0.856   3.503 -0.3478 -0.2767  0.0116
   30MOL   C66527983   4.484   0.986   3.537  0.1235  0.6674  0.1096
   30MOL   C66627984   4.633   0.973   3.580 -0.1448 -0.4736 -0.0997
   30MOL   C66727985   4.705   1.111   3.550 -0.7455 -0.2552 -0.1465
   30MOL   C66827986   4.666   1.222   3.659 -0.8903  0.2404  0.0550
   30MOL   C66927987   4.738   1.352   3.634 -0.1199 -0.6218  0.0895
   30MOL   C67027988   4.729   1.453   3.755  0.1475 -0.0745  0.4439
   30MOL   O67127989   4.599   1.512   3.766  0.0170  0.3904 -0.4738
   30MOL   C67227990   4.573   1.626   3.818 -1.2034  0.3962 -0.5779
   30MOL   O67327991   4.661   1.701   3.856 -0.3825  0.6052  1.1037
   30MOL   C67427992   4.423   1.654   3.834  0.3409  1.0694 -0.3088
   30MOL   C67527993   4.390   1.766   3.911  0.1188  0.0419 -0.2347
   30MOL   C67627994   4.256   1.798   3.943  0.3600 -0.2047  0.4070
   30MOL   C67727995   4.152   1.704   3.911 -0.0012 -0.2386  0.9429
   30MOL   C67827996   4.009   1.735   3.946 -0.8272  0.1980 -0.3585
   30MOL   O67927997   3.974   1.841   4.004  0.1824  0.1047 -0.1642
   30MOL   O68027998   3.928   1.641   3.900 -0.3728 -0.8213  0.3769
   30MOL   C68127999   4.181   1.592   3.828 -0.9856  0.6594 -0.2514
   30MOL   C68228000   4.322   1.569   3.793  0.0231  0.0601  0.2680
   30MOL   H68328001   3.997   0.775   3.425 -0.6469  3.3902 -1.0906
   30MOL   H68428002   4.040   0.667   3.285 -0.4770  0.9552 -0.7409
   30MOL   H68528003   4.268   0.736   3.289 -0.3190 -3.4025  0.5504
   30MOL   H68628004   4.243   0.684   3.450  0.6269  1.2383 -0.1242
   30MOL   H68728005   4.290   0.952   3.342 -0.5085 -1.3243 -0.2390
   30MOL   H68828006   4.203   0.941   3.486  0.2627 -1.6251  0.2766
   30MOL   H68928007   4.476   0.791   3.447 -0.2926 -1.3545  1.3172
   30MOL   H69028008   4.389   0.811   3.600  0.7290  2.7658  1.6968
   30MOL   H69128009   4.480   1.041   3.443 -2.1420  3.4601  1.7536
   30MOL   H69228010   4.414   1.039   3.602 -1.3652  1.2361 -1.9234
   30MOL   H69328011   4.664   0.924   3.673 -1.0187  3.4531  2.3833
   30MOL   H69428012   4.675   0.896   3.515  1.7214 -0.1096  0.6359
   30MOL   H69528013   4.811   1.096   3.533 -0.4489 -2.6871  3.3946
   30MOL   H69628014   4.672   1.145   3.451  0.6259 -2.0267 -1.2439
   30MOL   H69728015   4.558   1.241   3.657 -1.1041 -1.0562 -1.2026
   30MOL   H69828016   4.691   1.189   3.760 -1.9328  0.7182  0.4785
   30MOL   H69928017   4.712   1.403   3.541 -0.4922 -0.0771  0.4863
   30MOL   H70028018   4.841   1.320   3.619  0.6665 -0.6602  4.8303
   30MOL   H70128019   4.802   1.530   3.729 -0.5556  0.3597 -0.2792
   30MOL   H70228020   4.756   1.389   3.839 -3.2562  1.9765  3.3093
   30MOL   H70328021   4.471   1.829   3.943  1.1519 -1.2375 -0.2883
   30MOL   H70428022   4.234   1.874   4.016 -1.4120 -1.0278  0.7632
   30MOL   H70528023   4.109   1.517   3.800  1.0109 -0.7110 -1.8649
   30MOL   H70628024   4.355   1.480   3.741 -0.5969  0.8771 -1.5771
   30MOL   O70728025   3.776   1.662   3.931  0.2506 -0.3422  0.9136
   30MOL   C70828026   3.719   1.704   3.806  0.4460 -0.0071 -0.2362
   30MOL   C70928027   3.575   1.687   3.831 -0.0603  0.1690  0.0885
   30MOL   C71028028   3.502   1.738   3.702  0.1369  0.3601  0.1365
   30MOL   C71128029   3.359   1.689   3.715  0.2761  0.2321  0.0397
   30MOL   C71228030   3.276   1.751   3.604 -0.8851  0.0698  0.1226
   30MOL   C71328031   3.141   1.687   3.608 -0.3885 -0.0292  0.2570
   30MOL   C71428032   3.047   1.758   3.514  0.4212  0.4322  0.3333
   30MOL   C71528033   2.905   1.701   3.531  0.0281  0.1109  0.3188
   30MOL   C71628034   2.800   1.796   3.469  0.0628  0.2864 -0.4466
   30MOL   C71728035   2.658   1.739   3.497 -0.3494  0.3322 -0.1643
   30MOL   O71828036   2.580   1.803   3.404  0.1586  0.3077 -0.4471
   30MOL   C71928037   2.441   1.778   3.395  0.3165  0.3864 -0.3571
   30MOL   O72028038   2.385   1.695   3.468 -0.4195 -0.5947 -0.1913
   30MOL   C72128039   2.372   1.878   3.306  0.3472  0.4327  0.1498
   30MOL   C72228040   2.437   1.969   3.221  0.0318 -0.0522 -0.6992
   30MOL   C72328041   2.369   2.068   3.142 -0.2946 -0.2932 -0.4010
   30MOL   C72428042   2.225   2.070   3.143  0.1949  0.6068 -0.0839
   30MOL   C72528043   2.146   2.157   3.055  0.7210 -0.3667  0.7476
   30MOL   O72628044   2.025   2.142   3.021 -0.2580  0.5401 -0.4683
   30MOL   O72728045   2.220   2.256   3.006  0.1468  0.1896 -0.2806
   30MOL   C72828046   2.161   1.979   3.226  0.3485  0.1180  0.3520
   30MOL   C72928047   2.232   1.891   3.312 -0.2914  0.1713  0.6886
   30MOL   H73028048   3.740   1.810   3.796 -3.3641  0.9518  1.1153
   30MOL   H73128049   3.763   1.652   3.721 -1.2167  0.3579 -1.3487
   30MOL   H73228050   3.540   1.736   3.921  1.7676  0.8530  0.4467
   30MOL   H73328051   3.561   1.581   3.851 -0.7564  0.0031 -1.2309
   30MOL   H73428052   3.537   1.841   3.699  1.0328  0.0508 -0.1091
   30MOL   H73528053   3.547   1.691   3.615  0.8386 -0.9645  1.1998
   30MOL   H73628054   3.317   1.708   3.814  0.5059 -1.7284  0.5201
   30MOL   H73728055   3.361   1.581   3.703  0.1629  0.0130  1.9473
   30MOL   H73828056   3.264   1.859   3.610 -2.9583 -0.1275 -0.1373
   30MOL   H73928057   3.316   1.721   3.506 -0.1760 -1.4444  0.8550
   30MOL   H74028058   3.145   1.580   3.588 -1.0226  0.4524 -2.5219
   30MOL   H74128059   3.104   1.693   3.710 -1.0897  0.2602 -0.0166
   30MOL   H74228060   3.037   1.864   3.535  0.3362  0.8623 -1.7582
   30MOL   H74328061   3.074   1.743   3.409 -0.8109  1.5890 -0.1627
   30MOL   H74428062   2.892   1.595   3.506  0.6460  0.1480 -0.1657
   30MOL   H74528063   2.884   1.699   3.638  0.1517 -0.2324  0.3385
   30MOL   H74628064   2.818   1.794   3.362  0.2285  1.5190 -0.4471
   30MOL   H74728065   2.805   1.903   3.488  0.2207  1.0027 -4.1067
   30MOL   H74828066   2.634   1.744   3.604 -0.1221  2.4069 -0.1794
   30MOL   H74928067   2.648   1.634   3.471  2.6474 -0.7298  2.6641
   30MOL   H75028068   2.545   1.966   3.209 -0.0544 -0.5304 -1.3992
   30MOL   H75128069   2.430   2.130   3.079 -3.6090 -0.0935 -3.6160
   30MOL   H75228070   2.054   1.960   3.229  0.6763 -1.6262  2.3132
   30MOL   H75328071   2.171   1.824   3.371 -0.4940 -0.2924 -0.0466
   30MOL   O75428072   2.145   2.346   2.902  0.2064 -0.3075 -0.9299
   30MOL   C75528073   2.161   2.296   2.771  0.0767  0.3704  0.1983
   30MOL   C75628074   2.109   2.406   2.681 -0.1422 -0.2431  0.1748
   30MOL   C75728075   1.954   2.422   2.677 -0.1098 -0.6562  0.5200
   30MOL   C75828076   1.893   2.489   2.554  0.3759  0.0998  0.3155
   30MOL   C75928077   1.737   2.505   2.545  0.9186 -0.3990 -0.1514
   30MOL   C76028078   1.670   2.588   2.652 -0.0221  0.6806 -0.0590
   30MOL   C76128079   1.689   2.740   2.643 -0.1671  0.2650  0.8080
   30MOL   C76228080   1.605   2.818   2.747 -0.2542 -0.0305  0.5880
   30MOL   C76328081   1.651   2.965   2.757 -0.2169  0.4953  0.2823
   30MOL   C76428082   1.564   3.047   2.855  0.4017 -0.6915 -0.6550
   30MOL   O76528083   1.621   3.175   2.859 -0.1413 -0.5110 -0.1380
   30MOL   C76628084   1.551   3.277   2.919 -0.5534 -0.2660  0.1868
   30MOL   O76728085   1.439   3.265   2.976 -0.4309  0.0426  0.0076
   30MOL   C76828086   1.617   3.415   2.896 -0.0386 -0.3328  0.8336
   30MOL   C76928087   1.743   3.435   2.840  0.3394 -0.3623  0.0458
   30MOL   C77028088   1.799   3.560   2.846 -0.1065  0.0016  0.9491
   30MOL   C77128089   1.747   3.671   2.912  0.4127 -0.2200  0.1793
   30MOL   C77228090   1.818   3.794   2.941 -0.4085  0.0918 -0.2719
   30MOL   O77328091   1.771   3.885   3.012 -0.1130 -0.0106  0.7383
   30MOL   O77428092   1.936   3.800   2.885 -0.2824 -0.0092  0.2412
   30MOL   C77528093   1.618   3.653   2.964  0.5094  0.1027 -0.4327
   30MOL   C77628094   1.557   3.528   2.950  0.4146  0.3501 -0.1118
   30MOL   H77728095   2.267   2.275   2.759  0.6874  3.0338  0.7721
   30MOL   H77828096   2.125   2.195   2.751  1.2500  0.2779 -1.5142
   30MOL   H77928097   2.153   2.389   2.582 -0.5709  4.0796 -0.8776
   30MOL   H78028098   2.142   2.502   2.721  1.8169  0.2307 -2.4199
   30MOL   H78128099   1.904   2.326   2.694 -1.5444 -0.5529 -2.7965
   30MOL   H78228100   1.921   2.484   2.760  1.3205  0.3125  0.3958
   30MOL   H78328101   1.934   2.432   2.471 -1.2268 -1.1832  0.3898
   30MOL   H78428102   1.932   2.591   2.550 -1.0854  0.6939  0.5651
   30MOL   H78528103   1.714   2.548   2.448  1.9197 -0.2465 -0.3267
   30MOL   H78628104   1.696   2.405   2.531 -0.7815  0.3394 -0.4994
   30MOL   H78728105   1.568   2.553   2.637  0.4196 -0.4927 -0.3613
   30MOL   H78828106   1.692   2.553   2.753  0.5340  2.1261  0.3367
   30MOL   H78928107   1.793   2.757   2.672  0.7827  0.1441 -2.3517
   30MOL   H79028108   1.671   2.780   2.543  0.1413  2.0206  1.4321
   30MOL   H79128109   1.503   2.814   2.708  0.8840 -1.3217 -2.3770
   30MOL   H79228110   1.614   2.777   2.848  2.2551  0.9656  0.8034
   30MOL   H79328111   1.646   3.019   2.662 -1.8605  0.2880  0.2378
   30MOL   H79428112   1.756   2.969   2.785  0.3128  0.2190 -1.6513
   30MOL   H79528113   1.562   3.001   2.954  1.3882 -0.9094 -0.7228
   30MOL   H79628114   1.465   3.060   2.814  0.1229 -1.9620 -0.4066
   30MOL   H79728115   1.800   3.352   2.800 -1.1282 -2.0977  1.4635
   30MOL   H79828116   1.896   3.577   2.802  0.3534  0.0052  1.9441
   30MOL   H79928117   1.559   3.730   3.013 -0.9742 -1.8145  0.8593
   30MOL   H80028118   1.462   3.514   3.001  0.2822 -0.6485 -0.6417
   30MOL   O80128119   2.029   3.907   2.928  0.4033  0.1411  0.3336
   30MOL   C80228120   2.122   3.843   3.004 -0.1066  0.4635  0.4676
   30MOL   C80328121   2.206   3.737   2.926  0.1577 -0.3509 -0.2383
   30MOL   C80428122   2.301   3.653   3.017 -0.6642 -0.1701 -0.5561
   30MOL   C80528123   2.399   3.750   3.088 -0.8386 -1.0409 -0.3596
   30MOL   C80628124   2.500   3.686   3.181 -0.4423 -0.0736  0.1652
   30MOL   C80728125   2.628   3.644   3.126 -0.0964 -0.2349 -0.0071
   30MOL   C80828126   2.725   3.615   3.236  0.3268 -0.5466  0.0492
   30MOL   C80928127   2.855   3.566   3.175  0.3803 -0.6547  0.2107
   30MOL   C81028128   2.972   3.525   3.266 -0.7298  0.2666  0.2765
   30MOL   C81128129   3.089   3.464   3.186  0.1425  0.2782 -0.3194
   30MOL   O81228130   3.152   3.580   3.119 -0.4650 -0.1358  0.1027
   30MOL   C81328131   3.150   3.593   2.988  0.1574  0.4134  0.2899
   30MOL   O81428132   3.093   3.511   2.913  0.0687 -0.4017  0.0418
   30MOL   C81528133   3.245   3.704   2.952  0.3492 -0.4509  0.1768
   30MOL   C81628134   3.306   3.697   2.826 -0.4150  0.4285  0.8959
   30MOL   C81728135   3.412   3.786   2.790 -0.1745 -0.5661  0.1872
   30MOL   C81828136   3.439   3.896   2.875  0.1363  0.4933  0.0475
   30MOL   C81928137   3.532   4.008   2.838  0.5135  0.5721 -0.1290
   30MOL   O82028138   3.583   4.017   2.724 -0.2796 -0.2739  0.4204
   30MOL   O82128139   3.559   4.089   2.936 -0.5179 -0.5605 -0.9030
   30MOL   C82228140   3.375   3.907   2.999  0.2821 -0.3515  0.2046
   30MOL   C82328141   3.283   3.808   3.042 -0.1092  0.2456  0.0281
   30MOL   H82428142   2.187   3.921   3.043  1.9549 -1.4864  1.0617
   30MOL   H82528143   2.086   3.796   3.096 -1.8323  0.3284 -0.2562
   30MOL   H82628144   2.274   3.783   2.854  2.6057  0.3533  2.4258
   30MOL   H82728145   2.140   3.665   2.876  0.7421 -0.6395 -0.6098
   30MOL   H82828146   2.246   3.612   3.102  0.6075 -0.8988 -0.0691
   30MOL   H82928147   2.361   3.582   2.962  0.5311  0.7388 -0.4431
   30MOL   H83028148   2.350   3.818   3.157  0.7987  1.1737 -1.3272
   30MOL   H83128149   2.443   3.827   3.025  2.2093 -0.9116  1.8406
   30MOL   H83228150   2.525   3.757   3.260  1.3189  0.6340 -1.0155
   30MOL   H83328151   2.460   3.599   3.234 -0.8039 -1.8578 -2.9554
   30MOL   H83428152   2.632   3.562   3.054 -0.1947  0.0618 -0.3558
   30MOL   H83528153   2.659   3.742   3.090 -1.0744 -0.1463 -0.6157
   30MOL   H83628154   2.732   3.709   3.290 -1.5920 -1.0166  1.1444
   30MOL   H83728155   2.680   3.549   3.310  0.3923  0.5312  1.0657
   30MOL   H83828156   2.827   3.480   3.115 -2.4458  1.4869 -1.6671
   30MOL   H83928157   2.899   3.636   3.104 -2.2221  0.4658 -0.3382
   30MOL   H84028158   2.942   3.439   3.327 -0.4181 -2.3771 -3.1473
   30MOL   H84128159   2.999   3.597   3.344  2.4211 -0.7586  0.1888
   30MOL   H84228160   3.051   3.389   3.116  1.3255  0.1781 -0.8711
   30MOL   H84328161   3.152   3.410   3.257 -0.8946  1.3858  1.4913
   30MOL   H84428162   3.300   3.610   2.763 -1.0015 -0.4682  2.1681
   30MOL   H84528163   3.469   3.790   2.699 -1.5267  1.8195 -0.6078
   30MOL   H84628164   3.386   3.994   3.063 -2.3480  0.7642 -0.7708
   30MOL   H84728165   3.238   3.809   3.140 -1.6544  1.3059 -0.6586
   30MOL   O84828166   3.657   4.205   2.901 -0.4365  0.3180 -0.5504
   30MOL   C84928167   3.799   4.173   2.926 -0.8331 -0.0510 -0.6768
   30MOL   C85028168   3.876   4.309   2.970  0.5275 -0.4695  0.0408
   30MOL   C85128169   3.891   4.401   2.850 -0.0704 -0.1494  0.3005
   30MOL   C85228170   3.982   4.523   2.896 -0.0141  0.2433 -0.0208
   30MOL   C85328171   3.944   4.599   3.021 -0.7410  0.0547 -0.4021
   30MOL   C85428172   3.804   4.650   3.023 -0.3188  0.5815  0.3063
   30MOL   C85528173   3.775   4.723   3.152  0.6911  0.3203  0.0911
   30MOL   C85628174   3.639   4.793   3.177 -0.0911  0.3290 -0.3512
   30MOL   C85728175   3.529   4.685   3.174  0.5625 -0.1868 -0.0963
   30MOL   C85828176   3.379   4.732   3.183 -0.2232  0.7817  0.3234
   30MOL   O85928177   3.353   4.814   3.301 -0.2712  0.2106  0.1595
   30MOL   C86028178   3.301   4.744   3.407  0.2016 -0.5267 -0.5148
   30MOL   O86128179   3.281   4.624   3.417  0.1546 -0.3507 -0.3429
   30MOL   C86228180   3.271   4.831   3.528 -0.1678  0.0181  0.0020
   30MOL   C86328181   3.269   4.779   3.659  0.0201 -0.0890 -0.3050
   30MOL   C86428182   3.259   4.866   3.767 -0.8396  0.6526  0.4685
   30MOL   C86528183   3.247   5.007   3.749 -0.1131 -0.0863  0.3114
   30MOL   C86628184   3.224   5.092   3.868 -0.1996  0.1712  0.3299
   30MOL   O86728185   3.240   5.046   3.979 -0.6311  0.4055 -0.0302
   30MOL   O86828186   3.204   5.221   3.836  0.7468  0.0869 -0.4790
   30MOL   C86928187   3.247   5.056   3.615  0.2447 -0.0018  0.0413
   30MOL   C87028188   3.260   4.970   3.509  0.3290  0.2230  0.0208
   30MOL   H87128189   3.806   4.098   3.005 -1.2317 -0.8190 -1.3662
   30MOL   H87228190   3.843   4.132   2.835  3.0601  0.9237  0.6748
   30MOL   H87328191   3.972   4.278   3.011 -0.9224 -0.7266  3.4806
   30MOL   H87428192   3.814   4.357   3.046  0.3381 -1.9643  0.8544
   30MOL   H87528193   3.951   4.354   2.773  2.2748  0.4674  1.7016
   30MOL   H87628194   3.792   4.426   2.811  0.3342  0.4552 -0.3476
   30MOL   H87728195   4.002   4.583   2.807  0.2621 -0.2336 -0.2826
   30MOL   H87828196   4.072   4.469   2.925  0.4874  1.1261  0.0555
   30MOL   H87928197   3.940   4.527   3.102 -1.3423  1.2054  0.6125
   30MOL   H88028198   4.019   4.677   3.034  0.0008 -0.8453  0.7816
   30MOL   H88128199   3.789   4.712   2.935  0.5487  1.3146  0.6629
   30MOL   H88228200   3.727   4.574   3.010  0.2826 -0.1205  0.8049
   30MOL   H88328201   3.780   4.645   3.228  3.2977  0.4715  0.1249
   30MOL   H88428202   3.863   4.779   3.184  0.8999  1.4391 -2.3891
   30MOL   H88528203   3.636   4.861   3.262 -1.8491  0.8183 -0.7914
   30MOL   H88628204   3.622   4.864   3.097 -1.3011  0.6696  0.2038
   30MOL   H88728205   3.543   4.626   3.265  1.5036  0.9163  0.4853
   30MOL   H88828206   3.528   4.624   3.083  1.5528 -0.1879 -0.1083
   30MOL   H88928207   3.302   4.657   3.171 -2.6363  3.3089 -0.4585
   30MOL   H89028208   3.365   4.786   3.089  0.5002 -1.3136 -1.0274
   30MOL   H89128209   3.287   4.675   3.682 -2.5315 -0.6200 -0.5856
   30MOL   H89228210   3.258   4.833   3.870 -0.0739 -0.6665  0.0632
   30MOL   H89328211   3.245   5.161   3.593  1.4657  0.6723  2.9204
   30MOL   H89428212   3.270   5.016   3.411 -0.4048 -1.0346 -0.6650
   30MOL   O89528213   3.169   5.314   3.954 -0.2180  0.6784  0.2190
   30MOL   C89628214   3.058   5.396   3.927 -1.3523 -0.0256 -0.2651
   30MOL   C89728215   3.087   5.490   3.804 -0.2277  0.3836 -0.3298
   30MOL   C89828216   2.982   5.606   3.819 -0.4276  0.3720  0.6447
   30MOL   C89928217   2.968   5.692   3.687 -0.1033  0.3046 -0.2187
   30MOL   C90028218   2.879   5.821   3.715 -0.4362  0.0519 -0.1078
   30MOL   C90128219   2.933   5.925   3.820  0.3470 -0.8207 -0.0416
   30MOL   C90228220   2.858   6.055   3.825  0.2829  0.0161 -0.1352
   30MOL   C90328221   2.904   6.165   3.922 -0.7636  0.0089  0.0536
   30MOL   C90428222   3.039   6.233   3.886  0.4741  0.1239 -0.1152
   30MOL   C90528223   3.061   6.360   3.968  0.0084 -0.2489 -0.1668
   30MOL   O90628224   3.180   6.423   3.930 -0.1495  0.5417  0.0339
   30MOL   C90728225   3.198   6.552   3.966 -0.1817 -0.3065 -0.0240
   30MOL   O90828226   3.120   6.622   4.030  0.0131 -0.4328  0.2354
   30MOL   C90928227   3.326   6.608   3.918  0.1852  0.3559 -0.0825
   30MOL   C91028228   3.329   6.749   3.899 -0.4609 -0.2245 -0.1482
   30MOL   C91128229   3.448   6.811   3.866  0.2214 -0.5084 -0.5040
   30MOL   C91228230   3.569   6.733   3.851 -0.7729 -0.1801  0.3609
   30MOL   C91328231   3.696   6.815   3.835 -0.3128 -0.1611 -0.1751
   30MOL   O91428232   3.808   6.762   3.855  0.4660  0.9419  0.4438
   30MOL   O91528233   3.678   6.939   3.785  0.2557 -0.5681 -0.2460
   30MOL   C91628234   3.572   6.595   3.860  0.6567  0.4739 -0.1366
   30MOL   C91728235   3.448   6.534   3.884  0.5135 -0.1311  0.2803
   30MOL   H91828236   2.977   5.327   3.902  1.5904 -2.7972 -2.5794
   30MOL   H91928237   3.036   5.450   4.019  2.1634  1.7930 -0.4099
   30MOL   H92028238   3.091   5.443   3.706 -0.5756  0.4493 -0.3755
   30MOL   H92128239   3.181   5.539   3.830 -0.5030  0.1347  1.1496
   30MOL   H92228240   2.880   5.573   3.838 -0.9001  0.8950 -0.8640
   30MOL   H92328241   3.006   5.675   3.900 -1.2478  0.4181  0.8462
   30MOL   H92428242   2.916   5.646   3.602 -2.3651  2.3330  0.0030
   30MOL   H92528243   3.068   5.726   3.661  0.6870 -1.9663 -0.3023
   30MOL   H92628244   2.865   5.860   3.614 -1.5905 -0.2442 -0.0682
   30MOL   H92728245   2.779   5.795   3.749  0.3513 -0.6845  1.6779
   30MOL   H92828246   2.939   5.892   3.924  2.1854 -1.4365 -0.3217
   30MOL   H92928247   3.035   5.945   3.786  0.8549 -2.5994  0.3537
   30MOL   H93028248   2.842   6.084   3.721 -1.4767  1.8453  0.6218
   30MOL   H93128249   2.758   6.035   3.864 -0.5901  1.3590 -1.6427
   30MOL   H93228250   2.828   6.243   3.921 -2.6492 -1.7562 -2.4872
   30MOL   H93328251   2.895   6.124   4.022  0.4795 -0.9013 -0.1903
   30MOL   H93428252   3.028   6.258   3.781 -1.5772 -1.6521 -0.3449
   30MOL   H93528253   3.123   6.165   3.899  1.9258  1.9520  0.3206
   30MOL   H93628254   3.075   6.312   4.065 -0.9819 -0.6028 -0.1935
   30MOL   H93728255   2.973   6.424   3.975  0.9962  0.9356  1.8066
   30MOL   H93828256   3.238   6.807   3.911 -0.7248 -0.5317 -0.6284
   30MOL   H93928257   3.436   6.917   3.849 -0.0703 -0.6334 -1.0884
   30MOL   H94028258   3.661   6.536   3.841 -0.1470 -0.6319 -0.5377
   30MOL   H94128259   3.447   6.426   3.882  0.0784 -0.1097 -1.1227
   30MOL   H94228260   3.765   6.974   3.775 -0.5350  1.4576 -0.3651
   31MOL     O128261   2.724   2.723   4.113  0.0870 -1.0842  0.2895
   31MOL     C228262   2.671   2.756   3.987  0.1437 -0.2586 -0.1777
   31MOL     C328263   2.514   2.778   3.997  0.1110 -0.3069  0.3372
   31MOL     C428264   2.426   2.654   4.019 -0.6972 -0.3885  0.0421
   31MOL     C528265   2.281   2.691   4.005  0.1752  0.1010 -1.1381
   31MOL     C628266   2.221   2.690   3.865 -0.4743 -0.2350  0.1792
   31MOL     C728267   2.075   2.742   3.855 -0.2769 -0.2759  0.2249
   31MOL     C828268   2.004   2.706   3.728  0.3668  0.1983  0.4141
   31MOL     C928269   1.859   2.750   3.714  0.9485 -0.6858  0.7797
   31MOL    C1028270   1.803   2.728   3.566 -1.2741  0.2474  0.3109
   31MOL    C1128271   1.649   2.693   3.556  0.1930 -0.5651 -0.3383
   31MOL    O1228272   1.578   2.817   3.574 -0.3359  0.3388 -0.1999
   31MOL    C1328273   1.442   2.827   3.553 -0.1280 -0.0329  0.2199
   31MOL    O1428274   1.368   2.737   3.513  0.0684  0.0745 -0.3571
   31MOL    C1528275   1.387   2.968   3.578 -0.1397  0.3848  0.0927
   31MOL    C1628276   1.463   3.059   3.662 -0.2550  0.5403  0.5378
   31MOL    C1728277   1.410   3.191   3.676  0.1285  0.8291  0.2121
   31MOL    C1828278   1.285   3.224   3.634  0.7252 -0.2755  0.7618
   31MOL    C1928279   1.243   3.363   3.658 -0.2148 -0.3383 -0.2013
   31MOL    O2028280   1.324   3.455   3.695  0.3011 -0.1313  0.2042
   31MOL    O2128281   1.111   3.387   3.653 -0.3938 -0.3049  0.2423
   31MOL    C2228282   1.202   3.129   3.570  0.6949 -0.2068 -0.2179
   31MOL    C2328283   1.256   2.999   3.538 -0.1905 -0.0825  0.4302
   31MOL    H2428284   2.725   2.846   3.956 -0.5005  0.1000 -0.2681
   31MOL    H2528285   2.694   2.681   3.911  2.5382 -1.2477  1.4598
   31MOL    H2628286   2.497   2.826   3.900 -0.7602  0.7610  1.0039
   31MOL    H2728287   2.483   2.844   4.078  2.3277  0.3396  0.6868
   31MOL    H2828288   2.460   2.569   3.960  0.5341  0.2082 -0.1145
   31MOL    H2928289   2.437   2.621   4.122  0.6742 -0.3716 -0.0903
   31MOL    H3028290   2.265   2.785   4.059  0.1837 -0.3989 -0.2560
   31MOL    H3128291   2.225   2.621   4.067  0.9606  0.3679 -0.1047
   31MOL    H3228292   2.285   2.747   3.798 -1.3535 -0.5366 -0.9233
   31MOL    H3328293   2.232   2.587   3.831  1.2458  0.4161 -1.3505
   31MOL    H3428294   2.002   2.708   3.929 -2.5083  3.2262 -0.2593
   31MOL    H3528295   2.080   2.850   3.845  1.4631 -0.4747 -1.2780
   31MOL    H3628296   2.062   2.765   3.656  3.9536  0.7329  3.6055
   31MOL    H3728297   2.012   2.603   3.694 -0.0192 -0.1920  1.4879
   31MOL    H3828298   1.800   2.701   3.793  1.4352 -1.6025  0.5859
   31MOL    H3928299   1.841   2.857   3.721  0.6128 -0.8393  2.6208
   31MOL    H4028300   1.863   2.646   3.528 -1.6248  0.5958 -1.0353
   31MOL    H4128301   1.822   2.818   3.507 -2.7966  0.4153  0.0417
   31MOL    H4228302   1.609   2.630   3.634 -0.3344  0.2583  0.0616
   31MOL    H4328303   1.617   2.641   3.466 -0.7772  2.4861 -1.8477
   31MOL    H4428304   1.560   3.037   3.705  0.1508  0.9005 -0.1856
   31MOL    H4528305   1.473   3.261   3.729  3.5310 -2.3806  0.6584
   31MOL    H4628306   1.098   3.139   3.544  0.1219 -0.8731  1.7357
   31MOL    H4728307   1.197   2.929   3.481 -0.6895  0.4681  0.2594
   31MOL    H4828308   2.819   2.728   4.111  0.0211 -0.2838 -1.6345
   31MOL    O4928309   1.078   3.529   3.703  0.1850 -0.0090  0.0630
   31MOL    C5028310   1.019   3.521   3.831 -0.2628 -0.1205 -0.0813
   31MOL    C5128311   1.036   3.656   3.903  0.3487 -0.6455 -0.1021
   31MOL    C5228312   0.977   3.668   4.044  0.2785 -0.2492  0.0447
   31MOL    C5328313   0.829   3.681   4.048  0.3515  0.5963 -0.0782
   31MOL    C5428314   0.769   3.816   4.008  0.2253 -0.0886 -0.0680
   31MOL    C5528315   0.627   3.799   3.940 -0.8213  0.0704  0.4263
   31MOL    C5628316   0.619   3.730   3.796 -0.3954 -0.0849  0.7999
   31MOL    C5728317   0.486   3.660   3.766  0.0274 -0.0588  0.0354
   31MOL    C5828318   0.489   3.583   3.629 -0.0572  0.2477  0.1202
   31MOL    C5928319   0.353   3.497   3.610 -0.3239  0.2466 -0.1953
   31MOL    O6028320   0.242   3.595   3.606 -0.6304  0.1791  0.2193
   31MOL    C6128321   0.118   3.539   3.622  0.2757 -0.2896 -0.6278
   31MOL    O6228322   0.098   3.419   3.644  0.1636  0.0038 -0.0342
   31MOL    C6328323   0.015   3.648   3.616  0.1898 -0.2036  0.1873
   31MOL    C6428324   7.867   3.620   3.562 -0.2953 -0.0573  0.0121
   31MOL    C6528325   7.770   3.719   3.547 -0.2413  0.1847 -0.1122
   31MOL    C6628326   7.796   3.850   3.585 -0.0333 -0.5858  0.8870
   31MOL    C6728327   7.698   3.961   3.559 -0.2123 -0.1623  0.0723
   31MOL    O6828328   7.698   4.068   3.620  0.4563 -0.6601  0.0749
   31MOL    O6928329   7.602   3.922   3.473  0.1855 -0.2338 -0.1173
   31MOL    C7028330   7.918   3.880   3.643 -0.5025  0.2917 -0.1527
   31MOL    C7128331   0.039   3.784   3.656 -1.0176  0.0852  0.7108
   31MOL    H7228332   0.912   3.502   3.827 -0.1029 -1.0018 -0.3521
   31MOL    H7328333   1.064   3.440   3.889 -1.7462  0.1293  1.4482
   31MOL    H7428334   1.006   3.742   3.843  0.9421 -0.0608  0.4298
   31MOL    H7528335   1.142   3.677   3.920 -0.3411  0.9285  2.6427
   31MOL    H7628336   1.004   3.574   4.091  3.4672  0.2330 -0.7075
   31MOL    H7728337   1.015   3.754   4.099 -0.6967 -1.1689  2.2273
   31MOL    H7828338   0.799   3.663   4.151 -1.6540  1.3759 -0.5081
   31MOL    H7928339   0.777   3.604   3.992 -0.0451  0.5610  0.3329
   31MOL    H8028340   0.758   3.872   4.100 -0.0591  1.5263 -1.0761
   31MOL    H8128341   0.840   3.875   3.949 -0.2705 -0.4169 -0.9971
   31MOL    H8228342   0.583   3.727   4.009 -0.0312  0.1965  1.0726
   31MOL    H8328343   0.566   3.889   3.948 -1.3794 -0.2038 -0.6572
   31MOL    H8428344   0.636   3.804   3.718  1.2433  0.1358  1.3433
   31MOL    H8528345   0.700   3.658   3.787  1.8265  2.4224  0.2167
   31MOL    H8628346   0.461   3.589   3.844 -3.3866  1.4826  0.4359
   31MOL    H8728347   0.407   3.735   3.771  1.3845  1.3101  1.2903
   31MOL    H8828348   0.582   3.527   3.624  0.1691  0.5117  1.1359
   31MOL    H8928349   0.504   3.639   3.537 -1.4524  0.1921 -0.1487
   31MOL    H9028350   0.334   3.431   3.693 -0.1398  0.0543 -0.3045
   31MOL    H9128351   0.354   3.437   3.519  1.4496 -3.3188  2.0874
   31MOL    H9228352   7.848   3.527   3.511  3.1023 -0.1084 -1.3348
   31MOL    H9328353   7.679   3.702   3.492 -1.3061  2.2121  0.9695
   31MOL    H9428354   7.944   3.978   3.682 -1.5261  0.0063  1.3111
   31MOL    H9528355   0.135   3.811   3.699 -1.0457  3.0696 -1.0331
   31MOL    O9628356   7.493   4.024   3.450 -0.1385  0.2424 -0.1097
   31MOL    C9728357   7.539   4.101   3.338  0.5075  0.7635  0.3129
   31MOL    C9828358   7.466   4.237   3.358  0.1803  0.2059 -0.1259
   31MOL    C9928359   7.506   4.308   3.488 -0.2573  0.0302 -0.5683
   31MOL   C10028360   7.448   4.451   3.498 -0.1067  0.4750  0.0249
   31MOL   C10128361   7.499   4.527   3.617 -0.6280  0.1683 -0.4147
   31MOL   C10228362   7.633   4.606   3.588 -0.2949  0.5161  0.6515
   31MOL   C10328363   7.666   4.715   3.691 -0.2683 -0.7096  0.0456
   31MOL   C10428364   7.791   4.792   3.647  0.2219  0.0503 -0.8406
   31MOL   C10528365   7.842   4.889   3.751 -0.6133 -0.0652  0.2278
   31MOL   C10628366   7.939   4.998   3.690 -0.5997 -0.6254 -0.3814
   31MOL   O10728367   0.066   4.922   3.626 -0.5754  0.4171 -0.0068
   31MOL   C10828368   0.182   4.980   3.598 -0.7282 -0.1506  0.1683
   31MOL   O10928369   0.215   5.103   3.609  0.5663  0.1900  0.1846
   31MOL   C11028370   0.281   4.879   3.539  0.4036 -0.1017  0.4105
   31MOL   C11128371   0.404   4.920   3.485  0.0101 -0.5207  0.0889
   31MOL   C11228372   0.492   4.826   3.441  0.4949 -0.4776 -0.6854
   31MOL   C11328373   0.458   4.693   3.442  0.4229  0.5385 -0.4286
   31MOL   C11428374   0.555   4.592   3.392 -0.0554  0.5749 -0.4251
   31MOL   O11528375   0.521   4.468   3.385 -0.0543  0.7974  0.3419
   31MOL   O11628376   0.681   4.648   3.371  0.0594  0.1650 -0.1770
   31MOL   C11728377   0.329   4.652   3.486  0.0700  0.4041  0.2314
   31MOL   C11828378   0.240   4.746   3.539  0.3196  0.0619 -0.2688
   31MOL   H11928379   7.647   4.108   3.353  0.7983  0.8111 -1.6939
   31MOL   H12028380   7.530   4.069   3.235  2.2403 -0.7913  0.6259
   31MOL   H12128381   7.358   4.222   3.362 -0.0345  2.0310  1.1533
   31MOL   H12228382   7.504   4.285   3.268 -0.8017 -1.6656 -1.5750
   31MOL   H12328383   7.472   4.255   3.577  3.3038 -0.1484  0.7838
   31MOL   H12428384   7.615   4.314   3.488 -0.3282  1.2592 -0.2974
   31MOL   H12528385   7.341   4.448   3.518  0.0760  2.3196  1.4940
   31MOL   H12628386   7.467   4.517   3.414 -0.4367  0.7594  0.1732
   31MOL   H12728387   7.420   4.595   3.650 -0.5501 -0.9523  2.2215
   31MOL   H12828388   7.509   4.454   3.698 -2.7514 -1.4582 -1.5591
   31MOL   H12928389   7.712   4.532   3.581 -0.9880 -0.1495 -0.2201
   31MOL   H13028390   7.631   4.646   3.486  0.1184  1.8666  1.1531
   31MOL   H13128391   7.594   4.793   3.717  0.7451 -0.2138  1.4345
   31MOL   H13228392   7.690   4.667   3.786  0.7515  0.4290  0.3761
   31MOL   H13328393   7.866   4.721   3.614 -0.2826 -0.5661 -0.6670
   31MOL   H13428394   7.753   4.853   3.565 -2.6107  3.0873  2.5562
   31MOL   H13528395   7.894   4.834   3.829 -0.7492 -0.4505  0.0502
   31MOL   H13628396   7.761   4.937   3.806 -0.1166  1.4230 -0.3263
   31MOL   H13728397   7.967   5.058   3.776 -0.3138 -2.8588  1.1302
   31MOL   H13828398   7.886   5.058   3.617 -0.2218  0.1138 -0.0470
   31MOL   H13928399   0.416   5.027   3.485 -0.2993 -0.4842 -0.0705
   31MOL   H14028400   0.587   4.859   3.402  0.2258 -0.9724 -1.7729
   31MOL   H14128401   0.303   4.548   3.475 -1.2218  0.7927 -0.5305
   31MOL   H14228402   0.138   4.725   3.568  1.1412  0.5343  3.2148
   31MOL   O14328403   0.787   4.545   3.343 -0.3642 -0.1090 -0.6112
   31MOL   C14428404   0.864   4.507   3.464 -0.7754  0.0565 -0.3591
   31MOL   C14528405   0.954   4.617   3.518 -0.1021  0.1471 -0.9445
   31MOL   C14628406   1.047   4.681   3.411 -0.4858 -0.2617 -0.6130
   31MOL   C14728407   1.158   4.768   3.457  0.1386  0.2041  0.3206
   31MOL   C14828408   1.236   4.841   3.344  0.4029  0.0241  0.6077
   31MOL   C14928409   1.373   4.892   3.389  1.3367 -0.4247 -0.2526
   31MOL   C15028410   1.433   4.985   3.282 -0.1144 -0.3580 -0.3055
   31MOL   C15128411   1.468   4.918   3.149 -0.0046  0.5572  0.1827
   31MOL   C15228412   1.554   5.003   3.053 -0.1668  0.6202 -0.4351
   31MOL   C15328413   1.580   4.936   2.921  0.2238 -0.6655 -0.2937
   31MOL   O15428414   1.645   5.036   2.839 -0.1488  0.3125  0.4140
   31MOL   C15528415   1.693   4.979   2.724 -0.5589  0.2229  0.0426
   31MOL   O15628416   1.698   4.858   2.698 -0.0849  0.0248  0.0635
   31MOL   C15728417   1.772   5.081   2.641  0.1660  0.1208 -0.4022
   31MOL   C15828418   1.798   5.213   2.684 -0.1705  0.7303 -0.3939
   31MOL   C15928419   1.878   5.302   2.610 -0.2244  0.0079 -0.5455
   31MOL   C16028420   1.933   5.260   2.481 -0.2777  0.0893 -0.0557
   31MOL   C16128421   2.022   5.355   2.401  0.2494 -0.7072 -0.3712
   31MOL   O16228422   2.073   5.325   2.292  0.1192 -0.0514  0.4180
   31MOL   O16328423   2.041   5.481   2.458  0.2055 -0.0933  0.4607
   31MOL   C16428424   1.899   5.132   2.436  1.0002 -0.2143 -0.7045
   31MOL   C16528425   1.826   5.045   2.514 -0.5251 -0.0624  0.3450
   31MOL   H16628426   0.790   4.476   3.538 -1.2572  0.9790 -0.4532
   31MOL   H16728427   0.927   4.423   3.435 -2.4724 -0.9669 -1.1789
   31MOL   H16828428   1.005   4.571   3.602  0.7889  0.2088 -1.4522
   31MOL   H16928429   0.891   4.690   3.570  0.8899 -0.0696  0.5740
   31MOL   H17028430   1.096   4.596   3.363  0.7809  1.5987 -2.6925
   31MOL   H17128431   0.995   4.730   3.329 -1.7138 -0.1266  0.2263
   31MOL   H17228432   1.223   4.696   3.507  1.0719 -1.4570 -3.1542
   31MOL   H17328433   1.113   4.833   3.532  2.3028  0.9114  1.0251
   31MOL   H17428434   1.264   4.765   3.270 -0.0997  0.3288  0.0992
   31MOL   H17528435   1.171   4.918   3.301  2.2686  0.6458 -1.1833
   31MOL   H17628436   1.360   4.956   3.477  2.8823  0.8536 -0.9227
   31MOL   H17728437   1.445   4.817   3.421  0.3622 -1.6156 -0.8416
   31MOL   H17828438   1.364   5.067   3.260  3.0905  1.8180 -2.6532
   31MOL   H17928439   1.518   5.035   3.329 -0.8471 -0.1303  0.8019
   31MOL   H18028440   1.516   4.825   3.181 -1.4765 -0.7786 -1.4714
   31MOL   H18128441   1.375   4.893   3.100 -0.7740  2.0040  0.8981
   31MOL   H18228442   1.641   5.041   3.107 -0.8852  1.1973  0.3362
   31MOL   H18328443   1.507   5.097   3.026  2.6444  1.8869 -1.0203
   31MOL   H18428444   1.490   4.905   2.868 -0.1448 -0.3123  0.1173
   31MOL   H18528445   1.646   4.854   2.948  2.3787  0.8137 -0.9625
   31MOL   H18628446   1.761   5.240   2.782  0.7648 -2.0876  0.7865
   31MOL   H18728447   1.893   5.398   2.656 -1.0145  0.5091 -1.3065
   31MOL   H18828448   1.932   5.094   2.341 -0.0634  0.1794 -1.2397
   31MOL   H18928449   1.804   4.947   2.473 -0.4659  0.2013 -0.3236
   31MOL   O19028450   2.108   5.581   2.375  0.1219  0.2371  0.3009
   31MOL   C19128451   2.014   5.655   2.305  0.5889  0.2659 -0.3436
   31MOL   C19228452   2.057   5.703   2.163 -0.2933 -0.5839 -0.4739
   31MOL   C19328453   1.944   5.710   2.068  0.0989  0.0038  0.2305
   31MOL   C19428454   1.982   5.767   1.932  0.7579 -0.2095  1.2253
   31MOL   C19528455   1.862   5.782   1.834 -0.1351 -0.6566  0.2043
   31MOL   C19628456   1.916   5.832   1.698  0.1648 -0.1958  0.1594
   31MOL   C19728457   1.979   5.976   1.694  0.0879 -0.3123 -0.0657
   31MOL   C19828458   1.889   6.091   1.720 -0.8358 -0.4489 -0.0209
   31MOL   C19928459   1.960   6.229   1.734 -0.5546 -0.1983  0.0127
   31MOL   C20028460   1.850   6.326   1.785  0.4266 -0.2562 -0.4622
   31MOL   O20128461   1.741   6.321   1.686  0.5318 -0.3044  1.1741
   31MOL   C20228462   1.636   6.395   1.718  0.2202 -0.8384  0.8680
   31MOL   O20328463   1.641   6.484   1.800  0.0484  0.6631  0.8512
   31MOL   C20428464   1.516   6.347   1.653 -0.1851  0.3135 -0.9123
   31MOL   C20528465   1.509   6.228   1.571 -0.1075  0.2320  0.7251
   31MOL   C20628466   1.384   6.192   1.511  0.2069 -0.7957 -0.3240
   31MOL   C20728467   1.267   6.264   1.544  0.1708 -0.2156 -0.2658
   31MOL   C20828468   1.142   6.224   1.478 -0.3556 -0.0856  0.2163
   31MOL   O20928469   1.124   6.139   1.386 -0.3724  0.0872  0.3192
   31MOL   O21028470   1.042   6.295   1.517 -0.0060  0.4358 -0.2120
   31MOL   C21128471   1.282   6.386   1.611 -0.0134 -0.3854 -0.8991
   31MOL   C21228472   1.400   6.430   1.659 -1.6358  0.0443  0.0008
   31MOL   H21328473   1.921   5.599   2.293  0.5300  0.5426 -1.2549
   31MOL   H21428474   1.992   5.744   2.364 -0.7638  0.3958 -1.0106
   31MOL   H21528475   2.122   5.629   2.118  1.5329  1.7806 -1.8095
   31MOL   H21628476   2.111   5.797   2.170  0.2980 -0.9130 -0.5507
   31MOL   H21728477   1.909   5.607   2.056 -2.4384  0.5742  2.2256
   31MOL   H21828478   1.855   5.766   2.097 -0.1963  0.2846 -1.1850
   31MOL   H21928479   2.051   5.697   1.885 -1.6530 -2.7485  1.3152
   31MOL   H22028480   2.021   5.867   1.949 -0.0404  0.2623  0.3510
   31MOL   H22128481   1.834   5.678   1.817 -0.7314 -0.5555  0.5418
   31MOL   H22228482   1.780   5.845   1.869 -0.2385 -0.6988  0.0350
   31MOL   H22328483   1.992   5.765   1.657 -0.0596  0.5218 -1.4782
   31MOL   H22428484   1.836   5.823   1.624  0.4079  2.0639 -0.4088
   31MOL   H22528485   2.061   5.981   1.765 -0.4902  1.1125  0.5078
   31MOL   H22628486   2.022   5.984   1.594  0.8878 -3.1081  0.0025
   31MOL   H22728487   1.825   6.092   1.633  1.4679  0.3602 -1.7616
   31MOL   H22828488   1.824   6.076   1.806 -1.2543  0.9068 -0.0998
   31MOL   H22928489   2.012   6.256   1.642 -2.7837 -0.3208 -1.3314
   31MOL   H23028490   2.038   6.221   1.810 -1.4742 -0.1744  0.9624
   31MOL   H23128491   1.889   6.427   1.780 -0.2419 -0.0243 -0.9215
   31MOL   H23228492   1.824   6.303   1.889 -1.7894  0.0516 -0.9232
   31MOL   H23328493   1.597   6.169   1.550  0.6853  1.3475  0.8918
   31MOL   H23428494   1.381   6.095   1.463  1.9368 -0.6684 -0.7319
   31MOL   H23528495   1.196   6.447   1.632  0.0622 -0.0193 -1.6129
   31MOL   H23628496   1.417   6.530   1.697 -0.1163 -0.2453  0.0864
   31MOL   O23728497   0.921   6.278   1.419 -0.0961 -0.1548 -0.0315
   31MOL   C23828498   0.816   6.203   1.476  0.4584  0.3598  0.1331
   31MOL   C23928499   0.687   6.231   1.398 -0.4825  0.0791  0.2024
   31MOL   C24028500   0.565   6.179   1.465  1.0030  0.0665  0.3361
   31MOL   C24128501   0.446   6.217   1.381  0.5682  0.2447  0.3760
   31MOL   C24228502   0.305   6.204   1.440  0.5787 -0.4654 -0.2908
   31MOL   C24328503   0.262   6.063   1.461  0.3752  0.1031  0.4161
   31MOL   C24428504   0.116   6.049   1.499  1.0437 -0.0587 -1.3102
   31MOL   C24528505   0.077   5.901   1.527 -1.1105  0.0264 -0.0995
   31MOL   C24628506   7.943   5.879   1.624 -0.1963 -0.1365  0.1022
   31MOL   C24728507   7.892   5.734   1.634 -0.4815  0.4853 -0.1015
   31MOL   O24828508   7.776   5.721   1.715  0.7911 -0.5981 -0.3845
   31MOL   C24928509   7.793   5.683   1.842  0.7898 -0.1759  0.5953
   31MOL   O25028510   7.902   5.664   1.901  0.3664  0.2889  0.3194
   31MOL   C25128511   7.659   5.664   1.901 -0.8891 -0.5806  0.2143
   31MOL   C25228512   7.649   5.643   2.040  0.7138  0.9110  0.0065
   31MOL   C25328513   7.518   5.635   2.100 -0.5161  0.4368 -0.1270
   31MOL   C25428514   7.403   5.650   2.021  0.5290 -0.2339 -0.4577
   31MOL   C25528515   7.270   5.653   2.085  0.5255  0.8244 -0.2067
   31MOL   O25628516   7.184   5.728   2.042  0.2707 -0.0235 -0.3492
   31MOL   O25728517   7.260   5.573   2.195  0.4230  0.0337 -0.2143
   31MOL   C25828518   7.418   5.666   1.880  0.6089 -0.2005  0.6432
   31MOL   C25928519   7.544   5.687   1.824 -0.0028  0.4518 -0.2380
   31MOL   H26028520   0.831   6.098   1.453 -1.3584  0.0599  0.2564
   31MOL   H26128521   0.804   6.211   1.584 -0.2322  3.7053 -0.1404
   31MOL   H26228522   0.695   6.201   1.293  0.7234  0.3465  0.2097
   31MOL   H26328523   0.676   6.340   1.396 -0.9842  0.0219 -2.5234
   31MOL   H26428524   0.569   6.071   1.483 -2.6337 -1.0700 -4.8046
   31MOL   H26528525   0.545   6.233   1.558 -3.2983  0.3268 -0.6364
   31MOL   H26628526   0.445   6.159   1.288  2.8212 -0.9991  1.0977
   31MOL   H26728527   0.455   6.322   1.353  1.3101  0.6196  1.9870
   31MOL   H26828528   0.294   6.267   1.528 -1.1943 -1.0806 -0.0516
   31MOL   H26928529   0.239   6.254   1.369  1.4844  2.2454  0.7522
   31MOL   H27028530   0.280   6.009   1.368 -0.6948  1.2376 -0.4595
   31MOL   H27128531   0.315   6.024   1.548 -0.2619 -1.2215  0.2214
   31MOL   H27228532   0.093   6.108   1.588 -1.9432 -2.1330 -0.6289
   31MOL   H27328533   0.052   6.093   1.423 -0.0242  2.3581  0.9147
   31MOL   H27428534   0.051   5.857   1.431  0.6804 -1.4888  0.0860
   31MOL   H27528535   0.161   5.846   1.569 -1.4102 -1.2129 -1.1068
   31MOL   H27628536   7.859   5.940   1.588  0.3013 -0.2615 -1.3289
   31MOL   H27728537   7.968   5.907   1.726  0.6971 -0.2077 -0.0942
   31MOL   H27828538   7.964   5.657   1.660 -1.9318 -0.3431  1.5975
   31MOL   H27928539   7.863   5.700   1.534 -0.7789  1.6873 -0.4381
   31MOL   H28028540   7.730   5.634   2.111  0.8245  0.0526 -0.2195
   31MOL   H28128541   7.519   5.635   2.208 -1.0003  1.2574 -0.1104
   31MOL   H28228542   7.330   5.675   1.818  0.5814 -1.8906  0.4000
   31MOL   H28328543   7.540   5.723   1.722 -0.8432  1.4656  0.1423
   31MOL   O28428544   7.134   5.585   2.273  0.4037 -0.8191 -0.3965
   31MOL   C28528545   7.165   5.651   2.392 -0.5808 -0.0268 -0.0254
   31MOL   C28628546   7.179   5.799   2.378  0.3065  0.1012 -0.6056
   31MOL   C28728547   7.042   5.852   2.335 -1.1325 -0.9534  0.2880
   31MOL   C28828548   7.046   6.006   2.319  0.0661 -0.8810 -0.3444
   31MOL   C28928549   6.902   6.046   2.296  0.0901 -0.0917 -0.2348
   31MOL   C29028550   6.888   6.195   2.259 -0.3709  0.4952  0.3734
   31MOL   C29128551   6.742   6.246   2.249 -0.9031 -1.1903 -0.2476
   31MOL   C29228552   6.731   6.396   2.211  0.1030 -0.1159  0.0077
   31MOL   C29328553   6.699   6.409   2.056  0.2091  0.4241  0.4573
   31MOL   C29428554   6.716   6.551   1.996 -0.7897  0.5620  0.0376
   31MOL   O29528555   6.856   6.567   1.983 -0.0860  0.0033 -0.4950
   31MOL   C29628556   6.910   6.690   1.976  0.2767  0.5322  0.0230
   31MOL   O29728557   6.836   6.791   1.984  0.0423  0.2494 -0.6898
   31MOL   C29828558   7.055   6.690   1.962  0.4187  0.6313  0.5876
   31MOL   C29928559   7.130   6.579   2.002 -1.1029 -0.5221 -0.6599
   31MOL   C30028560   7.270   6.597   2.011  0.0813  0.0537 -0.1853
   31MOL   C30128561   7.334   6.718   1.964 -0.1506 -0.6843  0.4132
   31MOL   C30228562   7.481   6.741   1.974  0.2747 -0.2324  0.2227
   31MOL   O30328563   7.533   6.844   1.939  0.2662  0.5282 -0.0218
   31MOL   O30428564   7.552   6.630   2.012 -0.3965 -0.1155 -0.6776
   31MOL   C30528565   7.255   6.825   1.918  0.3330 -0.2086  0.4219
   31MOL   C30628566   7.113   6.811   1.930 -0.3903  0.2965 -0.7579
   31MOL   H30728567   7.082   5.629   2.460 -0.8963 -2.3257 -1.1074
   31MOL   H30828568   7.265   5.629   2.429  0.8176  1.9851 -2.4865
   31MOL   H30928569   7.258   5.822   2.306 -0.0997  0.3781 -0.9632
   31MOL   H31028570   7.209   5.840   2.475  0.7398 -1.6881  0.0400
   31MOL   H31128571   7.009   5.805   2.242 -1.7700  0.4026 -0.1823
   31MOL   H31228572   6.971   5.834   2.415 -1.9225  1.6058  0.1976
   31MOL   H31328573   7.118   6.037   2.243  2.0229 -3.4594  0.4267
   31MOL   H31428574   7.078   6.033   2.419  0.3965 -0.5218 -0.5449
   31MOL   H31528575   6.875   6.000   2.201  0.9528 -0.6985 -0.1839
   31MOL   H31628576   6.831   6.017   2.374  0.2579 -1.7428 -0.6718
   31MOL   H31728577   6.937   6.262   2.330 -0.8479  1.0764  0.1587
   31MOL   H31828578   6.933   6.214   2.162  0.0330 -1.0411  0.2440
   31MOL   H31928579   6.676   6.177   2.196 -3.7133  0.5479  0.9045
   31MOL   H32028580   6.702   6.241   2.350 -0.8135  0.8211 -0.0973
   31MOL   H32128581   6.653   6.442   2.273 -1.9874 -1.3797 -1.6054
   31MOL   H32228582   6.821   6.452   2.236 -1.3576  2.0674  0.6194
   31MOL   H32328583   6.598   6.375   2.034 -0.0048 -0.7375  3.0124
   31MOL   H32428584   6.756   6.335   1.999  0.0476 -0.6799  1.6906
   31MOL   H32528585   6.680   6.630   2.063 -0.6141  1.0775 -0.4735
   31MOL   H32628586   6.666   6.575   1.902  2.0720 -2.1437 -2.2803
   31MOL   H32728587   7.088   6.487   2.040  0.6820 -0.5215  1.3776
   31MOL   H32828588   7.336   6.513   2.028 -0.1209  0.0457  0.5678
   31MOL   H32928589   7.305   6.915   1.886 -1.3521  0.6026 -0.0049
   31MOL   H33028590   7.061   6.901   1.899  1.2868  1.5232 -0.1192
   31MOL   O33128591   7.697   6.662   2.010  0.1676  0.0229  0.4488
   31MOL   C33228592   7.752   6.613   1.881  0.5225 -0.3547  0.1629
   31MOL   C33328593   7.877   6.527   1.915  0.4743  0.0707 -0.3147
   31MOL   C33428594   7.945   6.463   1.791 -0.3875  0.6272  0.2658
   31MOL   C33528595   0.069   6.359   1.843 -0.3630  0.0574 -0.2157
   31MOL   C33628596   0.206   6.416   1.888  0.3824 -0.2484 -0.5614
   31MOL   C33728597   0.313   6.307   1.909 -0.3075 -0.3942  0.5772
   31MOL   C33828598   0.457   6.363   1.939  0.3779  0.0790  0.4616
   31MOL   C33928599   0.530   6.433   1.826  0.1419  0.2702 -0.1758
   31MOL   C34028600   0.672   6.454   1.870  0.5010  0.1511  0.1210
   31MOL   C34128601   0.738   6.562   1.775 -0.1695 -0.7439  0.0779
   31MOL   O34228602   0.870   6.604   1.816 -0.0788  0.0464  0.6107
   31MOL   C34328603   0.912   6.722   1.771 -0.6418 -0.5034 -0.7436
   31MOL   O34428604   0.849   6.804   1.707  0.0764 -0.2015  0.1391
   31MOL   C34528605   1.058   6.734   1.817  0.4524  0.1177 -0.1167
   31MOL   C34628606   1.113   6.858   1.826  0.2123  0.3354 -0.0698
   31MOL   C34728607   1.240   6.875   1.884 -0.3896 -0.2136 -0.3613
   31MOL   C34828608   1.317   6.771   1.933 -0.2715  0.4548 -0.2187
   31MOL   C34928609   1.439   6.788   2.012  0.4828  1.0731  0.5721
   31MOL   O35028610   1.495   6.894   2.024  0.0003 -0.2346  0.1537
   31MOL   O35128611   1.480   6.672   2.061 -0.1267 -0.4842  0.5314
   31MOL   C35228612   1.263   6.642   1.908  0.0473 -0.0130  0.4014
   31MOL   C35328613   1.139   6.624   1.852 -0.1731  0.2808 -0.9336
   31MOL   H35428614   7.680   6.550   1.828  0.1040  0.6418 -0.4671
   31MOL   H35528615   7.763   6.700   1.817  0.6330 -0.5215 -0.0474
   31MOL   H35628616   7.848   6.455   1.992  0.7015  0.4491  0.1269
   31MOL   H35728617   7.941   6.595   1.970 -0.8535 -0.1476  1.5618
   31MOL   H35828618   7.882   6.395   1.735  0.1644 -0.6463  1.1774
   31MOL   H35928619   0.012   6.536   1.723  1.0344 -2.2337 -1.9343
   31MOL   H36028620   0.086   6.295   1.757 -0.4787  1.4013 -1.2563
   31MOL   H36128621   0.024   6.290   1.914 -0.8182  0.6683  0.0996
   31MOL   H36228622   0.248   6.495   1.826  0.8727  0.3167  0.4825
   31MOL   H36328623   0.184   6.460   1.985 -3.1904 -3.1720  0.0995
   31MOL   H36428624   0.287   6.247   1.996 -0.3534 -0.3864  0.5688
   31MOL   H36528625   0.321   6.236   1.826  3.7217  1.9828 -1.2042
   31MOL   H36628626   0.453   6.444   2.012 -0.6942  2.2796 -1.9472
   31MOL   H36728627   0.514   6.283   1.985  1.6446 -1.7036 -4.0410
   31MOL   H36828628   0.539   6.379   1.732 -0.3218  0.8999 -0.5867
   31MOL   H36928629   0.478   6.528   1.809 -3.9485 -1.7809  0.1309
   31MOL   H37028630   0.725   6.360   1.856  1.3951  0.9918 -2.4934
   31MOL   H37128631   0.681   6.497   1.970 -1.0648  2.3806 -0.6549
   31MOL   H37228632   0.668   6.644   1.760 -0.3954 -0.7249  1.2433
   31MOL   H37328633   0.760   6.522   1.675  0.1027 -3.8423  1.3057
   31MOL   H37428634   1.057   6.948   1.804 -0.0817  0.2390  0.2794
   31MOL   H37528635   1.262   6.979   1.903 -1.5350 -0.1717  0.8275
   31MOL   H37628636   1.311   6.551   1.942 -1.3397 -1.4541 -1.3717
   31MOL   H37728637   1.105   6.522   1.847 -0.0554  0.2088 -0.2826
   31MOL   O37828638   1.614   6.686   2.130  0.1060 -0.6062 -0.1138
   31MOL   C37928639   1.720   6.633   2.055 -0.3651 -0.0025 -0.0469
   31MOL   C38028640   1.851   6.666   2.125 -0.0535  0.3875  0.0338
   31MOL   C38128641   1.855   6.623   2.270 -0.3721 -0.1172 -0.5466
   31MOL   C38228642   1.988   6.646   2.340 -0.4070  0.3059  0.2993
   31MOL   C38328643   2.097   6.560   2.274  0.7809  0.3966  0.7389
   31MOL   C38428644   2.216   6.553   2.363  0.2969  0.5350  0.6448
   31MOL   C38528645   2.328   6.456   2.324  0.1853  0.6594 -0.4075
   31MOL   C38628646   2.393   6.478   2.193 -0.2134  1.1513 -1.0029
   31MOL   C38728647   2.515   6.384   2.191  0.5180 -0.1011  0.3349
   31MOL   C38828648   2.598   6.405   2.063  0.7858 -0.5041  0.9347
   31MOL   O38928649   2.728   6.354   2.068 -0.2492 -0.7505 -0.0447
   31MOL   C39028650   2.752   6.229   2.044 -0.0607 -0.2047 -0.1058
   31MOL   O39128651   2.664   6.148   2.034  0.0758 -0.5914  0.4904
   31MOL   C39228652   2.895   6.197   2.037 -0.1397  0.3072  0.2938
   31MOL   C39328653   2.938   6.066   2.051  0.2628 -0.2282  0.0582
   31MOL   C39428654   3.068   6.027   2.008  0.5918  0.2898 -0.1459
   31MOL   C39528655   3.164   6.131   1.978  0.2612 -0.1891  0.1747
   31MOL   C39628656   3.308   6.092   1.957 -0.2910 -0.4377 -0.0709
   31MOL   O39728657   3.350   5.978   1.950  0.4085 -0.3175 -0.0123
   31MOL   O39828658   3.390   6.204   1.952  0.0433  0.0152  0.6778
   31MOL   C39928659   3.123   6.267   1.973 -0.4629  0.1489  0.9210
   31MOL   C40028660   2.988   6.294   1.998 -0.4974 -0.3330  0.2904
   31MOL   H40128661   1.714   6.527   2.030 -1.5995 -0.0725  0.5313
   31MOL   H40228662   1.725   6.694   1.965 -1.6492  0.5769  0.2679
   31MOL   H40328663   1.880   6.769   2.104 -0.1884  0.4216  0.0163
   31MOL   H40428664   1.928   6.603   2.080 -0.5393 -0.5121  0.4529
   31MOL   H40528665   1.772   6.659   2.332 -0.2918 -0.6485 -0.1257
   31MOL   H40628666   1.837   6.516   2.281 -3.3378  0.2664 -1.2377
   31MOL   H40728667   1.969   6.632   2.446 -0.5398 -1.9105  0.0227
   31MOL   H40828668   2.006   6.752   2.325 -0.2061  0.2514  0.1450
   31MOL   H40928669   2.047   6.464   2.257 -0.2213  1.2745 -1.4313
   31MOL   H41028670   2.135   6.590   2.177  1.4081 -2.7274 -0.0472
   31MOL   H41128671   2.257   6.654   2.366 -0.6023  0.8870  1.5978
   31MOL   H41228672   2.191   6.517   2.463 -2.0969  0.9170  0.2171
   31MOL   H41328673   2.391   6.446   2.412 -0.8287  1.1045  0.3820
   31MOL   H41428674   2.281   6.358   2.330  0.1549  0.7864  2.0397
   31MOL   H41528675   2.324   6.450   2.114  0.2107  0.8200 -1.2580
   31MOL   H41628676   2.415   6.583   2.177 -2.3384  1.3647 -2.7154
   31MOL   H41728677   2.484   6.280   2.197 -1.3234  0.3784 -0.6256
   31MOL   H41828678   2.566   6.407   2.285  2.2563  0.6799 -0.7833
   31MOL   H41928679   2.591   6.510   2.035 -1.1545 -0.7469  0.4537
   31MOL   H42028680   2.540   6.368   1.979 -0.5029 -0.7039  1.8880
   31MOL   H42128681   2.864   5.990   2.072 -1.3825  1.5775  0.9349
   31MOL   H42228682   3.096   5.923   2.016  1.0734  0.3654 -0.7799
   31MOL   H42328683   3.193   6.347   1.956  0.3374 -0.0925  2.9281
   31MOL   H42428684   2.951   6.395   2.003  0.6349  0.0350  1.8244
   31MOL   O42528685   3.528   6.171   1.910 -0.1772 -0.2997 -0.3992
   31MOL   C42628686   3.545   6.199   1.774  0.2939 -0.1076 -0.4210
   31MOL   C42728687   3.669   6.139   1.713  0.4396 -0.0219  0.0286
   31MOL   C42828688   3.808   6.197   1.759  0.0447  0.6641 -0.4039
   31MOL   C42928689   3.932   6.141   1.691 -0.5230  0.4152  0.4257
   31MOL   C43028690   4.066   6.177   1.747  0.2813 -0.2434 -0.8518
   31MOL   C43128691   4.176   6.073   1.710  0.8045  0.6989  0.4731
   31MOL   C43228692   4.307   6.089   1.794  0.0096  0.1614 -0.5472
   31MOL   C43328693   4.413   5.975   1.764  0.2556 -0.2403 -0.2441
   31MOL   C43428694   4.500   6.002   1.638 -0.6222 -0.7931 -0.1671
   31MOL   C43528695   4.607   5.896   1.618 -0.1802  0.2380 -0.0414
   31MOL   O43628696   4.541   5.775   1.586 -0.1362  0.1285 -0.2196
   31MOL   C43728697   4.607   5.675   1.539  0.5367 -0.1967  0.4418
   31MOL   O43828698   4.731   5.662   1.547  0.9354 -0.5723 -0.3086
   31MOL   C43928699   4.531   5.571   1.468  0.3913  0.7757  0.6538
   31MOL   C44028700   4.605   5.467   1.397  0.0576  0.0231  0.8126
   31MOL   C44128701   4.536   5.364   1.340  0.2577 -0.0077  1.0005
   31MOL   C44228702   4.393   5.359   1.354 -0.5233  0.0571 -0.4609
   31MOL   C44328703   4.322   5.244   1.291 -0.4686 -0.8257 -0.3622
   31MOL   O44428704   4.356   5.198   1.181 -0.0160 -0.4743  0.2699
   31MOL   O44528705   4.208   5.207   1.349  0.5610 -0.2051 -0.7363
   31MOL   C44628706   4.324   5.455   1.420 -0.1100 -0.0655  0.3676
   31MOL   C44728707   4.388   5.559   1.482 -0.7966  0.2634 -0.7760
   31MOL   H44828708   3.455   6.158   1.727  0.5320 -1.9630  0.7085
   31MOL   H44928709   3.552   6.308   1.775  0.0176 -0.0939  0.4502
   31MOL   H45028710   3.665   6.148   1.605  3.2425  2.1293  0.0734
   31MOL   H45128711   3.668   6.032   1.737 -1.4595  0.3512  1.7585
   31MOL   H45228712   3.817   6.301   1.726 -1.4737  0.4359 -1.5603
   31MOL   H45328713   3.815   6.209   1.867  0.5239  1.7749 -0.5500
   31MOL   H45428714   3.935   6.171   1.587  0.3518 -0.5884  0.1587
   31MOL   H45528715   3.920   6.033   1.690  2.6659  0.0361 -0.7479
   31MOL   H45628716   4.095   6.281   1.733  3.0125 -0.8245  0.2016
   31MOL   H45728717   4.064   6.172   1.856 -0.5920 -1.0395 -0.8932
   31MOL   H45828718   4.133   5.974   1.723 -1.0496  1.4859  0.4195
   31MOL   H45928719   4.197   6.096   1.605  1.5164 -0.7763  0.2788
   31MOL   H46028720   4.351   6.184   1.762 -1.2391  1.5513  1.7538
   31MOL   H46128721   4.287   6.075   1.900  2.6567  1.9573  0.2521
   31MOL   H46228722   4.473   5.968   1.855 -0.8883 -2.1435  0.3684
   31MOL   H46328723   4.369   5.876   1.756  1.4133 -0.8136  0.2924
   31MOL   H46428724   4.556   6.095   1.644 -1.0121 -0.4843 -1.1815
   31MOL   H46528725   4.445   6.004   1.544  1.1654 -0.4639 -1.2260
   31MOL   H46628726   4.660   5.876   1.711  1.3018  0.4542 -0.8263
   31MOL   H46728727   4.676   5.931   1.542  0.3821 -0.5233  0.1113
   31MOL   H46828728   4.713   5.470   1.404  0.2596 -0.6706 -1.6514
   31MOL   H46928729   4.594   5.285   1.293 -1.8301 -1.0902  0.1334
   31MOL   H47028730   4.219   5.443   1.443 -0.8832  2.7000 -1.4360
   31MOL   H47128731   4.327   5.617   1.550  2.0671  1.3527  0.9497
   31MOL   O47228732   4.135   5.092   1.283 -0.2410 -0.1120  0.0261
   31MOL   C47328733   4.014   5.153   1.244  0.4257 -0.2487 -0.3187
   31MOL   C47428734   3.930   5.045   1.182  0.3461 -0.3352 -0.4070
   31MOL   C47528735   3.788   5.094   1.160  0.3760  0.5625  0.1440
   31MOL   C47628736   3.711   5.091   1.290 -0.1238  0.2532  0.6058
   31MOL   C47728737   3.606   5.205   1.296 -0.2633 -0.2748 -0.2275
   31MOL   C47828738   3.536   5.210   1.437 -0.2090  0.4974 -0.7485
   31MOL   C47928739   3.428   5.317   1.448 -0.4909  0.0715 -0.2046
   31MOL   C48028740   3.484   5.457   1.441  0.1870 -0.7847  0.0100
   31MOL   C48128741   3.548   5.509   1.579 -0.1008 -0.3376 -0.1493
   31MOL   C48228742   3.593   5.654   1.570 -0.1191 -0.5886  0.3409
   31MOL   O48328743   3.716   5.648   1.505 -0.4897 -0.1611 -0.0129
   31MOL   C48428744   3.783   5.753   1.476  0.8974 -0.0409  0.2187
   31MOL   O48528745   3.753   5.863   1.513  0.3412 -0.3434  0.0264
   31MOL   C48628746   3.908   5.730   1.402  0.0153 -0.4105 -0.3829
   31MOL   C48728747   3.998   5.840   1.377  0.6657 -0.3479  0.1811
   31MOL   C48828748   4.106   5.824   1.287  0.1940 -0.2799 -0.3806
   31MOL   C48928749   4.125   5.698   1.224 -0.2970 -0.0318  0.3859
   31MOL   C49028750   4.230   5.682   1.123  0.6224 -0.0569  0.5922
   31MOL   O49128751   4.286   5.782   1.076 -0.5230  0.1649 -0.4704
   31MOL   O49228752   4.236   5.559   1.067  0.8040 -0.2094  0.0277
   31MOL   C49328753   4.037   5.588   1.258 -0.0020  0.1098  0.0661
   31MOL   C49428754   3.932   5.603   1.347 -0.2711  0.7717 -0.0639
   31MOL   H49528755   3.959   5.212   1.318  0.1219  1.5383 -1.9146
   31MOL   H49628756   4.030   5.219   1.159  1.7072 -0.2329 -0.0770
   31MOL   H49728757   3.932   4.953   1.240  0.0736  0.0484  0.2226
   31MOL   H49828758   3.964   5.021   1.082  0.7517 -0.2340 -0.2927
   31MOL   H49928759   3.799   5.195   1.121 -0.8425 -0.0793 -1.9414
   31MOL   H50028760   3.749   5.036   1.076  1.3718  1.1533 -0.7393
   31MOL   H50128761   3.786   5.099   1.369  0.7992 -1.2742 -0.0772
   31MOL   H50228762   3.668   4.994   1.317  1.6300 -0.5665  0.5659
   31MOL   H50328763   3.649   5.301   1.266 -0.5224  0.3180  1.2544
   31MOL   H50428764   3.528   5.181   1.224 -2.1668 -1.0517  2.0676
   31MOL   H50528765   3.492   5.112   1.453  0.2346  0.4138 -0.0069
   31MOL   H50628766   3.612   5.226   1.513 -0.1879  1.5372 -0.9771
   31MOL   H50728767   3.362   5.300   1.363  0.0944 -0.5291 -0.5431
   31MOL   H50828768   3.369   5.304   1.539 -1.3925  0.3887 -0.7352
   31MOL   H50928769   3.553   5.467   1.357  2.7960  0.1913  2.1889
   31MOL   H51028770   3.401   5.524   1.414  2.2764  1.4686 -1.0192
   31MOL   H51128771   3.632   5.446   1.607 -0.9249 -1.9231 -1.1809
   31MOL   H51228772   3.475   5.506   1.660 -0.5452  1.4392 -0.4557
   31MOL   H51328773   3.606   5.678   1.676  1.4379 -0.4517  0.1387
   31MOL   H51428774   3.515   5.715   1.526 -1.1708 -1.8236  0.4647
   31MOL   H51528775   3.982   5.939   1.417 -3.1305 -1.2892  1.1639
   31MOL   H51628776   4.165   5.906   1.250 -2.1586 -0.0219 -3.8244
   31MOL   H51728777   4.043   5.487   1.220 -2.1712  0.6358 -1.7737
   31MOL   H51828778   3.873   5.518   1.377  0.6132  0.9670  2.2790
   31MOL   O51928779   4.308   5.554   0.936  0.2122 -0.4426  0.3738
   31MOL   C52028780   4.215   5.507   0.840  0.6279 -0.4692 -0.1976
   31MOL   C52128781   4.150   5.366   0.870  0.1505 -0.2847 -0.7742
   31MOL   C52228782   4.044   5.332   0.766 -0.2263 -0.1274  0.3072
   31MOL   C52328783   3.937   5.236   0.822 -0.1811  0.3320  0.6429
   31MOL   C52428784   3.847   5.183   0.705  0.0487 -0.0589  0.4149
   31MOL   C52528785   3.901   5.057   0.634 -0.4783  0.0104 -0.2524
   31MOL   C52628786   3.812   4.993   0.528 -0.6341  0.3874  0.2741
   31MOL   C52728787   3.887   4.898   0.438 -0.9335  0.4550  0.3762
   31MOL   C52828788   3.800   4.829   0.334 -0.3465  0.9999  0.2246
   31MOL   C52928789   3.745   4.918   0.220 -0.1270 -0.8251  0.0449
   31MOL   O53028790   3.645   4.855   0.151  0.0541  0.3373  0.0294
   31MOL   C53128791   3.678   4.770   0.049 -0.3904  0.2689 -0.0801
   31MOL   O53228792   3.798   4.741   0.020  0.1726 -0.0687  0.1983
   31MOL   C53328793   3.554   4.702   7.970 -0.1233  0.0930 -0.1491
   31MOL   C53428794   3.560   4.628   7.847  0.6023  0.2101 -0.3052
   31MOL   C53528795   3.449   4.572   7.784  0.0560 -0.2306  0.2117
   31MOL   C53628796   3.325   4.586   7.848  0.4562 -0.9817 -0.6727
   31MOL   C53728797   3.206   4.522   7.790  0.1426 -0.6764  1.1172
   31MOL   O53828798   3.104   4.494   7.850 -0.1478  0.4330 -0.2241
   31MOL   O53928799   3.217   4.495   7.660 -0.3760  0.5705  0.1313
   31MOL   C54028800   3.320   4.653   7.973  0.1855  0.1482 -0.1367
   31MOL   C54128801   3.430   4.721   0.050 -0.5192  0.6370  0.2064
   31MOL   H54228802   4.140   5.586   0.837  1.1247  0.0952  1.5850
   31MOL   H54328803   4.274   5.502   0.748  1.3403 -1.7597  0.3259
   31MOL   H54428804   4.111   5.377   0.971  1.5870  0.9663 -0.3333
   31MOL   H54528805   4.220   5.284   0.878  1.1307  0.6759  0.7259
   31MOL   H54628806   4.003   5.425   0.727  0.0333 -0.3279 -0.4368
   31MOL   H54728807   4.098   5.285   0.684  0.1715 -1.2838  1.2170
   31MOL   H54828808   3.876   5.292   0.893 -0.9518  0.4384 -0.0887
   31MOL   H54928809   3.982   5.159   0.884 -2.0553 -2.2250 -1.0602
   31MOL   H55028810   3.745   5.165   0.739  0.2430  1.5519  1.9296
   31MOL   H55128811   3.839   5.264   0.633 -1.2057  0.8618  1.5708
   31MOL   H55228812   3.998   5.081   0.590  0.8365  0.2761  2.6501
   31MOL   H55328813   3.918   4.982   0.711 -0.5395  1.2552  0.9859
   31MOL   H55428814   3.730   4.939   0.575 -1.0126 -0.0414 -0.8614
   31MOL   H55528815   3.780   5.070   0.457 -0.3344 -0.3472 -0.6681
   31MOL   H55628816   3.960   4.957   0.383 -1.6144  0.9642  0.0102
   31MOL   H55728817   3.934   4.812   0.486 -0.6927  1.0117  1.1316
   31MOL   H55828818   3.711   4.786   0.380  0.6062  0.0133  1.1577
   31MOL   H55928819   3.862   4.748   0.296 -2.2989  0.2709 -1.4915
   31MOL   H56028820   3.823   4.951   0.152 -0.3325 -1.3152 -0.4322
   31MOL   H56128821   3.702   5.010   0.262 -1.1642 -1.6696  0.8719
   31MOL   H56228822   3.650   4.620   7.788 -0.1089  0.6150 -1.4676
   31MOL   H56328823   3.465   4.519   7.691 -0.7096  0.6127 -0.4059
   31MOL   H56428824   3.218   4.663   0.030 -0.0557  1.1025 -1.0902
   31MOL   H56528825   3.424   4.767   0.147 -1.9562 -0.6080  0.7201
   31MOL   O56628826   3.092   4.442   7.609  0.3963  0.0950  0.1162
   31MOL   C56728827   3.106   4.302   7.569 -0.0448 -0.0415 -0.1202
   31MOL   C56828828   2.982   4.227   7.527  0.3490  0.1260  0.0945
   31MOL   C56928829   2.905   4.184   7.654 -0.1298 -0.7237 -0.5469
   31MOL   C57028830   2.817   4.282   7.732  0.1384 -0.4537  0.3811
   31MOL   C57128831   2.738   4.216   7.843 -0.0930 -0.0483  0.9732
   31MOL   C57228832   2.783   4.235   0.013  0.0356 -0.5099 -0.3961
   31MOL   C57328833   2.687   4.177   0.121  0.3478 -0.0132 -0.2113
   31MOL   C57428834   2.733   4.216   0.266  0.2538 -0.1265  0.0780
   31MOL   C57528835   2.649   4.136   0.369 -0.3754  0.0468 -0.0690
   31MOL   C57628836   2.683   4.178   0.517  0.2616 -0.0132 -0.6716
   31MOL   O57728837   2.815   4.140   0.534 -0.0589 -0.1220  0.1624
   31MOL   C57828838   2.892   4.205   0.621 -0.1446 -0.0488  1.1757
   31MOL   O57928839   2.849   4.293   0.691 -0.2997  0.0620 -0.0488
   31MOL   C58028840   3.032   4.162   0.618  0.5643  0.6073  0.5271
   31MOL   C58128841   3.068   4.023   0.602  0.4458  0.3271 -0.0690
   31MOL   C58228842   3.207   3.981   0.600 -0.5240  0.8275  0.5491
   31MOL   C58328843   3.311   4.070   0.619 -0.1028 -0.5711  0.0399
   31MOL   C58428844   3.457   4.013   0.631 -0.5109  0.4980 -0.7193
   31MOL   O58528845   3.489   3.896   0.628 -0.0411  0.1182  0.1236
   31MOL   O58628846   3.544   4.118   0.649 -0.5752 -0.4856  0.3217
   31MOL   C58728847   3.271   4.202   0.642  0.8562 -0.2004 -0.2913
   31MOL   C58828848   3.135   4.251   0.646 -0.2749  0.6745 -0.3749
   31MOL   H58928849   3.165   4.298   7.477  0.6446  3.4264  0.1021
   31MOL   H59028850   3.159   4.247   7.647 -0.4044  1.7011  1.3833
   31MOL   H59128851   3.018   4.149   7.461  3.3635  1.1775  0.4242
   31MOL   H59228852   2.911   4.280   7.463 -0.2258 -0.0350  0.5955
   31MOL   H59328853   2.837   4.102   7.634  0.3730 -1.3274  0.1982
   31MOL   H59428854   2.973   4.141   7.727 -1.2165  1.0084  1.5470
   31MOL   H59528855   2.748   4.338   7.668 -0.8092  1.3413  2.8665
   31MOL   H59628856   2.875   4.361   7.780 -2.1320  0.6856  1.3753
   31MOL   H59728857   2.638   4.256   7.830  1.0905  2.2192 -1.8428
   31MOL   H59828858   2.722   4.110   7.826  0.3151 -0.0759  0.7534
   31MOL   H59928859   2.883   4.198   0.035 -0.1075 -0.4412  0.3558
   31MOL   H60028860   2.777   4.340   0.040 -2.4822 -0.8231  0.3866
   31MOL   H60128861   2.584   4.204   0.100  0.6202  0.7472 -0.5896
   31MOL   H60228862   2.693   4.069   0.111 -2.4592 -0.1510 -0.8010
   31MOL   H60328863   2.836   4.182   0.276  0.6662  0.6833 -1.3600
   31MOL   H60428864   2.734   4.325   0.272 -4.1595  0.0645 -0.8475
   31MOL   H60528865   2.659   4.028   0.356 -0.8193 -0.1471  1.1070
   31MOL   H60628866   2.544   4.149   0.344 -0.1151  1.2393 -0.5668
   31MOL   H60728867   2.615   4.127   0.586  0.4991  0.3969 -0.1328
   31MOL   H60828868   2.662   4.284   0.529  1.0585 -0.1313  2.0787
   31MOL   H60928869   2.988   3.950   0.598  0.7723 -0.1456  1.6821
   31MOL   H61028870   3.226   3.875   0.596 -0.5894  0.8641 -1.0099
   31MOL   H61128871   3.347   4.270   0.676  0.2498  0.4763 -0.2912
   31MOL   H61228872   3.115   4.353   0.676  1.0890 -0.0160  3.0734
   31MOL   O61328873   3.696   4.073   0.663  0.5142  0.3763 -0.3010
   31MOL   C61428874   3.727   4.079   0.802 -0.8072  0.2006 -0.4811
   31MOL   C61528875   3.878   4.054   0.824 -0.4751  0.1118 -0.1054
   31MOL   C61628876   3.902   3.908   0.770  0.2022 -0.4486 -0.3235
   31MOL   C61728877   4.053   3.876   0.764 -0.3888 -0.0574  0.2538
   31MOL   C61828878   4.082   3.746   0.684 -0.5416  0.1057 -0.3069
   31MOL   C61928879   4.044   3.631   0.770  0.8130  0.2359  0.0160
   31MOL   C62028880   4.143   3.595   0.875  0.2340 -0.5781  0.5193
   31MOL   C62128881   4.109   3.468   0.959 -0.8234 -0.6595  0.3359
   31MOL   C62228882   4.223   3.462   1.069 -0.2823 -0.4574 -0.3834
   31MOL   C62328883   4.222   3.341   1.164  0.4461 -0.3677  0.0292
   31MOL   O62428884   4.093   3.318   1.233 -0.2414 -0.6087  0.9283
   31MOL   C62528885   4.071   3.315   1.368  0.2515 -0.3107 -0.5203
   31MOL   O62628886   4.163   3.317   1.453 -0.3685  0.7147  0.2804
   31MOL   C62728887   3.926   3.297   1.397  0.5280 -0.3047 -0.6286
   31MOL   C62828888   3.889   3.230   1.512  0.5321  0.7847 -0.0624
   31MOL   C62928889   3.755   3.209   1.544  0.9125  0.9696  0.4552
   31MOL   C63028890   3.651   3.265   1.460  0.0343  0.0539 -0.6897
   31MOL   C63128891   3.507   3.257   1.503  0.0270 -0.0457 -0.1347
   31MOL   O63228892   3.473   3.233   1.625  0.1540  0.3800  0.3682
   31MOL   O63328893   3.419   3.281   1.410 -0.3815  0.2817  0.2117
   31MOL   C63428894   3.687   3.330   1.341  0.1272 -0.7203  0.4646
   31MOL   C63528895   3.826   3.351   1.313  0.1125  0.2353 -1.1143
   31MOL   H63628896   3.691   4.177   0.833 -1.7937 -1.1439  2.7802
   31MOL   H63728897   3.660   4.008   0.852 -1.2551  0.6856 -0.3860
   31MOL   H63828898   3.897   4.073   0.930 -0.9930 -1.5206  0.2857
   31MOL   H63928899   3.941   4.121   0.765  0.3941 -0.6540 -0.0502
   31MOL   H64028900   3.843   3.836   0.828  1.0001 -0.8251  0.0326
   31MOL   H64128901   3.856   3.896   0.672  1.9766  2.1703 -1.4998
   31MOL   H64228902   4.088   3.869   0.867 -1.0786 -0.8885  0.4410
   31MOL   H64328903   4.102   3.962   0.718  0.6586  0.2671  1.9444
   31MOL   H64428904   4.027   3.757   0.590  2.2982  1.2994 -1.8952
   31MOL   H64528905   4.185   3.739   0.649 -0.1882 -0.7103  0.8974
   31MOL   H64628906   3.944   3.643   0.812 -0.2337 -2.0159 -1.7387
   31MOL   H64728907   4.030   3.551   0.697  2.1474  1.2488 -1.4056
   31MOL   H64828908   4.234   3.587   0.816 -0.3907 -0.6300 -0.4517
   31MOL   H64928909   4.163   3.673   0.949 -1.5320 -0.3948  0.8372
   31MOL   H65028910   4.012   3.471   1.008 -0.9382 -1.4403  0.1692
   31MOL   H65128911   4.113   3.384   0.890  0.0365  0.7266 -1.3393
   31MOL   H65228912   4.207   3.551   1.129 -0.4512  2.1170 -4.0911
   31MOL   H65328913   4.318   3.468   1.016 -0.5772  1.0694 -0.7509
   31MOL   H65428914   4.292   3.350   1.248  0.2658 -2.0908  0.3799
   31MOL   H65528915   4.234   3.252   1.103 -1.3671 -0.5451 -0.0893
   31MOL   H65628916   3.965   3.200   1.583 -0.1571  0.3640  0.5097
   31MOL   H65728917   3.736   3.153   1.635  0.8185  0.0709 -0.1182
   31MOL   H65828918   3.615   3.373   1.274  2.8019  0.9955 -1.3989
   31MOL   H65928919   3.845   3.396   1.217 -1.4957  0.4555 -1.3445
   31MOL   O66028920   3.280   3.301   1.458  0.5003  0.6876  0.2388
   31MOL   C66128921   3.247   3.440   1.450  0.1795 -0.5014  0.0227
   31MOL   C66228922   3.291   3.498   1.317  0.0295  0.8118  0.3852
   31MOL   C66328923   3.236   3.424   1.195 -0.3889 -0.4487  0.0932
   31MOL   C66428924   3.267   3.486   1.052  0.3563  0.0993 -0.0671
   31MOL   C66528925   3.411   3.462   1.007  0.1315 -0.1311  0.4710
   31MOL   C66628926   3.471   3.536   0.888  0.1128 -0.2912 -0.6847
   31MOL   C66728927   3.617   3.504   0.844 -0.0117  0.6618 -0.6784
   31MOL   C66828928   3.661   3.566   0.715 -0.4058 -0.3163  0.3346
   31MOL   C66928929   3.561   3.535   0.598 -0.3289 -0.6994 -0.8278
   31MOL   C67028930   3.616   3.586   0.466 -0.2276  0.6308 -0.1895
   31MOL   O67128931   3.538   3.542   0.360  0.3003 -0.6416 -0.0248
   31MOL   C67228932   3.592   3.510   0.240  0.0501 -0.2856 -0.0376
   31MOL   O67328933   3.711   3.480   0.219 -0.3815  0.6055  0.1392
   31MOL   C67428934   3.487   3.533   0.130 -0.4667 -0.4861  0.9769
   31MOL   C67528935   3.526   3.538   7.972  0.2722 -0.1531 -0.1216
   31MOL   C67628936   3.436   3.562   7.867 -0.5932 -0.5080  0.5258
   31MOL   C67728937   3.301   3.580   7.899 -1.0651  0.0440  0.1859
   31MOL   C67828938   3.201   3.608   7.786 -0.3210  0.2981 -0.0888
   31MOL   O67928939   3.234   3.640   7.671  0.4284  0.4193  0.1430
   31MOL   O68028940   3.070   3.570   7.814  1.0862 -0.5320 -0.0141
   31MOL   C68128941   3.260   3.565   0.050 -0.0941  0.5795  0.4245
   31MOL   C68228942   3.347   3.537   0.157 -0.2530  0.0775  0.2361
   31MOL   H68328943   3.141   3.454   1.469  0.0059 -1.8712  0.1460
   31MOL   H68428944   3.300   3.497   1.526  0.7426 -1.9245  0.7203
   31MOL   H68528945   3.400   3.504   1.308  0.2945  0.4265  2.9180
   31MOL   H68628946   3.260   3.603   1.309  0.3232  0.8114 -0.9890
   31MOL   H68728947   3.277   3.323   1.197  0.7122 -0.0087  3.0802
   31MOL   H68828948   3.128   3.414   1.201 -0.2649 -1.4080  1.0219
   31MOL   H68928949   3.243   3.592   1.047 -0.2880  0.0789  2.1065
   31MOL   H69028950   3.195   3.444   0.982 -1.8777  3.1562  0.2913
   31MOL   H69128951   3.468   3.479   1.098 -0.0024  1.5652  0.2560
   31MOL   H69228952   3.404   3.358   0.975 -1.6551 -0.3900  1.6903
   31MOL   H69328953   3.405   3.511   0.805 -1.3781 -2.0144  0.9683
   31MOL   H69428954   3.458   3.643   0.902  0.0237 -0.1885 -1.4992
   31MOL   H69528955   3.687   3.541   0.919  0.6906  0.1933 -1.0950
   31MOL   H69628956   3.640   3.397   0.844 -0.8281  0.4788  0.2737
   31MOL   H69728957   3.670   3.673   0.731  2.3475 -0.6273  1.0578
   31MOL   H69828958   3.759   3.526   0.689 -0.3740  0.6446 -1.0683
   31MOL   H69928959   3.466   3.585   0.618  0.7807  0.9646  0.5323
   31MOL   H70028960   3.547   3.428   0.584 -0.6621 -0.8287  0.4325
   31MOL   H70128961   3.720   3.558   0.451  0.2111  1.8406  0.4662
   31MOL   H70228962   3.609   3.695   0.464  0.3088  0.6425 -1.4238
   31MOL   H70328963   3.630   3.527   7.943 -0.0231 -1.9331 -0.5678
   31MOL   H70428964   3.471   3.569   7.765  0.3834  0.4578  0.9157
   31MOL   H70528965   3.153   3.557   0.062 -0.0821 -1.1199 -0.4517
   31MOL   H70628966   3.314   3.529   0.260  1.1586 -1.4735  0.5717
   31MOL   O70728967   2.979   3.547   7.693  0.7290 -0.2173  0.2718
   31MOL   C70828968   2.991   3.408   7.642 -0.6072  0.0281 -0.1779
   31MOL   C70928969   2.901   3.316   7.725  0.0293 -0.1962 -0.4600
   31MOL   C71028970   2.890   3.178   7.675  0.6516  0.4428  0.9931
   31MOL   C71128971   2.782   3.104   7.753  0.0990  0.3376  0.5415
   31MOL   C71228972   2.744   2.965   7.693  0.1995 -0.4706 -0.2993
   31MOL   C71328973   2.635   2.903   7.776  0.1514  0.6428 -0.3144
   31MOL   C71428974   2.584   2.769   7.716  0.9743 -0.6338 -0.3908
   31MOL   C71528975   2.488   2.694   7.802  0.3157  0.3242 -0.3903
   31MOL   C71628976   2.419   2.580   7.722  0.5130  0.4824 -0.2289
   31MOL   C71728977   2.352   2.467   7.802  0.2562 -0.1152 -0.8854
   31MOL   O71828978   2.277   2.389   7.716  0.6443 -0.3535 -0.5654
   31MOL   C71928979   2.165   2.316   7.753  1.1077 -0.5988  0.3674
   31MOL   O72028980   2.131   2.299   7.873  0.3228 -0.4623  0.0590
   31MOL   C72128981   2.094   2.277   7.631 -0.0916  1.0161 -0.3241
   31MOL   C72228982   2.150   2.286   7.497  0.0135 -0.2111  0.1880
   31MOL   C72328983   2.065   2.269   7.386  0.4877  0.4972  0.8253
   31MOL   C72428984   1.936   2.222   7.403  0.7098  0.3086  0.2346
   31MOL   C72528985   1.845   2.207   7.283 -0.1331 -0.4452  0.2109
   31MOL   O72628986   1.890   2.211   7.169 -0.3114  0.1916  0.1283
   31MOL   O72728987   1.718   2.191   7.307 -0.2313 -0.9741  0.4192
   31MOL   C72828988   1.884   2.201   7.533  0.0627  0.0276 -0.0850
   31MOL   C72928989   1.966   2.228   7.643  0.4339 -0.2469  0.3032
   31MOL   H73028990   2.953   3.408   7.540 -0.0125  1.8557 -0.4124
   31MOL   H73128991   3.094   3.377   7.626 -2.1798 -5.0687 -1.4219
   31MOL   H73228992   2.799   3.349   7.742 -0.2762 -1.5717  0.4507
   31MOL   H73328993   2.943   3.319   7.825  1.2549 -0.8692 -0.9381
   31MOL   H73428994   2.851   3.160   7.575 -0.2553 -1.2250  1.6280
   31MOL   H73528995   2.978   3.116   7.693  0.6717  0.5262  1.1912
   31MOL   H73628996   2.686   3.156   7.759 -0.2582 -0.4916  2.4080
   31MOL   H73728997   2.817   3.096   7.856 -1.9540  0.0842  1.2450
   31MOL   H73828998   2.723   2.976   7.587  1.3491  0.0586 -0.4805
   31MOL   H73928999   2.835   2.906   7.695  0.0832 -0.6723 -0.7688
   31MOL   H74029000   2.675   2.886   7.876 -0.6324 -1.3072 -0.3091
   31MOL   H74129001   2.554   2.975   7.791  1.5304  2.7598 -2.6908
   31MOL   H74229002   2.535   2.781   7.619  0.9929 -1.2830 -0.4804
   31MOL   H74329003   2.675   2.713   7.693  1.5429  1.1674 -2.8223
   31MOL   H74429004   2.526   2.663   7.899 -0.6389  1.3822  0.3325
   31MOL   H74529005   2.416   2.770   7.834 -1.3030 -1.2631 -0.1749
   31MOL   H74629006   2.499   2.531   7.666  0.1766 -0.9648  0.5306
   31MOL   H74729007   2.345   2.623   7.654  0.5181  0.5171 -0.2129
   31MOL   H74829008   2.290   2.505   7.883 -0.3191  0.0204 -1.3938
   31MOL   H74929009   2.428   2.411   7.858  0.6644 -0.5638 -1.8752
   31MOL   H75029010   2.253   2.312   7.481  0.0970  0.5787  1.9515
   31MOL   H75129011   2.107   2.279   7.287 -0.7739 -1.3378  0.0813
   31MOL   H75229012   1.781   2.174   7.547  0.0924 -1.3507 -2.3276
   31MOL   H75329013   1.921   2.225   7.741  0.1242  1.7900  0.2457
   31MOL   O75429014   1.615   2.219   7.190  0.3847 -0.5362  0.5707
   31MOL   C75529015   1.570   2.098   7.139 -0.0344  0.3606 -0.7790
   31MOL   C75629016   1.452   2.046   7.217  0.4246 -0.0641 -0.0977
   31MOL   C75729017   1.490   2.019   7.371 -0.3736  0.5682  0.7090
   31MOL   C75829018   1.363   1.965   7.446  0.1420  0.9838  0.3595
   31MOL   C75929019   1.391   1.857   7.555 -0.0341  0.3793  0.2476
   31MOL   C76029020   1.265   1.799   7.610  0.4180 -0.6126  0.2876
   31MOL   C76129021   1.290   1.679   7.704 -0.1017  0.3152  0.3624
   31MOL   C76229022   1.164   1.614   7.760 -0.8210  0.5951  0.4450
   31MOL   C76329023   1.200   1.533   7.891  0.0268 -0.6627  0.1188
   31MOL   C76429024   1.270   1.394   7.861  0.0647 -0.9096 -0.4921
   31MOL   O76529025   1.185   1.314   7.777  0.5463  0.1929 -0.6763
   31MOL   C76629026   1.239   1.218   7.695 -0.7601 -0.5771 -0.1207
   31MOL   O76729027   1.357   1.189   7.701 -0.4160 -0.2913 -0.2562
   31MOL   C76829028   1.143   1.154   7.604  0.1735 -0.5358  0.1175
   31MOL   C76929029   1.190   1.046   7.525 -0.3047  0.0956  1.0739
   31MOL   C77029030   1.103   0.984   7.429 -0.3758 -1.1356  0.1136
   31MOL   C77129031   0.965   1.019   7.434  0.1833 -0.2764 -0.4525
   31MOL   C77229032   0.872   0.961   7.328 -0.1714 -0.2058 -0.5911
   31MOL   O77329033   0.911   0.879   7.241  0.5787  0.2395  0.3068
   31MOL   O77429034   0.750   1.018   7.333 -0.2072 -0.0112  0.1164
   31MOL   C77529035   0.922   1.117   7.523  0.2331  0.5609  0.8603
   31MOL   C77629036   1.011   1.191   7.599 -0.6725 -0.4051 -0.3176
   31MOL   H77729037   1.548   2.129   7.037  0.0818  1.9199 -0.3461
   31MOL   H77829038   1.650   2.024   7.130  0.6308  1.0479 -0.5373
   31MOL   H77929039   1.408   1.962   7.161  0.3607  0.9681 -1.6239
   31MOL   H78029040   1.377   2.124   7.204 -0.7079 -1.3233 -1.2987
   31MOL   H78129041   1.568   1.942   7.376 -1.5210 -0.5994  0.7441
   31MOL   H78229042   1.530   2.109   7.417  0.0564  0.8231 -0.1731
   31MOL   H78329043   1.309   1.905   7.373 -1.2734  0.7511  1.5752
   31MOL   H78429044   1.307   2.042   7.499 -1.2214  0.7893 -0.7717
   31MOL   H78529045   1.447   1.772   7.516 -0.6755 -0.8404  1.9164
   31MOL   H78629046   1.453   1.906   7.630 -0.1852  1.8683 -0.5943
   31MOL   H78729047   1.210   1.872   7.669  0.7478  0.7554 -1.0578
   31MOL   H78829048   1.202   1.764   7.527  3.0948  0.1359 -2.1613
   31MOL   H78929049   1.358   1.605   7.661 -2.0233 -1.1812 -0.1733
   31MOL   H79029050   1.352   1.728   7.778 -0.3870  1.3060 -0.0527
   31MOL   H79129051   1.096   1.691   7.797  0.3609  1.0132  1.8175
   31MOL   H79229052   1.107   1.548   7.695  0.1018  1.2969 -1.1198
   31MOL   H79329053   1.104   1.510   7.938  1.1359 -2.3789  1.6175
   31MOL   H79429054   1.255   1.585   7.970 -1.0465  0.5697  0.0719
   31MOL   H79529055   1.288   1.329   7.946 -0.2463  0.0281  0.3040
   31MOL   H79629056   1.370   1.420   7.826 -0.8207  0.6291 -1.9781
   31MOL   H79729057   1.297   1.032   7.524 -0.2676  0.4304  0.0769
   31MOL   H79829058   1.142   0.904   7.369  1.0716 -0.1390 -0.3148
   31MOL   H79929059   0.818   1.145   7.528  0.0594 -0.1213  1.2789
   31MOL   H80029060   0.971   1.266   7.665 -1.0085  1.0761 -2.1659
   31MOL   O80129061   0.661   0.978   7.223 -0.5214 -0.0897 -0.1278
   31MOL   C80229062   0.575   0.883   7.275 -0.1324 -0.8072  0.0287
   31MOL   C80329063   0.505   0.825   7.150  0.2094  0.4310  0.3171
   31MOL   C80429064   0.429   0.933   7.070 -0.2221  0.4420  0.2723
   31MOL   C80529065   0.373   0.878   6.941 -0.6273  0.3116 -0.3668
   31MOL   C80629066   0.305   0.993   6.865 -0.1400 -0.3153 -0.3112
   31MOL   C80729067   0.241   0.949   6.738 -0.1251  0.5596  0.4395
   31MOL   C80829068   0.210   1.061   6.642  0.0905  0.1957  0.4062
   31MOL   C80929069   0.147   1.022   6.507 -0.1800  0.1879 -0.5174
   31MOL   C81029070   0.238   0.950   6.405  0.6372 -0.7442  0.9339
   31MOL   C81129071   0.216   1.003   6.259  0.0825 -0.6787  0.3097
   31MOL   O81229072   0.077   0.977   6.223  0.0753 -0.0311  0.5906
   31MOL   C81329073   0.021   1.060   6.122 -0.9574 -0.2591  0.2033
   31MOL   O81429074   0.079   1.148   6.063 -0.0750 -0.1236 -0.2958
   31MOL   C81529075   7.857   1.022   6.100  0.3691  0.1248 -0.0054
   31MOL   C81629076   7.790   0.915   6.170 -0.1595  0.4839 -0.2986
   31MOL   C81729077   7.661   0.884   6.135 -0.5692 -0.0581 -0.2827
   31MOL   C81829078   7.593   0.954   6.034  0.7466 -0.0148  0.6859
   31MOL   C81929079   7.449   0.916   6.000 -0.3616 -0.5838 -0.6633
   31MOL   O82029080   7.389   0.824   6.058  0.0312 -0.2455  0.6787
   31MOL   O82129081   7.401   0.986   5.893 -0.2513 -0.0445  0.2062
   31MOL   C82229082   7.650   1.064   5.965 -0.3809 -0.3928  0.0291
   31MOL   C82329083   7.785   1.095   5.999  0.3211 -0.3894  0.0325
   31MOL   H82429084   0.629   0.807   7.333  1.4200  0.3980  0.2044
   31MOL   H82529085   0.500   0.930   7.338  1.5187  0.3741  1.1786
   31MOL   H82629086   0.444   0.740   7.180  0.5209  0.1925  0.2650
   31MOL   H82729087   0.583   0.781   7.088  0.9191  0.4828  1.1694
   31MOL   H82829088   0.345   0.970   7.128 -1.1550  0.1185 -0.8569
   31MOL   H82929089   0.490   1.020   7.049  1.7700 -0.7990  0.7199
   31MOL   H83029090   0.296   0.805   6.964 -1.2154  0.0360 -3.1097
   31MOL   H83129091   0.455   0.843   6.879  1.2792 -0.4862  2.4678
   31MOL   H83229092   0.222   1.045   6.914 -0.3161 -0.0692 -0.8653
   31MOL   H83329093   0.380   1.070   6.846  1.4455 -1.2980  1.7716
   31MOL   H83429094   0.308   0.879   6.688 -0.5616 -0.7635  1.6466
   31MOL   H83529095   0.155   0.886   6.763 -0.3779 -0.9736 -3.9720
   31MOL   H83629096   0.146   1.127   6.702 -0.8309 -0.8869  0.6192
   31MOL   H83729097   0.302   1.119   6.633 -0.1486  0.2694 -1.6171
   31MOL   H83829098   0.053   0.969   6.523 -1.3981  2.7575  1.1412
   31MOL   H83929099   0.119   1.108   6.447  1.6094 -0.0527 -1.7320
   31MOL   H84029100   0.215   0.845   6.424  0.0315 -0.6839  0.5344
   31MOL   H84129101   0.344   0.956   6.431  0.7280  1.0343  0.1882
   31MOL   H84229102   0.287   0.967   6.185 -1.7068 -2.5292 -0.5595
   31MOL   H84329103   0.227   1.111   6.252  0.8941 -0.8938 -1.9534
   31MOL   H84429104   7.828   0.858   6.254 -0.4852 -0.8862 -1.0740
   31MOL   H84529105   7.602   0.802   6.173 -2.7345  1.0471 -1.1882
   31MOL   H84629106   7.612   1.132   5.890  0.6396  1.8788  1.5086
   31MOL   H84729107   7.826   1.189   5.965 -1.2763  0.1215 -0.5433
   31MOL   O84829108   7.292   0.911   5.820  0.5677 -0.3301  0.1551
   31MOL   C84929109   7.164   0.971   5.851  0.4055 -1.1229  0.3677
   31MOL   C85029110   7.042   0.889   5.784 -0.1450  0.3350  0.2479
   31MOL   C85129111   6.909   0.917   5.861 -0.0045  0.4789 -0.7843
   31MOL   C85229112   6.801   0.815   5.835  0.2008  0.2257 -0.1450
   31MOL   C85329113   6.790   0.765   5.686 -0.3296 -0.3820  0.6150
   31MOL   C85429114   6.665   0.679   5.661 -0.4702  0.1483 -0.1424
   31MOL   C85529115   6.689   0.565   5.557 -0.3798  0.9664 -0.7047
   31MOL   C85629116   6.555   0.492   5.524  1.0117  0.5498  0.3476
   31MOL   C85729117   6.578   0.389   5.405  0.1723 -0.4396 -0.0036
   31MOL   C85829118   6.451   0.333   5.338  0.5184 -0.0077 -0.1503
   31MOL   O85929119   6.482   0.274   5.208 -0.0462  0.0508 -0.1039
   31MOL   C86029120   6.395   0.188   5.146 -0.6355  0.3035 -0.4422
   31MOL   O86129121   6.300   0.142   5.208 -0.4594 -0.6795 -0.5523
   31MOL   C86229122   6.445   0.138   5.021 -0.6695 -0.0819  0.6061
   31MOL   C86329123   6.547   0.205   4.949 -1.1262  0.5150  0.8335
   31MOL   C86429124   6.584   0.157   4.818  0.2121 -0.4655 -0.2122
   31MOL   C86529125   6.531   0.036   4.766 -0.0816  0.3278 -0.3360
   31MOL   C86629126   6.563   7.971   4.631 -0.8059  0.2254 -0.1295
   31MOL   O86729127   6.538   7.854   4.601 -0.2233 -0.3925  0.2246
   31MOL   O86829128   6.624   0.083   4.554  0.0971 -0.3249  0.1194
   31MOL   C86929129   6.440   7.941   4.844  0.0829 -0.7220  0.5651
   31MOL   C87029130   6.393   0.014   4.965  0.4806  0.5883  0.0234
   31MOL   H87129131   7.154   0.985   5.958  1.9814 -0.6040  0.4564
   31MOL   H87229132   7.142   1.075   5.824 -2.0862 -1.6131  0.3969
   31MOL   H87329133   7.060   0.782   5.776 -1.9341  0.0124  0.3534
   31MOL   H87429134   7.040   0.922   5.680  2.2123 -1.1184 -0.2974
   31MOL   H87529135   6.935   0.897   5.965 -0.5909  0.4884 -0.6299
   31MOL   H87629136   6.880   1.022   5.859  0.8410  0.8112  2.4966
   31MOL   H87729137   6.705   0.863   5.855 -0.1151 -0.0855 -0.9059
   31MOL   H87829138   6.816   0.724   5.893 -2.2237  0.1240  0.3896
   31MOL   H87929139   6.791   0.854   5.623 -0.5249  0.6025  1.9812
   31MOL   H88029140   6.885   0.714   5.669 -0.2434 -0.9806  2.6932
   31MOL   H88129141   6.635   0.625   5.751  0.7883 -0.6198 -0.1762
   31MOL   H88229142   6.585   0.748   5.632 -2.2153 -1.7160  0.1341
   31MOL   H88329143   6.720   0.603   5.460 -0.5092  1.3964 -0.5795
   31MOL   H88429144   6.753   0.482   5.586 -0.5300  0.1774 -2.5705
   31MOL   H88529145   6.517   0.440   5.612  1.3669  0.8197  0.6614
   31MOL   H88629146   6.487   0.568   5.485  1.8105 -0.5088 -3.2434
   31MOL   H88729147   6.642   0.306   5.434 -1.1333 -1.3791  0.2720
   31MOL   H88829148   6.632   0.434   5.322  0.3965 -0.4864  0.1154
   31MOL   H88929149   6.378   0.411   5.316 -0.0656 -0.3106  0.6943
   31MOL   H89029150   6.393   0.272   5.407  0.4246 -0.6246 -0.7609
   31MOL   H89129151   6.590   0.302   4.972 -0.7231  0.2733  1.1069
   31MOL   H89229152   6.632   0.226   4.750 -2.2990  0.1103 -1.4850
   31MOL   H89329153   6.392   7.851   4.808  0.0499  0.1215 -1.5512
   31MOL   H89429154   6.328   7.926   5.021  0.5743  0.0587 -0.4989
   31MOL   O89529155   6.638   0.043   4.413  0.6461  0.7904  0.2633
   31MOL   C89629156   6.566   0.132   4.328 -0.3389 -0.4138  0.1304
   31MOL   C89729157   6.421   0.148   4.370 -0.0078 -0.1469 -0.1855
   31MOL   C89829158   6.334   0.203   4.258  0.4698 -0.1918  0.0229
   31MOL   C89929159   6.180   0.217   4.286 -0.0571  0.0745 -0.1706
   31MOL   C90029160   6.114   0.079   4.328 -0.6173  0.1200 -0.4717
   31MOL   C90129161   5.960   0.090   4.329  0.6649 -0.3310  0.2783
   31MOL   C90229162   5.893   7.941   4.368 -0.4753 -0.0278 -0.4462
   31MOL   C90329163   5.751   7.976   4.390  0.3948  0.4177 -0.2323
   31MOL   C90429164   5.671   7.855   4.438 -0.3776 -0.2651  0.2561
   31MOL   C90529165   5.527   7.902   4.462  0.2865  0.4870  0.5383
   31MOL   O90629166   5.444   7.801   4.505 -0.0066 -0.2289 -0.2513
   31MOL   C90729167   5.374   7.813   4.620  0.1159  0.1980  0.1066
   31MOL   O90829168   5.375   7.911   4.690 -0.2071 -0.3595  0.0494
   31MOL   C90929169   5.300   7.687   4.656  0.3783  0.1023  0.0597
   31MOL   C91029170   5.311   7.574   4.573  0.4860  0.1407 -0.5841
   31MOL   C91129171   5.235   7.453   4.602 -0.0316  0.1125  0.7517
   31MOL   C91229172   5.160   7.441   4.718  0.4229 -0.4802 -0.5630
   31MOL   C91329173   5.075   7.319   4.738 -0.4500  0.1593 -0.4758
   31MOL   O91429174   5.074   7.219   4.666  0.2877  0.0760  0.6447
   31MOL   O91529175   4.991   7.334   4.846 -0.0183 -0.0202  0.0028
   31MOL   C91629176   5.150   7.556   4.801  0.9471  0.2278  0.1150
   31MOL   C91729177   5.221   7.681   4.771 -0.0727  0.7696  0.0271
   31MOL   H91829178   6.614   0.229   4.310 -1.0036  0.0146  0.6176
   31MOL   H91929179   6.585   0.072   4.239  2.9237 -1.2110  1.3011
   31MOL   H92029180   6.414   0.205   4.463  1.3308  3.0664 -1.9668
   31MOL   H92129181   6.372   0.053   4.391 -1.6733  0.6803 -0.2302
   31MOL   H92229182   6.372   0.301   4.228  1.6786 -0.8384 -0.5894
   31MOL   H92329183   6.340   0.146   4.165 -0.0935 -2.2857  1.2457
   31MOL   H92429184   6.126   0.260   4.201  0.1941  1.9201  0.5841
   31MOL   H92529185   6.159   0.291   4.362 -2.7779 -1.9602  1.1211
   31MOL   H92629186   6.141   0.001   4.256 -2.3412  1.0772 -2.2058
   31MOL   H92729187   6.148   0.038   4.423 -0.8039  0.0945 -0.4168
   31MOL   H92829188   5.943   0.169   4.402 -1.9022 -0.3468 -0.2488
   31MOL   H92929189   5.922   0.135   4.237  0.6607  1.9990  1.3586
   31MOL   H93029190   5.908   7.864   4.292 -0.3821  0.2914 -0.7518
   31MOL   H93129191   5.938   7.907   4.462 -0.2305 -2.1241 -1.2937
   31MOL   H93229192   5.740   0.080   4.460  0.2953 -0.8171  1.2139
   31MOL   H93329193   5.715   0.038   4.295  1.3225 -0.1404 -0.8343
   31MOL   H93429194   5.710   7.805   4.526 -0.2877 -1.4702 -0.4544
   31MOL   H93529195   5.668   7.788   4.352  0.1327  1.6327 -1.2882
   31MOL   H93629196   5.499   7.937   4.362  0.9772  0.5357  0.3582
   31MOL   H93729197   5.519   0.016   4.520 -2.0057 -0.6740  2.1429
   31MOL   H93829198   5.369   7.581   4.482  0.0822  0.8833 -0.7892
   31MOL   H93929199   5.248   7.373   4.530 -1.9369  1.0033 -0.6418
   31MOL   H94029200   5.082   7.557   4.885  1.1345 -0.4136  0.2813
   31MOL   H94129201   5.218   7.763   4.840 -0.4012 -0.3200  1.3379
   31MOL   H94229202   4.954   7.247   4.842  0.5381 -0.2319 -0.6814
   32MOL     O129203   6.586   4.046   1.520 -0.6972 -0.4884  0.1684
   32MOL     C229204   6.471   4.053   1.428 -0.6474 -0.4657 -0.2050
   32MOL     C329205   6.382   4.168   1.469 -0.2707 -0.3906 -0.3033
   32MOL     C429206   6.466   4.298   1.483  0.1578 -0.7606  0.2309
   32MOL     C529207   6.386   4.422   1.527 -0.3325  0.3915  0.2720
   32MOL     C629208   6.477   4.538   1.561 -0.2223 -0.5146  0.0830
   32MOL     C729209   6.396   4.655   1.611 -0.1110 -0.0535  0.5273
   32MOL     C829210   6.476   4.777   1.655 -0.0063 -0.3344  0.2021
   32MOL     C929211   6.536   4.869   1.550 -0.0338 -0.5688 -0.2868
   32MOL    C1029212   6.604   4.994   1.607  0.3932 -0.2028  0.0329
   32MOL    C1129213   6.510   5.090   1.686  0.1686 -0.2591 -0.7071
   32MOL    O1229214   6.403   5.146   1.619 -0.1248 -0.4189  0.1996
   32MOL    C1329215   6.283   5.110   1.631 -0.0470 -0.1926 -0.4785
   32MOL    O1429216   6.246   5.017   1.705  0.4590  0.4521 -0.0842
   32MOL    C1529217   6.180   5.184   1.548 -0.2794  1.0496 -0.2801
   32MOL    C1629218   6.050   5.127   1.528 -0.0311 -0.1449  0.6901
   32MOL    C1729219   5.943   5.195   1.452 -0.4354  0.2787 -0.2147
   32MOL    C1829220   5.972   5.329   1.406  1.0775  0.2786  0.2344
   32MOL    C1929221   5.871   5.413   1.327 -0.1956  0.3031 -0.2298
   32MOL    O2029222   5.898   5.527   1.296  0.5799  0.1706  0.7204
   32MOL    O2129223   5.752   5.353   1.314  0.1453  0.7846 -0.3844
   32MOL    C2229224   6.102   5.375   1.423  0.5430 -0.4470  0.4254
   32MOL    C2329225   6.204   5.302   1.484 -0.3148 -0.8001  0.4392
   32MOL    H2429226   6.515   4.074   1.331  0.5706 -2.1360 -0.0439
   32MOL    H2529227   6.429   3.953   1.435  0.3458 -0.9479 -0.9466
   32MOL    H2629228   6.319   4.144   1.555 -1.1336  2.9204  0.0611
   32MOL    H2729229   6.303   4.186   1.396  0.2529  0.6161 -0.6301
   32MOL    H2829230   6.532   4.289   1.570  2.7355  1.7039 -1.3530
   32MOL    H2929231   6.535   4.313   1.399 -0.4634  0.9917  0.0161
   32MOL    H3029232   6.315   4.395   1.606  1.0907 -0.4989  1.2762
   32MOL    H3129233   6.326   4.438   1.437  1.0093  1.3581 -0.4592
   32MOL    H3229234   6.550   4.515   1.639 -0.1633  2.6959  1.0369
   32MOL    H3329235   6.533   4.562   1.471  0.3093  2.1189  1.0623
   32MOL    H3429236   6.315   4.685   1.545 -0.7280  0.0515  1.3213
   32MOL    H3529237   6.337   4.614   1.693 -0.2997  0.0064  0.4210
   32MOL    H3629238   6.403   4.832   1.714 -0.0374 -1.0415  0.8155
   32MOL    H3729239   6.553   4.738   1.722 -0.0238  1.4477  1.2869
   32MOL    H3829240   6.602   4.822   1.477  0.7702 -0.2889  0.2631
   32MOL    H3929241   6.450   4.909   1.496 -0.3914 -1.8397 -0.6865
   32MOL    H4029242   6.639   5.047   1.518  0.1179  2.2223  1.3176
   32MOL    H4129243   6.697   4.981   1.662 -1.0115 -4.4776  1.5559
   32MOL    H4229244   6.570   5.173   1.722 -0.9675  0.4726 -0.4725
   32MOL    H4329245   6.466   5.043   1.774  1.5876 -0.3105 -0.0054
   32MOL    H4429246   6.036   5.029   1.569 -2.2103  0.4167  1.3695
   32MOL    H4529247   5.849   5.145   1.437 -0.2440 -0.4448  0.9237
   32MOL    H4629248   6.125   5.477   1.393 -3.0134  0.1541 -0.4040
   32MOL    H4729249   6.296   5.357   1.501 -0.2103 -1.2661  1.3711
   32MOL    H4829250   6.618   4.135   1.515  0.6309 -0.9056  0.8051
   32MOL    O4929251   5.647   5.446   1.269  0.2514  0.3549 -0.6396
   32MOL    C5029252   5.581   5.504   1.385  0.2214 -0.3051 -0.1303
   32MOL    C5129253   5.464   5.585   1.335  0.1229 -0.5547  0.3259
   32MOL    C5229254   5.407   5.675   1.444 -0.0403 -0.5757 -0.9656
   32MOL    C5329255   5.261   5.711   1.408 -0.1193 -0.1389 -1.3664
   32MOL    C5429256   5.194   5.779   1.529  0.5889 -0.4717  0.5674
   32MOL    C5529257   5.041   5.800   1.502 -0.4878  0.1355 -0.3927
   32MOL    C5629258   4.980   5.891   1.617  0.6098 -0.3401  0.0765
   32MOL    C5729259   4.993   6.040   1.573  0.1580 -1.4180  0.1024
   32MOL    C5829260   4.937   6.138   1.683 -0.4061  0.2317 -0.5442
   32MOL    C5929261   4.953   6.286   1.657  1.0669 -0.4056  0.7104
   32MOL    O6029262   4.839   6.333   1.579  0.0535  0.2758 -0.1875
   32MOL    C6129263   4.719   6.345   1.629 -0.2725 -0.1496  0.3403
   32MOL    O6229264   4.693   6.309   1.742  0.3897 -0.0567  0.6506
   32MOL    C6329265   4.615   6.411   1.540 -0.0122 -0.5856 -0.4348
   32MOL    C6429266   4.490   6.439   1.601 -0.6636 -0.5411 -0.4154
   32MOL    C6529267   4.392   6.522   1.542 -0.1222  0.7057  0.0660
   32MOL    C6629268   4.417   6.569   1.411  0.2945 -0.3640 -0.0913
   32MOL    C6729269   4.310   6.653   1.347  0.4138  0.5923 -0.7431
   32MOL    O6829270   4.196   6.654   1.390  0.2881  0.0362 -0.2273
   32MOL    O6929271   4.348   6.709   1.232 -0.3093 -0.0011  0.1073
   32MOL    C7029272   4.540   6.539   1.348 -0.2342 -0.6049 -0.0263
   32MOL    C7129273   4.642   6.464   1.413  0.6606  0.1717  0.9679
   32MOL    H7229274   5.548   5.428   1.455  0.9518 -2.0621 -1.6698
   32MOL    H7329275   5.648   5.568   1.443 -0.4817 -1.0951  1.5989
   32MOL    H7429276   5.394   5.515   1.287 -0.9463 -0.5492  1.8444
   32MOL    H7529277   5.509   5.651   1.261  0.5159  1.5592  2.4183
   32MOL    H7629278   5.398   5.633   1.545 -1.5956 -0.1315 -0.9110
   32MOL    H7729279   5.461   5.768   1.463 -1.0325 -0.1444 -0.1943
   32MOL    H7829280   5.205   5.624   1.374 -0.7404 -0.0971 -0.4775
   32MOL    H7929281   5.264   5.784   1.327  3.1253  0.2024 -1.0037
   32MOL    H8029282   5.208   5.736   1.628  0.5627 -1.2506  0.2349
   32MOL    H8129283   5.237   5.879   1.541 -0.0210 -0.0928 -0.3660
   32MOL    H8229284   5.022   5.837   1.402  2.2151  0.1700 -0.9233
   32MOL    H8329285   4.995   5.701   1.502 -1.1194  0.4083  1.6227
   32MOL    H8429286   4.874   5.866   1.620 -0.4891  3.5730 -2.4462
   32MOL    H8529287   5.012   5.873   1.720  0.7744  0.6559  0.1974
   32MOL    H8629288   5.091   6.070   1.535 -0.6510 -1.1324 -1.8229
   32MOL    H8729289   4.921   6.054   1.492 -1.2484 -0.1879  1.5457
   32MOL    H8829290   4.987   6.110   1.776 -1.0662 -1.3435 -0.6367
   32MOL    H8929291   4.836   6.113   1.715 -1.1077 -0.6037 -3.1992
   32MOL    H9029292   5.048   6.292   1.605 -0.2969 -1.2911 -1.9443
   32MOL    H9129293   4.943   6.350   1.744 -2.0587  0.6855 -0.3859
   32MOL    H9229294   4.464   6.410   1.702 -1.7180 -0.3399 -0.6196
   32MOL    H9329295   4.297   6.542   1.590 -0.4037  0.9526 -0.5928
   32MOL    H9429296   4.569   6.574   1.249 -2.0217  0.2765 -0.2453
   32MOL    H9529297   4.736   6.438   1.368  1.5656 -0.1820  2.9735
   32MOL    O9629298   4.243   6.811   1.185  0.5841  0.5095  0.6244
   32MOL    C9729299   4.166   6.760   1.075 -0.2850  0.3074  0.0067
   32MOL    C9829300   4.085   6.857   0.977 -0.1900  0.8304  0.2067
   32MOL    C9929301   4.174   6.949   0.897  0.2739 -0.4972  0.5597
   32MOL   C10029302   4.266   6.874   0.795  0.5593 -0.1623  0.0459
   32MOL   C10129303   4.414   6.887   0.840 -0.2157 -0.2814 -0.2843
   32MOL   C10229304   4.517   6.819   0.750  0.8158 -0.3529 -0.0816
   32MOL   C10329305   4.662   6.841   0.805 -0.0165 -0.1122  0.8006
   32MOL   C10429306   4.732   6.975   0.778  0.1014 -0.2243 -0.4492
   32MOL   C10529307   4.884   6.969   0.808  0.5619  0.8116  0.1200
   32MOL   C10629308   4.954   7.095   0.770  0.2182 -0.9150 -0.1600
   32MOL   O10729309   4.893   7.222   0.809 -0.7161 -0.6477  0.5286
   32MOL   C10829310   4.894   7.252   0.940 -0.6248  0.4928 -0.2513
   32MOL   O10929311   4.958   7.193   1.026  0.9579 -0.2843 -0.0641
   32MOL   C11029312   4.817   7.379   0.970  0.1021  0.0178 -0.5282
   32MOL   C11129313   4.832   7.442   1.098  0.2183  0.7320  0.2988
   32MOL   C11229314   4.773   7.570   1.121  0.6858 -0.1575  0.3061
   32MOL   C11329315   4.697   7.635   1.019  0.0326 -0.0135 -0.1466
   32MOL   C11429316   4.650   7.769   1.060 -0.2904 -0.3826 -0.3202
   32MOL   O11529317   4.660   7.815   1.174  0.0101 -0.0269 -0.2133
   32MOL   O11629318   4.612   7.834   0.952  0.2844 -0.7032 -0.0505
   32MOL   C11729319   4.676   7.569   0.895  0.5135 -1.0939  0.2751
   32MOL   C11829320   4.735   7.446   0.876 -0.2051 -0.5671  0.1934
   32MOL   H11929321   4.234   6.709   1.008 -1.3739 -2.6053  1.0239
   32MOL   H12029322   4.100   6.679   1.107 -1.0382  0.7483 -0.4200
   32MOL   H12129323   4.006   6.906   1.035  0.1848  0.5801  0.9349
   32MOL   H12229324   4.041   6.784   0.909 -1.6057  0.0630  1.8827
   32MOL   H12329325   4.114   7.021   0.841  0.9857 -1.0048 -0.8715
   32MOL   H12429326   4.230   7.013   0.965 -1.3450  2.4131 -0.7667
   32MOL   H12529327   4.255   6.923   0.698  1.3290 -0.0706  0.0020
   32MOL   H12629328   4.234   6.772   0.778 -0.6225  0.6264 -2.7462
   32MOL   H12729329   4.445   6.991   0.852  1.2166 -0.6719 -0.4542
   32MOL   H12829330   4.422   6.848   0.941  1.4132 -0.7616 -0.5723
   32MOL   H12929331   4.487   6.714   0.751  2.0384 -0.7242 -1.3941
   32MOL   H13029332   4.501   6.857   0.649  1.7056  0.7530  0.1807
   32MOL   H13129333   4.657   6.810   0.910  1.0119  1.8905  1.4647
   32MOL   H13229334   4.722   6.765   0.754  0.1793 -0.2206  1.1892
   32MOL   H13329335   4.723   6.993   0.671 -1.3285  0.1820 -0.2746
   32MOL   H13429336   4.676   7.053   0.830  1.4323 -1.6439  3.2737
   32MOL   H13529337   4.918   6.884   0.748 -1.5031  1.7178 -2.4409
   32MOL   H13629338   4.890   6.952   0.915 -1.6263 -0.1902  0.1147
   32MOL   H13729339   4.957   7.088   0.661 -1.5099  0.8533 -0.3400
   32MOL   H13829340   5.058   7.108   0.799 -0.3194  2.6737  0.3394
   32MOL   H13929341   4.891   7.393   1.174  0.6161 -0.6421 -0.8799
   32MOL   H14029342   4.783   7.597   1.225  1.2555  2.1710 -0.3369
   32MOL   H14129343   4.604   7.613   0.828 -0.4545  0.1539  2.0761
   32MOL   H14229344   4.714   7.390   0.787  1.9190  2.0905 -2.1029
   32MOL   O14329345   4.595   0.011   0.975 -0.3769  0.0562  0.5273
   32MOL   C14429346   4.711   0.074   0.934 -0.7932 -0.0345  0.1209
   32MOL   C14529347   4.690   0.225   0.926 -0.6184  0.1882  0.0319
   32MOL   C14629348   4.612   0.289   0.809  0.0805  0.4279  0.1195
   32MOL   C14729349   4.692   0.272   0.676 -0.7448 -0.6735  0.9122
   32MOL   C14829350   4.631   0.344   0.550 -0.0737 -0.2302 -0.7430
   32MOL   C14929351   4.723   0.332   0.424 -0.0640 -0.0246 -0.6980
   32MOL   C15029352   4.664   0.401   0.295 -0.0570  0.6126  0.1472
   32MOL   C15129353   4.749   0.390   0.162  0.3195  0.2456 -0.2130
   32MOL   C15229354   4.691   0.456   0.033  0.2300  0.1874 -0.6295
   32MOL   C15329355   4.751   0.418   7.878 -1.2987 -0.3815 -0.2414
   32MOL   O15429356   4.686   0.493   7.777  0.5218  0.1145 -0.3519
   32MOL   C15529357   4.577   0.446   7.709 -0.7898  0.0120 -0.1224
   32MOL   O15629358   4.526   0.336   7.734 -0.3384  0.1717 -0.8729
   32MOL   C15729359   4.536   0.529   7.594 -0.6246  0.1785  0.0968
   32MOL   C15829360   4.543   0.669   7.606  0.6017 -0.4610 -0.1422
   32MOL   C15929361   4.499   0.748   7.495 -0.5153  0.9017 -0.9955
   32MOL   C16029362   4.447   0.688   7.376  0.4178  0.2253  0.2568
   32MOL   C16129363   4.405   0.770   7.256  0.1710 -0.2393  0.9808
   32MOL   O16229364   4.380   0.717   7.149 -0.2480 -0.3078 -0.6227
   32MOL   O16329365   4.403   0.906   7.283  0.1184 -0.1178 -0.5327
   32MOL   C16429366   4.436   0.548   7.369 -0.6363 -0.7747 -0.1620
   32MOL   C16529367   4.486   0.471   7.478  0.1060  0.2725  0.0432
   32MOL   H16629368   4.790   0.046   1.003 -1.0174  2.8448  1.6171
   32MOL   H16729369   4.752   0.037   0.840  1.1594 -1.7148  1.5916
   32MOL   H16829370   4.791   0.265   0.918  0.0901 -1.5932 -0.0908
   32MOL   H16929371   4.646   0.261   1.019  0.7712 -1.1109  1.2116
   32MOL   H17029372   4.516   0.247   0.780  1.1221 -0.9666 -1.4134
   32MOL   H17129373   4.604   0.396   0.832 -0.8087  0.1096  1.3158
   32MOL   H17229374   4.718   0.171   0.646  0.1599  0.6075 -2.8825
   32MOL   H17329375   4.789   0.319   0.697 -1.6231  1.4907  0.2201
   32MOL   H17429376   4.541   0.296   0.511  1.0246 -2.0600 -1.0967
   32MOL   H17529377   4.606   0.448   0.574  1.2247 -0.2661  0.8442
   32MOL   H17629378   4.820   0.375   0.449  0.4527 -1.0441 -0.9219
   32MOL   H17729379   4.735   0.226   0.404 -0.4639  0.4191 -3.4386
   32MOL   H17829380   4.570   0.350   0.274  1.1261 -2.2135  1.4536
   32MOL   H17929381   4.650   0.509   0.298 -1.3197  0.4963 -1.0725
   32MOL   H18029382   4.843   0.445   0.171  0.7044 -0.2869 -0.9492
   32MOL   H18129383   4.779   0.288   0.141 -0.0821  0.1992 -0.5607
   32MOL   H18229384   4.701   0.564   0.030 -0.0976  0.3139  1.8725
   32MOL   H18329385   4.584   0.434   0.028 -0.3321  3.0045 -1.9291
   32MOL   H18429386   4.732   0.312   7.866  1.0688 -0.5914 -2.4395
   32MOL   H18529387   4.859   0.437   7.873 -1.6515  1.9087  0.0356
   32MOL   H18629388   4.570   0.720   7.697 -1.6568  0.1947  0.1819
   32MOL   H18729389   4.516   0.855   7.505 -1.5593  1.0706 -0.8726
   32MOL   H18829390   4.394   0.494   7.286  0.6080 -0.0441 -1.2854
   32MOL   H18929391   4.495   0.367   7.451 -0.6691  0.7288 -2.0695
   32MOL   O19029392   4.345   0.987   7.164  0.3889 -0.1985  0.3696
   32MOL   C19129393   4.408   1.109   7.155 -0.4213  0.7636 -0.5043
   32MOL   C19229394   4.371   1.191   7.289 -0.6422  0.1000  0.0062
   32MOL   C19329395   4.439   1.332   7.275  0.0779 -0.6367 -0.1855
   32MOL   C19429396   4.402   1.429   7.393  0.6734  0.0237 -0.3391
   32MOL   C19529397   4.457   1.571   7.367 -0.2348 -0.4692  0.3012
   32MOL   C19629398   4.441   1.656   7.487  1.1701 -0.0582 -0.0352
   32MOL   C19729399   4.477   1.801   7.455  0.1162 -0.6640 -0.1002
   32MOL   C19829400   4.477   1.886   7.584 -0.5702 -0.1736 -0.3349
   32MOL   C19929401   4.595   1.844   7.684  0.0435 -0.5365  0.4294
   32MOL   C20029402   4.591   1.936   7.809  0.6783 -0.6740 -0.7996
   32MOL   O20129403   4.700   1.896   7.895 -0.3860  0.2707  0.0416
   32MOL   C20229404   4.818   1.964   7.891  0.1801 -0.2853  0.3306
   32MOL   O20329405   4.833   2.074   7.827  0.1267 -0.2232  0.1881
   32MOL   C20429406   4.921   1.898   7.974  0.4869 -0.8824 -1.0045
   32MOL   C20529407   5.048   1.960   7.969  0.3308  0.2832  0.1184
   32MOL   C20629408   5.156   1.914   0.066 -0.3956  0.9000 -0.1031
   32MOL   C20729409   5.141   1.795   0.147 -0.0599  0.2452  0.5465
   32MOL   C20829410   5.256   1.726   0.216 -0.5560  0.5715  0.5505
   32MOL   O20929411   5.247   1.622   0.280  0.4768 -0.1263 -0.4746
   32MOL   O21029412   5.374   1.783   0.187  0.1611  0.5871  0.8357
   32MOL   C21129413   5.012   1.734   0.152  0.4185 -0.4413 -0.1347
   32MOL   C21229414   4.903   1.787   0.080 -0.4200 -0.0939 -0.2012
   32MOL   H21329415   4.514   1.084   7.157 -1.0178 -2.0569 -1.5371
   32MOL   H21429416   4.374   1.165   7.068 -2.1782  2.6877  1.3511
   32MOL   H21529417   4.410   1.135   7.374  1.4210  0.6830 -0.5100
   32MOL   H21629418   4.265   1.211   7.302 -0.3159  1.0230  1.3531
   32MOL   H21729419   4.546   1.311   7.269  0.1687  0.2144 -1.9839
   32MOL   H21829420   4.416   1.389   7.185 -0.0784  0.2338  0.4029
   32MOL   H21929421   4.446   1.387   7.484 -0.4537  1.6135  0.9790
   32MOL   H22029422   4.295   1.422   7.413  0.4483  1.3736 -0.9940
   32MOL   H22129423   4.563   1.574   7.344 -0.4107  1.0305 -0.3825
   32MOL   H22229424   4.405   1.616   7.282 -0.5757 -0.0149  0.7504
   32MOL   H22329425   4.334   1.647   7.508  1.6348  0.5245  2.7078
   32MOL   H22429426   4.510   1.618   7.562  0.7311  1.0830  0.9535
   32MOL   H22529427   4.570   1.814   7.401 -0.8239 -2.0492 -2.0867
   32MOL   H22629428   4.401   1.823   7.380  0.9289  0.4585 -0.6099
   32MOL   H22729429   4.490   1.994   7.575  1.3080 -0.4755 -1.5006
   32MOL   H22829430   4.382   1.872   7.635  1.2366 -1.7234  2.6905
   32MOL   H22929431   4.687   1.875   7.634  0.2715 -0.5697  0.8239
   32MOL   H23029432   4.600   1.741   7.720 -0.2538 -1.0119 -0.8710
   32MOL   H23129433   4.496   1.935   7.862 -0.8885  1.0333 -3.4926
   32MOL   H23229434   4.594   2.041   7.782 -1.5679  0.0995  1.7519
   32MOL   H23329435   5.057   2.041   7.899 -1.7164 -0.0725 -0.5806
   32MOL   H23429436   5.252   1.961   0.055  0.4247 -0.3720  1.3649
   32MOL   H23529437   4.997   1.641   0.205 -1.2754  0.7784  1.5761
   32MOL   H23629438   4.815   1.725   0.080 -0.5279  0.0566 -0.5229
   32MOL   O23729439   5.503   1.707   0.212  0.2128 -0.8704 -0.2440
   32MOL   C23829440   5.569   1.674   0.093  0.2283  0.1315  0.3359
   32MOL   C23929441   5.683   1.772   0.068 -0.5170  0.0361 -0.0010
   32MOL   C24029442   5.641   1.915   0.048  0.8068 -0.7870  0.4684
   32MOL   C24129443   5.603   1.952   7.881  0.1002  0.2125 -0.3118
   32MOL   C24229444   5.559   2.094   7.865  0.6365 -0.1955 -0.3215
   32MOL   C24329445   5.687   2.178   7.857 -0.1922  0.2727  1.0450
   32MOL   C24429446   5.659   2.330   7.840 -0.4679  0.9256  0.2040
   32MOL   C24529447   5.771   2.402   7.765  0.0331 -0.2742  0.5581
   32MOL   C24629448   5.909   2.413   7.836  0.2885 -0.7415  0.4738
   32MOL   C24729449   5.911   2.471   0.000 -0.5324  0.6831 -0.1433
   32MOL   O24829450   5.846   2.383   0.088 -0.3183 -0.3339 -0.3246
   32MOL   C24929451   5.912   2.283   0.151 -0.0872 -0.1390  1.1368
   32MOL   O25029452   6.031   2.262   0.134  0.0454 -0.4720  0.0876
   32MOL   C25129453   5.826   2.197   0.234  0.2596 -0.1232 -0.0027
   32MOL   C25229454   5.693   2.223   0.285  0.5841  0.3143  0.1396
   32MOL   C25329455   5.624   2.117   0.353 -0.7692  0.2014  0.0086
   32MOL   C25429456   5.683   1.991   0.388 -0.0809 -0.1590 -0.5043
   32MOL   C25529457   5.600   1.891   0.461 -0.6155  1.1377  0.2334
   32MOL   O25629458   5.476   1.905   0.480 -0.0773  0.3680 -0.0752
   32MOL   O25729459   5.674   1.791   0.525  0.1783  0.0798 -0.0424
   32MOL   C25829460   5.815   1.969   0.340 -0.0781  0.4958 -0.1034
   32MOL   C25929461   5.879   2.071   0.266  0.0575 -0.2789 -0.2357
   32MOL   H26029462   5.612   1.573   0.097 -0.7070 -0.2096  2.5411
   32MOL   H26129463   5.505   1.679   0.006  0.2297  1.4759  0.4090
   32MOL   H26229464   5.745   1.730   7.967  1.6920 -1.7359  2.5728
   32MOL   H26329465   5.746   1.763   0.157  0.7861  0.4024 -0.8803
   32MOL   H26429466   5.556   1.943   0.110  0.4153 -1.0495  0.0465
   32MOL   H26529467   5.721   1.987   0.068  2.0194 -2.1465  0.5383
   32MOL   H26629468   5.521   1.886   7.851 -0.9240  0.3137  2.0902
   32MOL   H26729469   5.679   1.914   7.813  2.4774  3.4122  0.4514
   32MOL   H26829470   5.490   2.097   7.780 -0.4054  1.2305  0.5609
   32MOL   H26929471   5.497   2.128   7.947 -0.4073 -1.5027 -0.5514
   32MOL   H27029472   5.761   2.160   7.934  2.0294  0.6514 -0.9269
   32MOL   H27129473   5.744   2.142   7.772  1.2688  1.1301  1.6385
   32MOL   H27229474   5.562   2.346   7.791  0.5517 -2.6376 -3.1886
   32MOL   H27329475   5.631   2.378   7.934  0.6511  1.1641  0.4176
   32MOL   H27429476   5.778   2.366   7.663 -3.8279  0.3002 -0.0015
   32MOL   H27529477   5.744   2.507   7.750 -0.8871 -0.8097 -1.6186
   32MOL   H27629478   5.972   2.473   7.770  0.2654 -0.7667  0.4292
   32MOL   H27729479   5.947   2.312   7.838 -2.0631 -1.6515  1.6470
   32MOL   H27829480   5.870   2.571   7.978  2.3752  1.9665  1.3757
   32MOL   H27929481   6.007   2.498   0.046 -0.2526  0.5539 -0.6505
   32MOL   H28029482   5.648   2.316   0.255  0.6642  0.2560 -0.1679
   32MOL   H28129483   5.522   2.131   0.385 -0.9621 -0.2367 -0.4182
   32MOL   H28229484   5.878   1.887   0.370  0.6156  1.4373  1.0296
   32MOL   H28329485   5.974   2.050   0.217 -0.5547  0.1666 -1.6451
   32MOL   O28429486   5.584   1.679   0.578  0.4119 -0.7289  1.1542
   32MOL   C28529487   5.629   1.563   0.507 -0.8880 -0.4538  0.5025
   32MOL   C28629488   5.577   1.432   0.565  0.0652 -0.2178 -0.3174
   32MOL   C28729489   5.606   1.422   0.712 -0.3113  0.1890 -0.1807
   32MOL   C28829490   5.566   1.292   0.779 -0.1466 -0.4082 -0.1187
   32MOL   C28929491   5.613   1.280   0.926  0.4570  0.3248 -0.3569
   32MOL   C29029492   5.564   1.143   0.988 -0.2033 -0.5078  0.0050
   32MOL   C29129493   5.599   1.131   1.132 -0.0369 -0.3682 -0.9408
   32MOL   C29229494   5.520   1.024   1.205  0.7241 -0.4097 -0.4459
   32MOL   C29329495   5.585   0.990   1.339 -0.1296  0.0963 -0.5136
   32MOL   C29429496   5.489   0.893   1.414 -0.4355 -0.0937  0.1903
   32MOL   O29529497   5.529   0.890   1.555 -0.3197  0.4408  0.5209
   32MOL   C29629498   5.555   0.770   1.602  0.3673 -0.0509  0.5722
   32MOL   O29729499   5.548   0.663   1.536 -0.1022 -0.3229 -0.1932
   32MOL   C29829500   5.576   0.769   1.753  0.1650  0.5758 -0.1717
   32MOL   C29929501   5.580   0.648   1.824  0.3187 -0.2206  0.3137
   32MOL   C30029502   5.582   0.642   1.965  0.0625  0.2964  1.3769
   32MOL   C30129503   5.579   0.756   2.043 -0.2532  0.8717  0.3064
   32MOL   C30229504   5.577   0.755   2.195 -0.1499  0.0063  0.0125
   32MOL   O30329505   5.574   0.859   2.257  0.3257  0.1350 -0.0120
   32MOL   O30429506   5.585   0.630   2.245 -0.4254 -0.7384  0.1556
   32MOL   C30529507   5.578   0.879   1.972  0.1638 -0.4594 -0.0021
   32MOL   C30629508   5.580   0.889   1.829  0.2158  0.4682  0.7917
   32MOL   H30729509   5.588   1.572   0.406 -0.2834  1.0037  0.3682
   32MOL   H30829510   5.737   1.572   0.503 -0.9216 -0.1040  0.2943
   32MOL   H30929511   5.614   1.348   0.505  1.3596 -1.4402  2.1252
   32MOL   H31029512   5.471   1.409   0.555 -0.4637  0.5906  3.0829
   32MOL   H31129513   5.713   1.439   0.721 -0.1769 -0.4836 -0.4945
   32MOL   H31229514   5.551   1.504   0.758 -0.3229 -0.2823  0.6519
   32MOL   H31329515   5.626   1.219   0.725  1.0338  2.3114 -2.6444
   32MOL   H31429516   5.463   1.257   0.769 -0.3371  0.6328 -2.0682
   32MOL   H31529517   5.722   1.283   0.932  0.5374 -1.9088 -0.4034
   32MOL   H31629518   5.581   1.369   0.981 -1.0825  0.3881 -1.3267
   32MOL   H31729519   5.457   1.144   0.967 -0.8751  0.1203  3.2344
   32MOL   H31829520   5.615   1.057   0.945  0.5405 -0.9811  1.7695
   32MOL   H31929521   5.706   1.108   1.132  0.1648  0.4059  0.9799
   32MOL   H32029522   5.591   1.229   1.180 -2.3781 -1.4984  1.0922
   32MOL   H32129523   5.422   1.071   1.214  2.4931  4.4201 -4.3180
   32MOL   H32229524   5.511   0.933   1.145  1.0229  0.2182 -1.4556
   32MOL   H32329525   5.602   1.072   1.408  1.9217 -0.5097 -0.2740
   32MOL   H32429526   5.680   0.936   1.335 -0.6797 -0.7980 -2.4224
   32MOL   H32529527   5.490   0.797   1.363 -1.3549  0.2054 -0.3962
   32MOL   H32629528   5.388   0.931   1.401  0.6487  2.2956 -1.5789
   32MOL   H32729529   5.583   0.556   1.768  1.5310 -1.0039  1.6340
   32MOL   H32829530   5.584   0.545   2.012 -1.4778 -0.6901 -0.5469
   32MOL   H32929531   5.577   0.971   2.028  0.4694  1.2796 -2.7248
   32MOL   H33029532   5.596   0.992   1.800 -1.3102  1.0345  1.8954
   32MOL   O33129533   5.614   0.632   2.392 -0.4333  1.1631 -0.5743
   32MOL   C33229534   5.747   0.585   2.424  0.3593 -0.0007  0.0817
   32MOL   C33329535   5.771   0.434   2.402  0.5260  0.2285  0.6609
   32MOL   C33429536   5.902   0.393   2.484  0.4782 -0.2724 -0.2902
   32MOL   C33529537   5.954   0.250   2.445  0.5178  0.1542  0.2973
   32MOL   C33629538   6.083   0.215   2.519 -0.1157 -0.4902  0.7561
   32MOL   C33729539   6.103   0.057   2.518  0.0659  0.2791  0.2088
   32MOL   C33829540   6.186   0.006   2.631 -0.4063  0.4237  1.3627
   32MOL   C33929541   6.186   7.829   2.634 -0.2945 -0.1073 -0.1509
   32MOL   C34029542   6.063   7.768   2.710  0.6978  0.3851 -0.8289
   32MOL   C34129543   6.057   7.616   2.703  0.4127  0.1590 -0.5108
   32MOL   O34229544   6.168   7.575   2.772 -0.8584  0.4684  0.4569
   32MOL   C34329545   6.161   7.546   2.900 -0.2275  1.1433 -0.1818
   32MOL   O34429546   6.052   7.559   2.965  0.0107  0.1001  0.6925
   32MOL   C34529547   6.289   7.513   2.969  0.6347 -0.3361 -0.2000
   32MOL   C34629548   6.415   7.516   2.901  0.6887  0.5150  0.2583
   32MOL   C34729549   6.533   7.493   2.980  0.0534 -0.0077  1.0425
   32MOL   C34829550   6.525   7.471   3.118 -0.1875 -0.2777  0.8052
   32MOL   C34929551   6.650   7.450   3.197 -0.4598  0.3866  0.0175
   32MOL   O35029552   6.654   7.404   3.314  0.6408 -0.4029 -0.0443
   32MOL   O35129553   6.752   7.500   3.137  0.2832  0.2020 -0.4608
   32MOL   C35229554   6.399   7.458   3.180  0.6750  0.1630 -0.1505
   32MOL   C35329555   6.286   7.487   3.105  0.1556  0.6815 -0.2233
   32MOL   H35429556   5.818   0.653   2.377  1.8664 -0.8020  1.1408
   32MOL   H35529557   5.749   0.611   2.530  1.2853 -0.1917  0.1142
   32MOL   H35629558   5.790   0.404   2.299 -0.2565 -1.6101  1.0220
   32MOL   H35729559   5.690   0.369   2.436  1.9670 -1.1887  1.4594
   32MOL   H35829560   5.981   0.466   2.466  0.2879 -0.2024 -0.8371
   32MOL   H35929561   5.884   0.402   2.591  1.9730  1.9472 -0.1859
   32MOL   H36029562   5.965   0.226   2.339 -0.8208  0.3295  0.1088
   32MOL   H36129563   5.874   0.180   2.472  0.1430 -0.2400 -1.7519
   32MOL   H36229564   6.165   0.273   2.477 -1.7211  1.6138  0.4733
   32MOL   H36329565   6.085   0.249   2.622 -0.5617 -0.3207  0.7088
   32MOL   H36429566   6.013   7.975   2.514  0.4602 -0.3090  0.0261
   32MOL   H36529567   6.148   0.044   2.419  0.9885 -2.3119  0.9317
   32MOL   H36629568   6.287   0.040   2.606 -1.0429  0.2634 -1.6113
   32MOL   H36729569   6.158   0.044   2.729  0.0729 -0.2160  1.7491
   32MOL   H36829570   6.178   7.796   2.530 -2.8142 -0.6654  0.1787
   32MOL   H36929571   6.277   7.785   2.675  0.0644  0.9267  0.1629
   32MOL   H37029572   5.971   7.791   2.657  1.1806  2.9738 -0.6032
   32MOL   H37129573   6.048   7.800   2.814 -1.2639 -0.7169 -0.7458
   32MOL   H37229574   6.050   7.583   2.599  1.8958  0.5270 -0.7364
   32MOL   H37329575   5.970   7.571   2.749  1.2938  0.5371  1.6009
   32MOL   H37429576   6.416   7.561   2.803 -2.4431  2.4294  1.0147
   32MOL   H37529577   6.631   7.481   2.936 -0.5327 -2.7055  0.3914
   32MOL   H37629578   6.387   7.443   3.286  0.2361 -0.7703 -0.3270
   32MOL   H37729579   6.188   7.476   3.148 -0.2375 -2.7276 -1.8991
   32MOL   O37829580   6.895   7.485   3.201  0.5553  0.4603 -0.1682
   32MOL   C37929581   6.915   7.598   3.276 -0.8385 -0.0262  1.4296
   32MOL   C38029582   6.974   7.703   3.188  0.3911 -0.4991 -0.5980
   32MOL   C38129583   7.033   7.821   3.270  0.0142 -0.1856  0.5239
   32MOL   C38229584   7.096   7.935   3.188 -0.6687 -0.2146  0.2298
   32MOL   C38329585   7.163   0.068   3.260 -0.4997  0.3249 -0.2196
   32MOL   C38429586   7.061   0.165   3.324 -0.1268  0.3073 -0.5555
   32MOL   C38529587   7.132   0.280   3.393 -0.3381 -1.4642  0.2412
   32MOL   C38629588   7.047   0.355   3.502 -0.4413 -0.1531 -0.3418
   32MOL   C38729589   7.111   0.477   3.568 -0.1397  0.0236  0.2070
   32MOL   C38829590   7.062   0.514   3.707  0.4061 -0.3415 -0.2780
   32MOL   O38929591   7.142   0.609   3.770  0.9902 -0.1672  0.6815
   32MOL   C39029592   7.224   0.574   3.871 -0.6002 -0.3218 -0.0377
   32MOL   O39129593   7.247   0.461   3.902 -0.6979 -0.4305  0.3571
   32MOL   C39229594   7.289   0.691   3.934  0.3444  0.2265 -0.5271
   32MOL   C39329595   7.242   0.817   3.914 -0.4147 -0.3489 -0.5339
   32MOL   C39429596   7.305   0.930   3.972  0.0900  0.3249 -0.1550
   32MOL   C39529597   7.426   0.914   4.042  0.2659  0.8509 -0.8722
   32MOL   C39629598   7.498   1.033   4.093 -0.0931  0.7550 -0.1559
   32MOL   O39729599   7.488   1.150   4.046 -0.1391 -0.2931  0.6777
   32MOL   O39829600   7.566   1.004   4.206  0.3692  0.6050  0.1758
   32MOL   C39929601   7.474   0.785   4.070  0.4545  0.9458 -0.5006
   32MOL   C40029602   7.408   0.674   4.011 -0.2055 -0.4058  0.8665
   32MOL   H40129603   6.829   7.640   3.326  0.1543  1.0040  2.2890
   32MOL   H40229604   6.983   7.571   3.357 -0.1989 -3.0504 -0.0256
   32MOL   H40329605   6.908   7.740   3.109  0.8197  0.6702 -0.4208
   32MOL   H40429606   7.059   7.652   3.142  0.8345 -0.3412  0.0306
   32MOL   H40529607   6.949   7.862   3.326  0.1458  0.9127 -0.0779
   32MOL   H40629608   7.103   7.783   3.344 -0.6702  0.2751  1.4147
   32MOL   H40729609   7.013   0.013   3.148 -0.0861 -0.2672 -1.0673
   32MOL   H40829610   7.156   7.897   3.105 -1.7785 -0.8892 -0.2668
   32MOL   H40929611   7.241   0.028   3.325 -1.1927  0.5885  0.7835
   32MOL   H41029612   7.216   0.128   3.185 -1.3033  0.1320 -0.9497
   32MOL   H41129613   6.993   0.205   3.249 -1.5583  1.8764  1.4968
   32MOL   H41229614   6.997   0.118   3.399 -2.5046  1.9978 -1.4683
   32MOL   H41329615   7.221   0.240   3.441 -1.1611 -0.5068  2.6252
   32MOL   H41429616   7.170   0.350   3.319  0.7116 -0.3549  1.8041
   32MOL   H41529617   6.950   0.388   3.462 -0.6587  0.3306  0.5654
   32MOL   H41629618   7.009   0.286   3.577  0.5189  0.9810  1.2184
   32MOL   H41729619   7.101   0.571   3.516 -1.0821 -0.4431 -0.4684
   32MOL   H41829620   7.216   0.455   3.586  0.0274 -0.3252 -1.1860
   32MOL   H41929621   7.046   0.428   3.772  3.3336 -2.0189 -1.6713
   32MOL   H42029622   6.962   0.557   3.707  0.1559 -0.9094 -0.0901
   32MOL   H42129623   7.147   0.836   3.866 -1.0343  0.8241  1.0826
   32MOL   H42229624   7.264   1.027   3.951  0.8639  0.3584 -1.5613
   32MOL   H42329625   7.560   0.771   4.134  0.9469  0.4711 -1.2580
   32MOL   H42429626   7.450   0.575   4.005 -0.0790 -0.3026 -0.0163
   32MOL   O42529627   7.673   1.100   4.235 -0.6546 -0.3562  0.5785
   32MOL   C42629628   7.797   1.032   4.198 -0.0644  0.8636 -0.1284
   32MOL   C42729629   7.909   1.127   4.238  0.2506 -0.2230 -0.8117
   32MOL   C42829630   7.920   1.156   4.386 -0.4515  0.0491 -0.0872
   32MOL   C42929631   0.039   1.264   4.415 -0.0138 -0.3603 -0.4133
   32MOL   C43029632   0.186   1.222   4.376 -0.5647  0.3656 -0.5792
   32MOL   C43129633   0.294   1.325   4.417 -0.1710  0.0923 -0.3356
   32MOL   C43229634   0.437   1.287   4.385 -0.1568  0.4962 -0.9098
   32MOL   C43329635   0.481   1.317   4.240 -0.3471  0.5527 -0.4159
   32MOL   C43429636   0.632   1.290   4.206  0.1128 -0.4345 -0.0280
   32MOL   C43529637   0.662   1.271   4.059 -0.7693 -0.4238 -0.1212
   32MOL   O43629638   0.792   1.223   4.036 -0.2694  0.8930  0.0336
   32MOL   C43729639   0.835   1.214   3.912 -0.1300 -0.3028  0.1151
   32MOL   O43829640   0.772   1.240   3.812 -0.1973 -0.8527 -0.2314
   32MOL   C43929641   0.982   1.167   3.903 -0.7196  0.3675  0.9832
   32MOL   C44029642   1.043   1.125   4.021  0.3533 -1.0321  0.2622
   32MOL   C44129643   1.175   1.084   4.024  0.1834  0.0805 -0.4511
   32MOL   C44229644   1.251   1.095   3.906  0.3759 -0.4778  0.3187
   32MOL   C44329645   1.393   1.066   3.919  0.7581 -0.3249  0.2989
   32MOL   O44429646   1.448   1.052   4.030 -0.0715  0.1426  0.3949
   32MOL   O44529647   1.447   1.050   3.798  0.8284 -0.1544 -0.0076
   32MOL   C44629648   1.188   1.140   3.783 -0.5020  0.5660 -0.2658
   32MOL   C44729649   1.057   1.181   3.782  1.1184  0.5749  0.0814
   32MOL   H44829650   7.814   0.941   4.255 -0.7255  0.6720 -0.2260
   32MOL   H44929651   7.797   1.015   4.090 -0.7657  0.0517 -0.0100
   32MOL   H45029652   7.887   1.218   4.181 -3.6913 -0.6226 -0.0906
   32MOL   H45129653   0.025   1.089   4.197  0.5801  0.0403 -0.2945
   32MOL   H45229654   7.826   1.184   4.433 -1.0715 -0.6805 -0.8935
   32MOL   H45329655   7.960   1.067   4.436  0.0849  0.8347  0.9209
   32MOL   H45429656   0.034   1.294   4.520 -0.4021  2.5678 -1.2160
   32MOL   H45529657   0.003   1.353   4.363 -1.1511  0.6980  2.0960
   32MOL   H45629658   0.211   1.131   4.431 -2.5997  1.9367  3.1647
   32MOL   H45729659   0.212   1.201   4.272 -1.6567  0.6422 -0.9143
   32MOL   H45829660   0.270   1.421   4.372 -1.2265 -0.8333 -1.7801
   32MOL   H45929661   0.277   1.348   4.522 -0.1279  0.9828 -0.5260
   32MOL   H46029662   0.491   1.351   4.455 -3.1739  1.6761  0.3869
   32MOL   H46129663   0.453   1.183   4.414 -1.0381  0.1865 -1.5316
   32MOL   H46229664   0.424   1.254   4.172  0.5800 -0.3938 -0.3408
   32MOL   H46329665   0.452   1.418   4.211 -3.6420 -0.6614 -1.5382
   32MOL   H46429666   0.686   1.210   4.255  2.1402  1.4114  0.8509
   32MOL   H46529667   0.682   1.384   4.230  1.6746 -1.0295 -0.8448
   32MOL   H46629668   0.638   1.365   4.009  0.4589 -0.3487 -0.5741
   32MOL   H46729669   0.591   1.200   4.016 -0.9867  0.7695 -1.7729
   32MOL   H46829670   0.990   1.119   4.115 -2.1393  4.3794 -0.5752
   32MOL   H46929671   1.227   1.078   4.118 -1.8902  2.3961  0.9189
   32MOL   H47029672   1.240   1.148   3.689 -0.3508  2.3009 -0.0462
   32MOL   H47129673   1.008   1.205   3.689  4.0000  0.6266 -1.4745
   32MOL   O47229674   1.593   1.017   3.811 -0.1283  0.3448  0.1015
   32MOL   C47329675   1.604   0.878   3.798 -0.5979 -0.1761  0.9629
   32MOL   C47429676   1.755   0.830   3.801 -0.7421  0.1356  0.1201
   32MOL   C47529677   1.833   0.873   3.670 -0.6079 -0.1017  0.4882
   32MOL   C47629678   1.977   0.813   3.653  0.1029 -0.0182 -0.9962
   32MOL   C47729679   2.077   0.889   3.752  0.3195 -0.0362 -0.0584
   32MOL   C47829680   2.223   0.851   3.721 -0.2866  0.0985 -0.8244
   32MOL   C47929681   2.325   0.918   3.813  0.5552  0.4237  0.5908
   32MOL   C48029682   2.337   0.839   3.944 -0.8162 -0.0328  0.2162
   32MOL   C48129683   2.424   0.901   4.048  0.6296 -0.6937  0.0905
   32MOL   C48229684   2.496   0.799   4.137  0.5847 -0.5395  0.1137
   32MOL   O48329685   2.393   0.731   4.199 -0.1414  0.4092 -0.1180
   32MOL   C48429686   2.418   0.625   4.270 -0.5596 -0.0185 -0.4627
   32MOL   O48529687   2.536   0.602   4.303  0.0222 -0.1761 -0.0627
   32MOL   C48629688   2.307   0.535   4.288 -0.6502  0.0513  0.2761
   32MOL   C48729689   2.174   0.584   4.258  0.2891 -0.0884  0.3031
   32MOL   C48829690   2.062   0.501   4.284 -0.0920  0.0572 -0.2153
   32MOL   C48929691   2.086   0.367   4.336 -0.1964 -0.1210  0.6465
   32MOL   C49029692   1.971   0.274   4.358 -0.0835 -0.1039  0.4017
   32MOL   O49129693   1.859   0.290   4.305 -0.0412 -0.4228  0.0088
   32MOL   O49229694   2.001   0.167   4.428  0.0588 -0.3954  0.1420
   32MOL   C49329695   2.213   0.322   4.360  0.4836 -0.4886 -0.2584
   32MOL   C49429696   2.324   0.406   4.348  0.5108 -0.2912 -0.8751
   32MOL   H49529697   1.537   0.837   3.874  1.3993 -0.9428  2.3609
   32MOL   H49629698   1.548   0.843   3.712  1.5056  1.4267 -1.1110
   32MOL   H49729699   1.756   0.721   3.802 -0.0662  0.1379  0.0634
   32MOL   H49829700   1.802   0.868   3.892 -2.2651 -1.3733  1.5573
   32MOL   H49929701   1.771   0.866   3.581 -0.1428  2.1805 -0.0371
   32MOL   H50029702   1.849   0.980   3.659  0.9284 -0.1318  2.1303
   32MOL   H50129703   2.012   0.811   3.550 -0.3045 -1.9737 -1.1320
   32MOL   H50229704   1.981   0.707   3.680  2.5714  0.0304 -1.0688
   32MOL   H50329705   2.054   0.995   3.745 -1.2777 -0.4369 -1.1512
   32MOL   H50429706   2.044   0.859   3.852 -0.1367 -0.8900 -0.4593
   32MOL   H50529707   2.225   0.743   3.712  0.9476  0.0922 -0.4761
   32MOL   H50629708   2.243   0.890   3.622 -1.0248 -1.6429 -1.6792
   32MOL   H50729709   2.422   0.921   3.764  0.1789 -2.7200 -0.4796
   32MOL   H50829710   2.296   1.021   3.833  0.2145 -0.1350  3.1069
   32MOL   H50929711   2.239   0.817   3.987 -1.2666  0.4145 -0.5573
   32MOL   H51029712   2.383   0.745   3.913  1.5456  1.2390 -0.2682
   32MOL   H51129713   2.369   0.979   4.101 -0.5070 -0.4865 -1.3533
   32MOL   H51229714   2.512   0.956   4.015 -0.6091  0.4348 -1.4489
   32MOL   H51329715   2.557   0.850   4.211 -1.9008  0.8705  1.2684
   32MOL   H51429716   2.562   0.740   4.073  2.0864 -0.8284  1.9151
   32MOL   H51529717   2.157   0.681   4.215 -0.7402 -0.9189 -1.1920
   32MOL   H51629718   1.966   0.537   4.251 -0.1703  1.8254  1.8849
   32MOL   H51729719   2.234   0.221   4.391 -0.0136 -1.0252 -1.6651
   32MOL   H51829720   2.421   0.366   4.375  0.1257 -0.5991  0.0655
   32MOL   O51929721   1.880   0.070   4.437  0.1292  0.2429 -0.0003
   32MOL   C52029722   1.822   0.080   4.567  0.4172 -0.1576 -0.4157
   32MOL   C52129723   1.896   7.970   4.672 -1.0587  0.4455 -0.8131
   32MOL   C52229724   1.830   0.009   4.803  0.5504 -0.2321 -0.3789
   32MOL   C52329725   1.923   7.939   4.918 -0.1717  0.7770 -0.4914
   32MOL   C52429726   1.883   7.963   5.066  0.0294 -0.3449 -0.2643
   32MOL   C52529727   1.852   0.136   5.096  0.3415  0.2879 -0.2530
   32MOL   C52629728   1.855   0.163   5.247  0.3536  0.2015 -0.1909
   32MOL   C52729729   1.853   0.310   5.286  0.2038  0.4540  0.0381
   32MOL   C52829730   1.837   0.334   5.439 -0.0957  0.0560  0.2863
   32MOL   C52929731   1.847   0.483   5.473 -0.0983 -0.2110  0.3944
   32MOL   O53029732   1.979   0.521   5.448  0.0306  0.0598 -0.0701
   32MOL   C53129733   2.013   0.632   5.389  0.1063 -0.1931  0.5535
   32MOL   O53229734   1.935   0.700   5.324  0.1025  0.3014  0.2886
   32MOL   C53329735   2.160   0.662   5.387  0.1974  0.4487  0.3923
   32MOL   C53429736   2.207   0.789   5.342 -0.6369 -0.0675 -0.3676
   32MOL   C53529737   2.346   0.827   5.335 -0.1610 -0.4541 -0.8952
   32MOL   C53629738   2.438   0.731   5.375 -0.4167  0.2432  0.0293
   32MOL   C53729739   2.582   0.772   5.380 -0.0686  0.5906 -0.1839
   32MOL   O53829740   2.672   0.694   5.410  0.2440 -0.2270 -0.1493
   32MOL   O53929741   2.603   0.903   5.369  0.5036 -0.1277  0.5396
   32MOL   C54029742   2.395   0.604   5.426  0.3230 -0.9949 -0.2754
   32MOL   C54129743   2.256   0.568   5.436  0.2350 -0.4437  0.1359
   32MOL   H54229744   1.833   0.186   4.592 -2.7608 -0.1048  1.0936
   32MOL   H54329745   1.715   0.064   4.557  0.3577 -0.8543  1.1551
   32MOL   H54429746   2.003   0.012   4.682 -0.8212 -1.3180  0.3781
   32MOL   H54529747   1.896   7.870   4.630 -2.9025  0.5322 -1.0651
   32MOL   H54629748   1.804   0.113   4.820  0.2599 -0.0243 -1.9672
   32MOL   H54729749   1.735   7.934   4.797  0.2351  0.1124  1.4668
   32MOL   H54829750   2.019   0.013   4.913 -1.0586  2.6301  1.1290
   32MOL   H54929751   1.959   7.837   4.906  0.1532  1.0731 -2.2965
   32MOL   H55029752   1.801   7.898   5.099 -1.6485  1.6379 -0.3918
   32MOL   H55129753   1.972   7.931   5.120  0.0261  1.0129  0.5717
   32MOL   H55229754   1.926   0.201   5.047 -0.7765  2.6203  1.0559
   32MOL   H55329755   1.751   0.150   5.059 -0.7853 -2.9854  1.4518
   32MOL   H55429756   1.767   0.122   5.297  0.0307  0.7473 -0.3151
   32MOL   H55529757   1.939   0.111   5.293 -0.4172 -1.8665 -1.0864
   32MOL   H55629758   1.937   0.366   5.246  0.4063 -0.4965 -0.8898
   32MOL   H55729759   1.759   0.346   5.246  1.1390  2.3259 -0.5260
   32MOL   H55829760   1.926   0.287   5.479 -0.5386 -0.0416  1.1740
   32MOL   H55929761   1.748   0.290   5.484  0.3441 -1.2152 -0.0850
   32MOL   H56029762   1.818   0.511   5.575  1.7075  1.0766  0.5782
   32MOL   H56129763   1.770   0.535   5.417 -1.2385 -0.3681  1.7629
   32MOL   H56229764   2.131   0.855   5.302 -0.7321 -1.3248 -2.3042
   32MOL   H56329765   2.367   0.922   5.287 -2.4325  1.2196  1.2301
   32MOL   H56429766   2.469   0.531   5.454 -0.4272 -0.1359  4.3455
   32MOL   H56529767   2.245   0.467   5.472  0.7582 -0.3929  0.4505
   32MOL   O56629768   2.749   0.952   5.347  0.1328 -0.1657  0.1274
   32MOL   C56729769   2.773   0.961   5.207 -0.4902 -0.0734 -0.4552
   32MOL   C56829770   2.815   0.842   5.129 -0.2598 -0.2110  0.5677
   32MOL   C56929771   2.810   0.884   4.979  0.3007  0.1951 -0.0541
   32MOL   C57029772   2.890   0.782   4.886  0.7747 -0.2602 -0.4758
   32MOL   C57129773   2.855   0.800   4.737  0.6096 -0.6436 -0.5745
   32MOL   C57229774   2.936   0.700   4.651 -0.1689  0.5765 -0.2101
   32MOL   C57329775   2.911   0.707   4.495  0.1476  0.1045 -0.2467
   32MOL   C57429776   2.961   0.831   4.420 -0.1051  0.9368  0.2187
   32MOL   C57529777   2.947   0.819   4.262  0.2421 -0.2987  0.2257
   32MOL   C57629778   3.003   0.943   4.184 -0.9410  0.2191 -0.3152
   32MOL   O57729779   2.929   1.059   4.229  0.2296  0.5263 -0.3856
   32MOL   C57829780   2.822   1.126   4.162 -0.7756 -0.8540  0.8370
   32MOL   O57929781   2.779   1.082   4.049  0.1412  0.1858 -0.0024
   32MOL   C58029782   2.761   1.246   4.228 -0.4777 -0.1044 -0.6760
   32MOL   C58129783   2.838   1.336   4.315  0.4747 -0.5352  0.4677
   32MOL   C58229784   2.773   1.434   4.394 -0.4459 -0.3842  0.8460
   32MOL   C58329785   2.639   1.458   4.386  0.1935  0.3199  0.4239
   32MOL   C58429786   2.567   1.576   4.443 -0.1068  0.1423 -0.2574
   32MOL   O58529787   2.444   1.603   4.434  0.3805 -0.0054  0.2123
   32MOL   O58629788   2.648   1.649   4.514  0.2079  0.4275 -0.1408
   32MOL   C58729789   2.569   1.376   4.293  0.2559  0.3412  0.0003
   32MOL   C58829790   2.624   1.267   4.222  0.5292  0.1572  0.3922
   32MOL   H58929791   2.687   1.005   5.157 -0.9261 -2.4749 -1.9373
   32MOL   H59029792   2.845   1.043   5.211 -0.1317 -0.4332  0.6175
   32MOL   H59129793   2.750   0.756   5.148  0.9350 -1.5057 -1.0271
   32MOL   H59229794   2.913   0.804   5.155 -0.0797 -0.5301 -0.5461
   32MOL   H59329795   2.705   0.896   4.952 -0.2572 -2.4559  0.8175
   32MOL   H59429796   2.849   0.986   4.971 -1.4713  0.9815  1.1050
   32MOL   H59529797   2.879   0.676   4.911  1.5501 -0.2611 -0.1264
   32MOL   H59629798   2.998   0.797   4.883  0.8731 -0.8580 -0.0504
   32MOL   H59729799   2.748   0.785   4.739  0.3629  1.1762  0.2743
   32MOL   H59829800   2.868   0.904   4.707  3.6208 -0.3351  1.5633
   32MOL   H59929801   3.043   0.712   4.672  0.1000  1.9402 -2.1975
   32MOL   H60029802   2.924   0.597   4.686 -1.3210  0.8411  0.1803
   32MOL   H60129803   2.958   0.615   4.460 -1.8613 -0.3771 -1.7946
   32MOL   H60229804   2.806   0.683   4.477 -0.1772  2.1269 -1.1372
   32MOL   H60329805   2.916   0.921   4.463  2.4673  0.9421  3.1671
   32MOL   H60429806   3.065   0.840   4.453 -0.4982 -0.0913  1.7881
   32MOL   H60529807   2.841   0.814   4.236 -0.2832  2.3601  1.7135
   32MOL   H60629808   2.991   0.721   4.241 -0.3446 -0.3636 -0.7273
   32MOL   H60729809   3.008   0.940   4.076 -0.7723  0.5874 -0.3167
   32MOL   H60829810   3.106   0.953   4.220 -0.4443 -0.2358 -1.5968
   32MOL   H60929811   2.944   1.316   4.318  0.4059 -0.7786  1.8854
   32MOL   H61029812   2.841   1.498   4.449 -0.3587 -0.8437  1.2773
   32MOL   H61129813   2.462   1.389   4.280 -0.0629 -0.5867  1.5608
   32MOL   H61229814   2.570   1.198   4.159  2.4234  0.7522 -1.9899
   32MOL   O61329815   2.586   1.761   4.589  0.3484 -0.4207  0.2041
   32MOL   C61429816   2.532   1.720   4.713  0.1526 -0.0108 -0.1209
   32MOL   C61529817   2.635   1.645   4.794  0.0938  0.5897  0.1832
   32MOL   C61629818   2.758   1.723   4.842 -0.4750 -0.6482  0.1514
   32MOL   C61729819   2.883   1.637   4.872  0.2560 -0.4670 -0.3204
   32MOL   C61829820   2.991   1.722   4.933 -0.0446  0.4841 -0.6424
   32MOL   C61929821   3.125   1.657   4.926 -0.7062  0.7731  0.1587
   32MOL   C62029822   3.205   1.702   4.804  0.3181 -0.0887 -0.5617
   32MOL   C62129823   3.351   1.646   4.822 -0.1441 -0.5264  0.1695
   32MOL   C62229824   3.445   1.655   4.697  0.5256 -0.0343 -0.5596
   32MOL   C62329825   3.585   1.617   4.736  0.0609 -0.7396 -0.0965
   32MOL   O62429826   3.599   1.479   4.711 -0.4214  0.7368  0.2532
   32MOL   C62529827   3.674   1.438   4.601  0.2378  0.1931 -0.2428
   32MOL   O62629828   3.756   1.510   4.535 -0.8351 -0.5928  0.2004
   32MOL   C62729829   3.655   1.291   4.580 -0.1546 -0.3898 -0.3016
   32MOL   C62829830   3.758   1.215   4.524 -0.2650  0.2211 -0.5902
   32MOL   C62929831   3.737   1.080   4.496 -0.6211  0.6876 -0.8424
   32MOL   C63029832   3.619   1.020   4.519 -0.6144  0.2574  0.1080
   32MOL   C63129833   3.604   0.883   4.473 -0.2613  0.2030  0.9570
   32MOL   O63229834   3.691   0.809   4.428  0.4384  0.2372  0.0381
   32MOL   O63329835   3.469   0.847   4.471 -0.2408  0.2892 -0.2997
   32MOL   C63429836   3.519   1.091   4.579  0.1175  0.0421 -0.0236
   32MOL   C63529837   3.540   1.225   4.615  0.4419 -0.4821 -0.5166
   32MOL   H63629838   2.505   1.809   4.771 -1.4592  0.8333 -2.1175
   32MOL   H63729839   2.445   1.657   4.696  0.4435 -1.0917  2.1702
   32MOL   H63829840   2.664   1.559   4.734 -1.5559 -1.7710  2.6609
   32MOL   H63929841   2.578   1.618   4.883  0.4136 -0.4504  0.0741
   32MOL   H64029842   2.780   1.796   4.764 -1.7406 -0.2669  0.1337
   32MOL   H64129843   2.726   1.773   4.934 -3.4992  1.7799 -2.1239
   32MOL   H64229844   2.933   1.589   4.788 -0.0820 -2.3038  0.5007
   32MOL   H64329845   2.869   1.552   4.938  0.2431 -0.5874 -0.4808
   32MOL   H64429846   2.997   1.818   4.882 -1.4109  0.9035 -0.0411
   32MOL   H64529847   2.957   1.741   5.035 -1.8377  3.1152 -1.6686
   32MOL   H64629848   3.180   1.689   5.014  2.1277 -0.9906 -0.9182
   32MOL   H64729849   3.124   1.550   4.950  0.5000  0.6521 -0.2849
   32MOL   H64829850   3.179   1.662   4.706 -0.2646  3.1254 -1.7957
   32MOL   H64929851   3.217   1.810   4.791 -0.3927  0.1559  0.7655
   32MOL   H65029852   3.396   1.687   4.912  0.1490  1.0393 -0.6834
   32MOL   H65129853   3.343   1.538   4.833 -0.1841 -0.5282  0.1199
   32MOL   H65229854   3.453   1.761   4.671 -0.7557 -0.4270 -2.6508
   32MOL   H65329855   3.407   1.597   4.613 -0.6962  1.4716 -1.0777
   32MOL   H65429856   3.604   1.624   4.843  2.6194 -0.6050 -0.5411
   32MOL   H65529857   3.660   1.677   4.684  0.8046 -2.1449 -0.6852
   32MOL   H65629858   3.844   1.269   4.485  0.2535 -1.3478 -1.6812
   32MOL   H65729859   3.818   1.028   4.446 -1.5109  0.3086 -1.9093
   32MOL   H65829860   3.425   1.050   4.613 -0.3866  0.9435 -0.2873
   32MOL   H65929861   3.463   1.276   4.670  1.5125  0.1949  0.3701
   32MOL   O66029862   3.430   0.712   4.411 -0.2480  0.0892 -0.7613
   32MOL   C66129863   3.430   0.614   4.519 -0.3024 -0.3783  0.2675
   32MOL   C66229864   3.303   0.626   4.600 -0.3808  0.2544 -0.2230
   32MOL   C66329865   3.281   0.507   4.696 -0.6788 -0.6123  0.2060
   32MOL   C66429866   3.245   0.374   4.627 -0.2855 -0.3059  0.4313
   32MOL   C66529867   3.235   0.252   4.719 -0.3303  0.5146 -0.8540
   32MOL   C66629868   3.224   0.118   4.646 -0.2875  0.3469  0.1619
   32MOL   C66729869   3.191   7.976   4.741 -0.0243 -0.1620 -1.1054
   32MOL   C66829870   3.168   7.847   4.672 -0.2602 -0.2730 -0.1520
   32MOL   C66929871   3.190   7.731   4.781 -0.2007 -0.3474 -0.4853
   32MOL   C67029872   3.176   7.589   4.725  0.4245 -0.1753  0.1462
   32MOL   O67129873   3.046   7.572   4.666 -0.2754  0.0801 -0.2582
   32MOL   C67229874   3.028   7.474   4.579  0.1473 -0.0345 -0.5294
   32MOL   O67329875   3.115   7.408   4.519  0.2093  0.0949  0.3777
   32MOL   C67429876   2.883   7.450   4.554 -0.0503 -0.4358 -0.7003
   32MOL   C67529877   2.852   7.339   4.484  0.6425 -0.3724  0.1662
   32MOL   C67629878   2.718   7.307   4.465  0.3420  0.5179 -0.2621
   32MOL   C67729879   2.610   7.396   4.497  0.0820  0.3885  0.4507
   32MOL   C67829880   2.466   7.380   4.463  0.1047 -0.1330  0.2491
   32MOL   O67929881   2.383   7.470   4.497  0.0610  0.4137 -0.3107
   32MOL   O68029882   2.429   7.259   4.412 -0.0254  0.2818  0.2048
   32MOL   C68129883   2.643   7.515   4.563  0.3748 -0.9477  0.5860
   32MOL   C68229884   2.784   7.545   4.589  0.2735 -0.2780 -0.1230
   32MOL   H68329885   3.454   0.519   4.473  2.0065 -0.2373  1.1191
   32MOL   H68429886   3.513   0.634   4.587  0.3894 -2.7929  0.1652
   32MOL   H68529887   3.224   0.629   4.525  0.3745 -2.0337 -1.1238
   32MOL   H68629888   3.285   0.723   4.647 -1.7205  0.6903 -1.6090
   32MOL   H68729889   3.367   0.487   4.760 -1.6817 -1.7846  1.2101
   32MOL   H68829890   3.205   0.522   4.773 -1.5990  0.9364 -0.9876
   32MOL   H68929891   3.327   0.359   4.556 -0.5882  0.6797 -0.1291
   32MOL   H69029892   3.153   0.373   4.568  2.0265 -1.6422 -3.3604
   32MOL   H69129893   3.316   0.237   4.790  1.0316 -2.4074 -2.9206
   32MOL   H69229894   3.151   0.272   4.785  0.6166  0.4089  0.3948
   32MOL   H69329895   3.159   0.122   4.559  1.5346 -1.7611 -1.3375
   32MOL   H69429896   3.317   0.097   4.594 -0.5579 -2.5713  0.7620
   32MOL   H69529897   3.268   0.007   4.816 -1.5997  1.8916  0.3197
   32MOL   H69629898   3.106   0.024   4.804  0.4893 -0.9621 -0.0858
   32MOL   H69729899   3.066   7.846   4.632 -0.9951  1.4962  1.5720
   32MOL   H69829900   3.237   7.827   4.590 -0.4441 -0.3082 -0.2976
   32MOL   H69929901   3.127   7.754   4.867  0.0273  1.7448 -0.8655
   32MOL   H70029902   3.295   7.738   4.808 -0.0480  0.1309 -1.1947
   32MOL   H70129903   3.195   7.515   4.802 -1.2857 -1.5773 -0.7443
   32MOL   H70229904   3.246   7.575   4.642  0.8925 -0.2458  0.5561
   32MOL   H70329905   2.931   7.271   4.455 -0.0739 -1.2264  0.2054
   32MOL   H70429906   2.689   7.210   4.425 -2.4088  0.4856  1.6653
   32MOL   H70529907   2.563   7.583   4.588 -0.3052 -1.7067  0.5001
   32MOL   H70629908   2.815   7.633   4.644  0.9428 -1.7091  1.8645
   32MOL   O70729909   2.276   7.239   4.396  0.1121  0.2162 -0.2787
   32MOL   C70829910   2.242   7.271   4.266  0.0803 -0.5190  0.0116
   32MOL   C70929911   2.299   7.154   4.185  0.3119 -0.7190 -0.3323
   32MOL   C71029912   2.302   7.195   4.030  0.2670  0.3336 -0.4135
   32MOL   C71129913   2.315   7.073   3.938 -0.2526  0.5548 -0.1379
   32MOL   C71229914   2.321   7.107   3.790  0.2261  0.2081  0.4136
   32MOL   C71329915   2.334   6.999   3.688  0.4007  0.1400  0.2325
   32MOL   C71429916   2.319   7.035   3.539  0.0599 -0.1154  0.4435
   32MOL   C71529917   2.361   6.925   3.447 -0.2740  0.6363  0.1177
   32MOL   C71629918   2.387   6.985   3.305 -0.1873 -0.9325 -0.5846
   32MOL   C71729919   2.360   6.893   3.186  0.3527 -0.2290 -0.5882
   32MOL   O71829920   2.476   6.836   3.136 -0.1984  0.4504 -0.3856
   32MOL   C71929921   2.541   6.729   3.194 -0.6461  0.8004  0.1621
   32MOL   O72029922   2.520   6.688   3.311 -0.1588 -0.5460  0.6645
   32MOL   C72129923   2.638   6.669   3.100  1.0555  0.2042  0.6140
   32MOL   C72229924   2.682   6.730   2.975 -0.3835 -0.1042  0.4200
   32MOL   C72329925   2.771   6.673   2.884  0.1941 -0.2054  0.1601
   32MOL   C72429926   2.829   6.549   2.925 -0.6600 -0.2277  0.5225
   32MOL   C72529927   2.922   6.482   2.831 -0.3461 -0.3187  0.7726
   32MOL   O72629928   2.914   6.487   2.714  0.4113 -0.4133 -0.4898
   32MOL   O72729929   3.020   6.405   2.894 -0.1593 -0.1991 -0.2800
   32MOL   C72829930   2.801   6.495   3.049  0.7372  0.8415  0.8428
   32MOL   C72929931   2.709   6.556   3.138 -0.1172  0.4069 -0.0211
   32MOL   H73029932   2.140   7.286   4.229  0.7984  0.5229 -1.6262
   32MOL   H73129933   2.295   7.362   4.238 -2.1031  0.0580 -2.4503
   32MOL   H73229934   2.240   7.064   4.202 -0.0215 -0.7853 -1.8100
   32MOL   H73329935   2.399   7.132   4.223 -0.1273 -1.0487  0.6356
   32MOL   H73429936   2.211   7.250   4.005 -1.0549 -2.0051 -1.0231
   32MOL   H73529937   2.382   7.265   4.008  1.3447 -0.8474 -0.3480
   32MOL   H73629938   2.231   7.006   3.956 -0.9070  0.4821 -3.2478
   32MOL   H73729939   2.404   7.019   3.969  0.8149  1.5814 -1.3746
   32MOL   H73829940   2.230   7.159   3.762 -0.6838 -1.9218 -0.6075
   32MOL   H73929941   2.392   7.189   3.780  1.2203 -0.5893  0.8432
   32MOL   H74029942   2.431   6.954   3.705  0.1777 -1.0568 -1.5176
   32MOL   H74129943   2.268   6.915   3.710 -0.1066 -0.1093 -2.1045
   32MOL   H74229944   2.222   7.073   3.506 -0.6871 -2.1859  0.1257
   32MOL   H74329945   2.376   7.127   3.533  2.4172 -1.5796 -0.6504
   32MOL   H74429946   2.436   6.859   3.489 -0.3314  1.3828  1.4243
   32MOL   H74529947   2.272   6.862   3.437  0.3108  0.0893 -1.9006
   32MOL   H74629948   2.489   7.023   3.294 -0.6219  0.1673 -0.8646
   32MOL   H74729949   2.323   7.073   3.304 -2.2206 -2.3175  1.4615
   32MOL   H74829950   2.329   6.958   3.104 -0.9255 -0.6847 -0.4817
   32MOL   H74929951   2.279   6.824   3.210  1.6820 -0.7916  2.5662
   32MOL   H75029952   2.635   6.824   2.949 -1.2420 -0.8354 -0.7362
   32MOL   H75129953   2.804   6.726   2.796  0.1422  0.9878  0.8581
   32MOL   H75229954   2.849   6.403   3.079  0.5051  0.3075 -0.4088
   32MOL   H75329955   2.690   6.512   3.235  0.3252 -0.5513 -0.3766
   32MOL   O75429956   3.113   6.328   2.799  0.5881 -0.3222  0.2671
   32MOL   C75529957   3.240   6.389   2.798  0.7221 -0.5501  0.0842
   32MOL   C75629958   3.345   6.300   2.726 -0.1827  0.3614 -0.0642
   32MOL   C75729959   3.363   6.158   2.787  0.3057  0.0703 -0.6203
   32MOL   C75829960   3.479   6.081   2.722 -1.3798 -0.1169 -0.5512
   32MOL   C75929961   3.508   5.943   2.789  0.4739 -0.2806  0.0594
   32MOL   C76029962   3.644   5.895   2.745 -0.7725  0.1851 -0.5898
   32MOL   C76129963   3.717   5.801   2.846  0.7900 -0.6979 -0.1410
   32MOL   C76229964   3.813   5.707   2.782 -0.5652 -0.6161 -0.0421
   32MOL   C76329965   3.945   5.770   2.736 -0.1510 -0.2992  0.2483
   32MOL   C76429966   4.048   5.664   2.707  0.2027  1.0050 -0.1566
   32MOL   O76529967   4.003   5.580   2.601 -0.5985  0.2578  0.2899
   32MOL   C76629968   3.971   5.453   2.640  0.6474  0.2847  0.1410
   32MOL   O76729969   3.970   5.409   2.758 -0.7530  0.2819  0.1108
   32MOL   C76829970   3.923   5.374   2.520 -1.0173 -0.2246  0.7240
   32MOL   C76929971   3.968   5.404   2.392  0.1477  1.1186 -0.0249
   32MOL   C77029972   3.911   5.334   2.284 -0.3344  0.7173  0.4480
   32MOL   C77129973   3.830   5.222   2.304 -0.5002  0.4422 -0.0276
   32MOL   C77229974   3.762   5.148   2.188  0.0482 -0.4242  0.0224
   32MOL   O77329975   3.705   5.041   2.206 -0.0005 -0.1638 -0.3969
   32MOL   O77429976   3.793   5.209   2.070  0.1656 -0.3398  0.0306
   32MOL   C77529977   3.791   5.190   2.436 -0.0370 -0.5271 -1.1926
   32MOL   C77629978   3.841   5.268   2.541  0.8920 -0.2844  0.0609
   32MOL   H77729979   3.230   6.484   2.746  0.3434  0.8291  2.6059
   32MOL   H77829980   3.270   6.405   2.902  1.1391  1.1080 -0.2776
   32MOL   H77929981   3.443   6.343   2.709  0.1073 -0.3625 -0.2452
   32MOL   H78029982   3.306   6.282   2.626  1.3057 -0.6997 -0.4768
   32MOL   H78129983   3.399   6.169   2.889  1.6291 -2.6121 -0.7472
   32MOL   H78229984   3.266   6.109   2.786  0.4781 -0.3151  0.7751
   32MOL   H78329985   3.567   6.145   2.724 -0.2525 -1.6170 -0.9991
   32MOL   H78429986   3.457   6.069   2.616 -0.3121  2.0028 -1.0392
   32MOL   H78529987   3.509   5.963   2.896 -1.5930  2.0998 -0.3189
   32MOL   H78629988   3.439   5.860   2.772  2.1324 -1.3171 -1.8654
   32MOL   H78729989   3.636   5.837   2.653 -1.9242 -1.0968  0.2937
   32MOL   H78829990   3.717   5.975   2.731  0.9843 -1.0222  1.3913
   32MOL   H78929991   3.779   5.850   2.920  2.2203 -0.9242 -1.1610
   32MOL   H79029992   3.647   5.732   2.893 -0.5106  0.7757  0.1148
   32MOL   H79129993   3.846   5.632   2.854  1.1722 -0.3023 -0.4789
   32MOL   H79229994   3.770   5.657   2.695  0.5464 -1.7162  0.0225
   32MOL   H79329995   3.983   5.836   2.814  0.5433 -2.0979  1.4707
   32MOL   H79429996   3.931   5.825   2.643 -2.1760 -0.1103  0.6615
   32MOL   H79529997   4.095   5.616   2.792 -0.0020  0.2407 -0.4705
   32MOL   H79629998   4.133   5.714   2.660  0.5046  0.7041  0.0649
   32MOL   H79729999   4.014   5.501   2.378 -0.8742  1.4650 -1.1148
   32MOL   H79830000   3.925   5.376   2.185 -0.9691  1.0637  0.5029
   32MOL   H79930001   3.720   5.110   2.450  1.1520 -1.0142  2.8244
   32MOL   H80030002   3.795   5.262   2.639  2.1139  1.9908  0.8334
   32MOL   O80130003   3.772   5.116   1.954  0.0808 -0.2607  0.0542
   32MOL   C80230004   3.670   5.160   1.867  0.1675 -0.2269  0.7044
   32MOL   C80330005   3.534   5.117   1.919  0.2688  0.3325  0.2593
   32MOL   C80430006   3.425   5.165   1.815  0.0556 -0.1497  0.1217
   32MOL   C80530007   3.280   5.123   1.844  0.1157 -0.5956  0.2277
   32MOL   C80630008   3.219   5.178   1.970 -0.1497  0.4371 -0.4303
   32MOL   C80730009   3.230   5.335   1.982 -0.5280  0.1140 -0.2896
   32MOL   C80830010   3.140   5.405   2.084 -0.7090 -0.2653 -0.4075
   32MOL   C80930011   3.173   5.550   2.070 -0.7868  0.5002  0.3391
   32MOL   C81030012   3.129   5.640   2.183  0.3851 -0.0139  0.0028
   32MOL   C81130013   2.977   5.619   2.214  0.1915 -0.1717 -0.4577
   32MOL   O81230014   2.896   5.665   2.114  0.0118  0.0969 -0.3415
   32MOL   C81330015   2.768   5.657   2.128  0.4886  0.1896 -0.3443
   32MOL   O81430016   2.714   5.616   2.235 -0.0099  0.2495  0.6548
   32MOL   C81530017   2.687   5.705   2.009 -0.6299 -0.5008  0.3218
   32MOL   C81630018   2.755   5.766   1.900 -0.5936 -0.2763  0.0224
   32MOL   C81730019   2.695   5.805   1.785 -0.1215 -0.2325  0.0547
   32MOL   C81830020   2.554   5.787   1.775  0.0894  0.6897  0.3072
   32MOL   C81930021   2.478   5.819   1.646 -0.3285  0.3271  0.0101
   32MOL   O82030022   2.357   5.805   1.638 -0.2420 -0.3537 -0.4939
   32MOL   O82130023   2.558   5.853   1.543  1.0091 -0.2993  0.4463
   32MOL   C82230024   2.478   5.731   1.882  0.2048 -0.8702 -0.5091
   32MOL   C82330025   2.547   5.692   1.998  0.0661  0.1489  1.1119
   32MOL   H82430026   3.665   5.266   1.844  0.6915 -0.3086  0.2050
   32MOL   H82530027   3.700   5.117   1.771  0.0725 -0.5746  0.8297
   32MOL   H82630028   3.506   5.157   2.016  0.4477 -0.4479  0.6375
   32MOL   H82730029   3.531   5.009   1.928  0.6527  0.4045  1.2430
   32MOL   H82830030   3.442   5.268   1.787 -0.7219 -0.2932 -0.9156
   32MOL   H82930031   3.451   5.120   1.719  0.5068 -0.0711  0.2049
   32MOL   H83030032   3.260   5.016   1.835 -3.7531 -0.0789  1.7736
   32MOL   H83130033   3.213   5.163   1.769 -1.0272 -0.0629  1.5251
   32MOL   H83230034   3.111   5.165   1.968 -0.0798 -0.0381 -1.2712
   32MOL   H83330035   3.256   5.139   2.065  0.8351 -0.8427 -1.3220
   32MOL   H83430036   3.332   5.360   2.012 -0.6244  0.5671 -0.3407
   32MOL   H83530037   3.214   5.379   1.883  3.0768  0.0064 -1.0019
   32MOL   H83630038   3.034   5.390   2.062 -1.1115  0.7296  0.7802
   32MOL   H83730039   3.165   5.374   2.185 -0.7037 -1.4535 -0.7619
   32MOL   H83830040   3.277   5.577   2.054 -0.2351 -1.1702  1.0185
   32MOL   H83930041   3.135   5.588   1.975  1.5857  0.5007 -0.6325
   32MOL   H84030042   3.151   5.746   2.167  0.8329 -0.1022  0.0295
   32MOL   H84130043   3.177   5.623   2.280  0.3797 -0.1818 -0.0232
   32MOL   H84230044   2.952   5.671   2.307 -2.4696 -1.5176 -0.3658
   32MOL   H84330045   2.953   5.513   2.220 -0.1821 -0.1492 -1.4850
   32MOL   H84430046   2.862   5.780   1.907 -0.6443 -0.3009  0.8347
   32MOL   H84530047   2.760   5.846   1.709 -0.1626 -0.5635 -0.1564
   32MOL   H84630048   2.371   5.717   1.872  0.2055 -1.6170  0.4524
   32MOL   H84730049   2.485   5.642   2.071  0.3735  0.6388  1.7134
   32MOL   O84830050   2.484   5.902   1.416  0.5567 -0.8435 -0.1884
   32MOL   C84930051   2.522   6.032   1.389  0.0493  0.3919  0.1580
   32MOL   C85030052   2.428   6.071   1.278  0.2313  0.1948 -0.0584
   32MOL   C85130053   2.291   6.109   1.333  0.1750 -0.2793  0.2448
   32MOL   C85230054   2.190   6.160   1.231  0.2337 -0.0171  0.5250
   32MOL   C85330055   2.051   6.185   1.294 -0.5838  0.3334  0.6097
   32MOL   C85430056   1.949   6.256   1.203  0.3469 -0.3774  0.7066
   32MOL   C85530057   1.820   6.280   1.278 -0.8770 -0.4744  0.1078
   32MOL   C85630058   1.709   6.329   1.175  0.3626  0.2566 -0.3138
   32MOL   C85730059   1.580   6.388   1.235  0.4370 -0.6877  0.0558
   32MOL   C85830060   1.604   6.506   1.332 -1.1203 -0.6800 -0.1486
   32MOL   O85930061   1.496   6.597   1.321  0.5690  0.6814  0.1498
   32MOL   C86030062   1.457   6.676   1.414  0.1308 -0.4779  0.2933
   32MOL   O86130063   1.511   6.683   1.526  0.2404 -0.2709 -1.1857
   32MOL   C86230064   1.325   6.742   1.379  0.2178 -0.0982 -0.0927
   32MOL   C86330065   1.276   6.738   1.246  0.3285  0.0953  0.1488
   32MOL   C86430066   1.158   6.807   1.213  0.1358  0.1862  0.4324
   32MOL   C86530067   1.073   6.862   1.318  0.1632  0.5902 -0.3038
   32MOL   C86630068   0.942   6.922   1.287  0.1270 -0.2307  0.0453
   32MOL   O86730069   0.900   6.932   1.173 -0.5014  0.0172  0.3154
   32MOL   O86830070   0.872   6.952   1.395  0.3943  0.1258  0.7415
   32MOL   C86930071   1.128   6.862   1.451  0.1354 -0.0871  0.4455
   32MOL   C87030072   1.255   6.802   1.478  0.1645 -0.6744  0.0614
   32MOL   H87130073   2.500   6.103   1.469  0.7561 -0.1498  0.8409
   32MOL   H87230074   2.626   6.040   1.358 -0.1743  0.2900 -0.6274
   32MOL   H87330075   2.408   5.988   1.210 -1.3387  1.7058 -1.4791
   32MOL   H87430076   2.469   6.159   1.229  0.7853 -0.3608 -0.6009
   32MOL   H87530077   2.254   6.031   1.400  0.6788 -0.9721 -0.2775
   32MOL   H87630078   2.293   6.194   1.402  0.4860 -0.5236  0.5375
   32MOL   H87730079   2.183   6.085   1.153  2.4706  0.6119 -0.3424
   32MOL   H87830080   2.217   6.252   1.178 -0.1417 -0.6033 -0.6912
   32MOL   H87930081   2.011   6.086   1.314  2.3749 -1.2490 -0.8603
   32MOL   H88030082   2.068   6.241   1.386  1.0449  1.7746 -0.5053
   32MOL   H88130083   1.978   6.353   1.163 -0.6390 -0.3301  0.1106
   32MOL   H88230084   1.937   6.186   1.120  2.8500 -2.7536  2.2184
   32MOL   H88330085   1.782   6.194   1.332 -0.2452  0.3161  1.8379
   32MOL   H88430086   1.825   6.359   1.353  0.6082 -1.9249  1.6093
   32MOL   H88530087   1.758   6.400   1.108  0.5128 -0.8744 -1.4100
   32MOL   H88630088   1.670   6.253   1.109 -0.5592  0.5133 -0.0748
   32MOL   H88730089   1.510   6.324   1.288 -2.4319 -1.1239 -4.0241
   32MOL   H88830090   1.536   6.429   1.144 -0.5495 -2.4897 -0.2922
   32MOL   H88930091   1.695   6.556   1.299 -1.5602 -0.2875 -0.7787
   32MOL   H89030092   1.620   6.478   1.436 -0.9190  0.7547  0.2080
   32MOL   H89130093   1.330   6.691   1.165  1.4439 -1.5757  1.8259
   32MOL   H89230094   1.127   6.807   1.109 -0.2750 -0.0103  0.5525
   32MOL   H89330095   1.078   6.905   1.537  1.4655 -2.2338  2.3515
   32MOL   H89430096   1.284   6.796   1.582 -2.9084 -1.2227  0.9320
   32MOL   O89530097   0.735   7.022   1.369 -0.0240  0.0036 -0.2568
   32MOL   C89630098   0.754   7.160   1.404 -0.2119  0.0062  0.3206
   32MOL   C89730099   0.662   7.195   1.524  0.3931 -0.5268 -0.8157
   32MOL   C89830100   0.676   7.341   1.565  0.6355  0.0229  0.1717
   32MOL   C89930101   0.542   7.396   1.625  0.0751 -0.2795  0.3019
   32MOL   C90030102   0.537   7.528   1.703  0.4285  0.0621  0.1482
   32MOL   C90130103   0.399   7.592   1.729  0.0129  1.1101 -0.6108
   32MOL   C90230104   0.280   7.503   1.765 -0.4249  0.3124 -0.5312
   32MOL   C90330105   0.152   7.578   1.817  0.3442  0.4281 -0.1489
   32MOL   C90430106   0.030   7.489   1.847 -0.0305  0.0735  0.1552
   32MOL   C90530107   7.869   7.557   1.848 -0.3028 -0.4762  0.2343
   32MOL   O90630108   7.780   7.458   1.904 -0.0168  0.0761  0.6185
   32MOL   C90730109   7.651   7.461   1.881  0.3797  0.5966  0.0744
   32MOL   O90830110   7.598   7.519   1.790 -0.3354 -0.1745 -0.1779
   32MOL   C90930111   7.572   7.376   1.970 -1.1512 -0.0724 -0.2961
   32MOL   C91030112   7.626   7.268   2.043 -0.0269  0.5347 -0.8327
   32MOL   C91130113   7.540   7.175   2.107 -0.4418 -0.3509 -0.1098
   32MOL   C91230114   7.397   7.187   2.099  0.5496 -0.6779 -0.5527
   32MOL   C91330115   7.315   7.077   2.166  0.2054  0.2438 -0.6586
   32MOL   O91430116   7.366   6.985   2.226 -0.2213 -0.8381 -0.3715
   32MOL   O91530117   7.182   7.085   2.144  0.2411 -0.0916  0.4729
   32MOL   C91630118   7.338   7.303   2.033 -0.7421  0.2124  0.1387
   32MOL   C91730119   7.431   7.396   1.971  0.2152 -0.2470 -0.1605
   32MOL   H91830120   0.857   7.179   1.434 -0.9491  2.6101  1.3303
   32MOL   H91930121   0.736   7.233   1.325 -0.0920  0.6403  0.8776
   32MOL   H92030122   0.692   7.130   1.606  1.5949  1.0050 -0.0161
   32MOL   H92130123   0.555   7.180   1.510  0.2254  0.3485 -0.5362
   32MOL   H92230124   0.757   7.349   1.638  1.3904 -2.0222 -0.4032
   32MOL   H92330125   0.700   7.394   1.473 -0.5345  1.9577  0.9529
   32MOL   H92430126   0.506   7.325   1.701 -0.8526  1.2246  1.2994
   32MOL   H92530127   0.460   7.391   1.553  0.1646  1.2081  0.0929
   32MOL   H92630128   0.583   7.514   1.800 -0.4949 -1.3044  0.4092
   32MOL   H92730129   0.593   7.602   1.645 -0.9901  0.5531 -0.6505
   32MOL   H92830130   0.402   7.663   1.811 -2.3114  1.1170 -0.4938
   32MOL   H92930131   0.377   7.655   1.642 -1.2634 -1.1298 -1.9661
   32MOL   H93030132   0.244   7.437   1.686 -0.8321 -0.7034  0.4958
   32MOL   H93130133   0.309   7.440   1.849 -0.3274 -0.9260 -1.4800
   32MOL   H93230134   0.165   7.634   1.910  1.9427 -0.9087  0.4541
   32MOL   H93330135   0.121   7.643   1.735  0.5741  1.0418  0.2471
   32MOL   H93430136   0.054   7.444   1.943 -0.4721 -2.3354 -0.8129
   32MOL   H93530137   0.027   7.413   1.768  0.2988  1.1539 -0.9052
   32MOL   H93630138   7.840   7.595   1.750  0.0942 -1.7827 -0.3995
   32MOL   H93730139   7.869   7.636   1.923 -1.0065 -0.1262 -0.1332
   32MOL   H93830140   7.733   7.260   2.055 -0.0696  3.1023  1.9133
   32MOL   H93930141   7.582   7.084   2.148  0.7989 -0.0089 -0.5932
   32MOL   H94030142   7.230   7.304   2.035 -0.7421  0.7029 -0.0879
   32MOL   H94130143   7.389   7.477   1.914 -0.4145 -1.1977 -1.0665
   32MOL   H94230144   7.150   7.011   2.195  1.9370  0.1154  1.8961
   33MOL     O130145   3.335   1.388   4.127 -0.1344 -0.1233  0.1669
   33MOL     C230146   3.257   1.308   4.046  0.1567 -0.0455 -0.6793
   33MOL     C330147   3.135   1.387   3.991  0.0704 -0.1658 -0.0562
   33MOL     C430148   3.072   1.322   3.874  0.2852 -0.6781 -0.0835
   33MOL     C530149   2.954   1.396   3.810  0.0760 -0.1928 -0.5058
   33MOL     C630150   2.815   1.353   3.862  0.1133  0.2112  0.3208
   33MOL     C730151   2.699   1.439   3.796 -0.0497  0.0039 -0.5807
   33MOL     C830152   2.563   1.375   3.832 -0.8902 -0.3392  0.0753
   33MOL     C930153   2.447   1.440   3.751 -0.4283  0.1975 -0.1152
   33MOL    C1030154   2.319   1.357   3.729 -0.0779  0.3487  0.7526
   33MOL    C1130155   2.250   1.410   3.598 -0.2687  0.6423 -0.5863
   33MOL    O1230156   2.128   1.338   3.571  0.0399 -0.2548  0.2489
   33MOL    C1330157   2.012   1.382   3.599 -0.2031  0.3180  0.4318
   33MOL    O1430158   1.993   1.495   3.643 -0.2355  0.1779 -0.0816
   33MOL    C1530159   1.906   1.286   3.555  0.0073 -0.0182  0.1354
   33MOL    C1630160   1.775   1.288   3.609  0.0722  0.3858 -0.2068
   33MOL    C1730161   1.669   1.206   3.560 -0.8866  0.1535  0.1966
   33MOL    C1830162   1.702   1.109   3.464  0.0351 -1.0064 -0.1828
   33MOL    C1930163   1.601   1.008   3.417 -0.3583 -0.5363  0.3755
   33MOL    O2030164   1.619   0.908   3.341 -0.2579  0.6281 -0.3212
   33MOL    O2130165   1.476   1.039   3.475  0.2873  0.1931  0.3079
   33MOL    C2230166   1.831   1.103   3.407 -0.3754 -0.4925 -0.0676
   33MOL    C2330167   1.924   1.197   3.449  0.3466 -0.3550 -0.0527
   33MOL    H2430168   3.306   1.265   3.959 -1.4010 -0.9515 -1.1316
   33MOL    H2530169   3.221   1.227   4.109  0.9627  1.0360  1.1988
   33MOL    H2630170   3.171   1.487   3.965 -0.9937  0.5928  1.3016
   33MOL    H2730171   3.059   1.402   4.067  0.1044  1.0308 -0.2459
   33MOL    H2830172   3.150   1.316   3.798  2.3894 -0.1404  1.9368
   33MOL    H2930173   3.043   1.218   3.885 -0.2581 -0.3708  1.4784
   33MOL    H3030174   2.963   1.386   3.702  0.9592 -0.7332 -0.3839
   33MOL    H3130175   2.965   1.505   3.809  0.7146 -0.2592 -0.5490
   33MOL    H3230176   2.801   1.246   3.850 -1.9270  0.3247  1.4190
   33MOL    H3330177   2.821   1.357   3.971  0.5011 -0.1457  0.3140
   33MOL    H3430178   2.700   1.543   3.826 -4.0097  0.7103 -2.5052
   33MOL    H3530179   2.712   1.449   3.688 -0.1260  0.3748 -0.5543
   33MOL    H3630180   2.570   1.267   3.826  1.9428 -0.1348 -0.9925
   33MOL    H3730181   2.551   1.386   3.940 -0.3630  2.2522 -0.0845
   33MOL    H3830182   2.425   1.536   3.798  0.4420  1.3948 -2.1320
   33MOL    H3930183   2.479   1.473   3.653  2.7725 -2.2028  0.0438
   33MOL    H4030184   2.261   1.356   3.822  3.5963 -0.6120  3.1142
   33MOL    H4130185   2.353   1.255   3.716 -0.3977  0.5288 -1.6259
   33MOL    H4230186   2.300   1.400   3.502  1.4756 -0.0010  0.3599
   33MOL    H4330187   2.227   1.516   3.605  0.7130  0.8003  0.3334
   33MOL    H4430188   1.744   1.365   3.679 -2.2827  0.4774 -1.2837
   33MOL    H4530189   1.572   1.212   3.607 -0.9566 -1.2085  0.2440
   33MOL    H4630190   1.855   1.032   3.330  1.0099 -0.2034  0.0906
   33MOL    H4730191   2.021   1.203   3.403 -1.4430  3.2895 -3.6529
   33MOL    H4830192   3.296   1.399   4.212  1.6534  2.6442  0.7031
   33MOL    O4930193   1.371   0.936   3.434 -0.2371  0.2536  0.9293
   33MOL    C5030194   1.308   0.984   3.312  0.8943 -0.1704  0.0571
   33MOL    C5130195   1.215   1.098   3.333  0.7184  0.1774  0.0437
   33MOL    C5230196   1.075   1.052   3.371 -1.1667  0.4051 -0.0892
   33MOL    C5330197   0.983   1.178   3.388 -0.2227  0.7159 -0.0257
   33MOL    C5430198   0.846   1.156   3.435 -0.5546 -0.2553  0.2236
   33MOL    C5530199   0.773   1.288   3.452  0.2572 -0.2526  0.0246
   33MOL    C5630200   0.629   1.268   3.491 -0.3142 -0.5887 -0.1633
   33MOL    C5730201   0.570   1.396   3.558 -0.4452 -0.3334 -0.2529
   33MOL    C5830202   0.423   1.397   3.600  0.3479 -0.5962 -0.1061
   33MOL    C5930203   0.401   1.299   3.719 -0.1193 -0.4606  0.5858
   33MOL    O6030204   0.278   1.341   3.790 -0.1599  0.2144  0.2519
   33MOL    C6130205   0.289   1.399   3.911 -0.6133 -0.0684 -0.0892
   33MOL    O6230206   0.402   1.417   3.966 -0.1421 -0.5510  0.1453
   33MOL    C6330207   0.162   1.438   3.975  0.6629  0.5771  0.6089
   33MOL    C6430208   0.039   1.386   3.931  0.0139 -0.3685  0.0348
   33MOL    C6530209   7.899   1.419   4.002 -0.4045  0.2327  0.2050
   33MOL    C6630210   7.903   1.509   4.113  0.3222  0.4755  0.6562
   33MOL    C6730211   7.789   1.545   4.198  0.7362 -0.6067 -0.5799
   33MOL    O6830212   7.783   1.639   4.283  0.2132 -0.0971 -0.1256
   33MOL    O6930213   7.685   1.461   4.178  0.3992 -0.1927 -0.4655
   33MOL    C7030214   0.047   1.562   4.152 -0.0549 -0.1490  0.0312
   33MOL    C7130215   0.164   1.527   4.081  0.0754 -0.1544  1.3630
   33MOL    H7230216   1.388   1.008   3.243  1.7146  1.2965  1.5000
   33MOL    H7330217   1.254   0.898   3.271  1.0562 -0.8789  1.2808
   33MOL    H7430218   1.199   1.158   3.243  0.9284  0.5249  0.2420
   33MOL    H7530219   1.260   1.162   3.408  1.5665 -2.6477  2.0173
   33MOL    H7630220   1.042   0.975   3.302  1.0369 -0.3425 -0.3579
   33MOL    H7730221   1.082   1.004   3.469 -2.5048  1.7041  0.6515
   33MOL    H7830222   0.976   1.235   3.296 -0.9846 -0.1403 -0.5087
   33MOL    H7930223   1.031   1.241   3.462 -1.5083  0.8004  0.7618
   33MOL    H8030224   0.794   1.085   3.370  0.4416 -1.1073  0.3317
   33MOL    H8130225   0.845   1.110   3.534  0.0877 -1.2694 -0.2273
   33MOL    H8230226   0.831   1.355   3.515  0.6658 -0.7578  0.1822
   33MOL    H8330227   0.774   1.343   3.357 -1.2685  0.2036  0.2469
   33MOL    H8430228   0.567   1.252   3.403  0.9437 -1.8559 -0.8471
   33MOL    H8530229   0.619   1.191   3.568  0.4615 -0.5403 -0.0155
   33MOL    H8630230   0.627   1.433   3.644  0.9646 -1.9733 -0.4684
   33MOL    H8730231   0.579   1.478   3.487  1.4900  0.1776  0.5528
   33MOL    H8830232   0.361   1.359   3.518 -0.7032 -0.2324  0.5121
   33MOL    H8930233   0.396   1.499   3.628  0.2735 -1.1283  1.8154
   33MOL    H9030234   0.479   1.307   3.795 -1.4872 -1.7263  2.1988
   33MOL    H9130235   0.397   1.197   3.681 -3.0753  0.0514 -0.6239
   33MOL    H9230236   0.034   1.311   3.854 -1.1053 -0.8213  0.5289
   33MOL    H9330237   7.807   1.372   3.971  0.7962 -1.0374 -1.5517
   33MOL    H9430238   0.062   1.619   4.243  0.3547  0.9732 -0.7353
   33MOL    H9530239   0.259   1.571   4.110  0.3376 -1.0071  1.8174
   33MOL    O9630240   7.555   1.520   4.241  0.0279 -0.5312  0.3171
   33MOL    C9730241   7.481   1.593   4.142 -0.1252  0.2417 -0.4120
   33MOL    C9830242   7.411   1.493   4.043 -0.2669  0.6525  0.0571
   33MOL    C9930243   7.325   1.550   3.929  0.6385  0.0336  0.8535
   33MOL   C10030244   7.281   1.444   3.820  0.5575  0.1275 -0.1615
   33MOL   C10130245   7.203   1.518   3.700 -0.2685  0.4012 -0.9326
   33MOL   C10230246   7.146   1.429   3.583  0.3080 -0.3913  0.5367
   33MOL   C10330247   7.088   1.518   3.476  0.0923 -0.1893  0.3882
   33MOL   C10430248   7.070   1.438   3.343  0.6686  0.7549  0.4913
   33MOL   C10530249   6.935   1.357   3.336 -0.5628 -0.2433  0.6374
   33MOL   C10630250   6.925   1.273   3.211  0.1284 -0.1768 -0.3099
   33MOL   O10730251   7.014   1.161   3.225  0.7484  0.3757  0.0207
   33MOL   C10830252   6.984   1.042   3.164  0.0600  0.0402 -0.0402
   33MOL   O10930253   6.875   1.027   3.101  0.2530  0.0603 -0.3085
   33MOL   C11030254   7.102   0.940   3.154  0.5828 -0.0246  0.2022
   33MOL   C11130255   7.090   0.809   3.093 -0.0287 -0.3852  0.3363
   33MOL   C11230256   7.205   0.727   3.077  0.0111 -0.1467 -0.3096
   33MOL   C11330257   7.330   0.765   3.135 -0.0557  0.0703  0.1024
   33MOL   C11430258   7.455   0.685   3.122  1.2953 -0.3105 -0.3548
   33MOL   O11530259   7.562   0.706   3.174  0.1614  0.6348  0.0094
   33MOL   O11630260   7.440   0.582   3.030 -0.0702  0.1787  0.0623
   33MOL   C11730261   7.342   0.894   3.194  0.5584 -0.9085 -0.3530
   33MOL   C11830262   7.228   0.982   3.202  0.0113  0.0479  0.5736
   33MOL   H11930263   7.408   1.657   4.192  1.3324  0.9944  0.7761
   33MOL   H12030264   7.534   1.662   4.077  1.9978 -0.1614  0.8702
   33MOL   H12130265   7.356   1.418   4.100  1.2404  0.7589  1.6921
   33MOL   H12230266   7.487   1.433   3.993 -0.8727 -1.0226  1.0879
   33MOL   H12330267   7.231   1.587   3.970 -0.4791 -0.2254 -1.3653
   33MOL   H12430268   7.363   1.631   3.866 -0.8834  0.2252  0.1514
   33MOL   H12530269   7.228   1.359   3.861  0.6370 -0.2127 -0.7537
   33MOL   H12630270   7.373   1.391   3.793  0.2642 -0.6130  0.2938
   33MOL   H12730271   7.121   1.575   3.743 -0.9439  0.3550 -2.1338
   33MOL   H12830272   7.274   1.589   3.656  2.1136 -1.7003 -0.5656
   33MOL   H12930273   7.224   1.362   3.546 -0.5682 -0.3665 -1.3705
   33MOL   H13030274   7.069   1.363   3.621 -0.0993  0.4065  1.1108
   33MOL   H13130275   6.999   1.570   3.514  2.6271  2.6241  2.7910
   33MOL   H13230276   7.153   1.603   3.454 -1.1934  0.7689  0.2016
   33MOL   H13330277   7.085   1.503   3.257  1.6211  2.3415  1.8345
   33MOL   H13430278   7.157   1.373   3.328  0.4995  0.0163  2.4891
   33MOL   H13530279   6.839   1.407   3.348  0.4130  1.1368  3.0719
   33MOL   H13630280   6.935   1.278   3.411 -0.2736 -0.7660  0.0897
   33MOL   H13730281   6.948   1.332   3.122  2.1572 -0.0184  0.3047
   33MOL   H13830282   6.823   1.239   3.195  0.4165 -0.8742 -0.6655
   33MOL   H13930283   6.999   0.774   3.046  0.4819 -1.5841  0.2381
   33MOL   H14030284   7.185   0.625   3.048 -1.0342  0.1615 -0.7170
   33MOL   H14130285   7.433   0.930   3.241 -0.6575  2.4681 -0.4804
   33MOL   H14230286   7.240   1.079   3.249  3.7092  0.5493 -1.2184
   33MOL   O14330287   7.574   0.506   2.996 -0.4919 -0.3118  0.1159
   33MOL   C14430288   7.619   0.563   2.872 -0.5995  0.0925  0.5360
   33MOL   C14530289   7.764   0.533   2.823 -0.0423  0.1115  0.2814
   33MOL   C14630290   7.808   0.605   2.692 -0.0344 -0.5574 -0.0079
   33MOL   C14730291   7.805   0.762   2.697  0.4442  0.0210 -0.4705
   33MOL   C14830292   7.902   0.811   2.590 -0.0255 -0.7837 -0.4161
   33MOL   C14930293   7.896   0.961   2.556  0.6807  0.5533 -0.1281
   33MOL   C15030294   7.975   1.005   2.428 -0.1374 -0.4500  0.3268
   33MOL   C15130295   0.028   1.156   2.413  0.2671  0.0711  0.7952
   33MOL   C15230296   0.080   1.202   2.276  1.0149 -0.5850  0.1333
   33MOL   C15330297   0.145   1.341   2.264  0.0546 -0.0010  0.3845
   33MOL   O15430298   0.054   1.440   2.311 -0.2571 -0.3762 -0.9505
   33MOL   C15530299   0.083   1.569   2.283 -0.1589  0.3103  0.1137
   33MOL   O15630300   0.191   1.601   2.235  0.4072 -0.2424 -0.6801
   33MOL   C15730301   7.958   1.668   2.315  0.0698 -0.3633 -1.0518
   33MOL   C15830302   7.849   1.635   2.394  0.7775  0.2348 -0.2550
   33MOL   C15930303   7.749   1.734   2.413  0.0164  0.0511  0.3496
   33MOL   C16030304   7.754   1.860   2.347  0.3947 -0.2503  0.3145
   33MOL   C16130305   7.649   1.959   2.364  0.2275 -0.3490 -0.1737
   33MOL   O16230306   7.669   2.073   2.325  0.1086  0.2712 -0.2663
   33MOL   O16330307   7.544   1.917   2.434 -0.0945 -0.6164  0.4388
   33MOL   C16430308   7.870   1.890   2.276  0.2867  0.1734 -0.2203
   33MOL   C16530309   7.969   1.791   2.255  0.0638 -0.3737  0.0704
   33MOL   H16630310   7.546   0.532   2.797 -1.1711 -0.1469  1.1800
   33MOL   H16730311   7.609   0.671   2.886 -1.3331 -0.1381  1.8984
   33MOL   H16830312   7.758   0.427   2.799 -0.8111  0.2475 -0.1410
   33MOL   H16930313   7.832   0.550   2.907  1.4031  0.6631 -0.9912
   33MOL   H17030314   7.915   0.593   2.679  0.2360  1.6874 -0.1074
   33MOL   H17130315   7.754   0.570   2.605 -1.7190  1.6174  0.1110
   33MOL   H17230316   7.831   0.786   2.801  0.9158 -1.8176 -0.1504
   33MOL   H17330317   7.703   0.796   2.682 -0.3952 -2.6967 -1.0431
   33MOL   H17430318   0.021   0.780   2.628 -0.4636 -0.5734  0.8702
   33MOL   H17530319   7.874   0.761   2.497 -1.2408 -0.5637 -0.1779
   33MOL   H17630320   7.792   0.992   2.548  0.9497  1.4624 -0.2409
   33MOL   H17730321   7.931   1.017   2.643 -0.5577  1.4851 -0.2290
   33MOL   H17830322   0.095   0.959   2.443  1.7847  3.1885 -0.5874
   33MOL   H17930323   7.921   0.960   2.345 -1.2662 -1.9286  1.8282
   33MOL   H18030324   7.923   1.222   2.441  0.0577  0.3009 -0.3438
   33MOL   H18130325   0.098   1.180   2.493  0.5202 -2.6135  1.4196
   33MOL   H18230326   7.974   1.198   2.207  0.8083  1.0122  0.2598
   33MOL   H18330327   0.152   1.131   2.236  0.6794  0.0018 -1.5323
   33MOL   H18430328   0.167   1.366   2.160 -0.5196 -0.5092  0.1376
   33MOL   H18530329   0.234   1.357   2.325  0.0798 -2.5355  1.0441
   33MOL   H18630330   7.830   1.541   2.443 -1.5962  1.2491  0.8212
   33MOL   H18730331   7.661   1.701   2.466 -0.9063  0.7891 -0.7066
   33MOL   H18830332   7.871   1.986   2.227  0.2723 -0.1709 -0.8932
   33MOL   H18930333   0.079   1.816   2.198 -0.2070 -0.7568 -0.5121
   33MOL   O19030334   7.453   2.028   2.472 -0.3725  0.8965 -0.0043
   33MOL   C19130335   7.486   2.063   2.605 -0.1320 -0.4264  0.1861
   33MOL   C19230336   7.444   1.968   2.713  0.2860  0.0827 -0.2834
   33MOL   C19330337   7.510   1.991   2.852  0.4234 -0.0598 -0.7957
   33MOL   C19430338   7.446   1.929   2.980 -0.2187 -0.6612  0.4160
   33MOL   C19530339   7.508   1.944   3.114 -0.5270  0.2471 -0.9661
   33MOL   C19630340   7.423   1.895   3.243 -0.1888 -0.5324 -0.1092
   33MOL   C19730341   7.493   1.928   3.374 -0.8200 -0.1961  0.4863
   33MOL   C19830342   7.410   1.915   3.501 -0.9061 -0.0872 -0.2387
   33MOL   C19930343   7.471   1.980   3.633 -0.1031 -1.2896 -0.4079
   33MOL   C20030344   7.363   1.956   3.738 -0.1029  0.1948 -0.0226
   33MOL   O20130345   7.265   2.054   3.737 -0.2205 -0.0616  0.0927
   33MOL   C20230346   7.159   2.057   3.811  0.0452  0.1724 -0.0700
   33MOL   O20330347   7.108   1.965   3.879  0.0820 -0.3969  0.2283
   33MOL   C20430348   7.096   2.195   3.811 -0.1098  0.5937 -0.6407
   33MOL   C20530349   6.993   2.224   3.899 -0.4614  0.0105  0.1974
   33MOL   C20630350   6.944   2.359   3.916 -0.1089  0.8450 -0.2167
   33MOL   C20730351   6.981   2.458   3.820 -0.2745  0.1741 -0.4738
   33MOL   C20830352   6.923   2.596   3.835  0.0960 -0.3034  0.4331
   33MOL   O20930353   6.813   2.617   3.889 -0.0170  0.4716  0.1017
   33MOL   O21030354   7.009   2.697   3.790  0.0582  0.8959 -0.1442
   33MOL   C21130355   7.073   2.424   3.721 -0.1511 -0.6660  0.4316
   33MOL   C21230356   7.137   2.300   3.720 -0.4281  0.2110 -0.6860
   33MOL   H21330357   7.592   2.083   2.622 -0.0252 -0.6350 -0.2198
   33MOL   H21430358   7.436   2.157   2.628 -1.0048 -0.8838  0.1598
   33MOL   H21530359   7.453   1.863   2.682 -0.9007  0.1325 -0.8374
   33MOL   H21630360   7.339   1.977   2.741  0.0409 -0.5917 -0.9457
   33MOL   H21730361   7.609   1.944   2.845  0.5735 -0.0579  1.0319
   33MOL   H21830362   7.517   2.099   2.867  0.2301 -0.1712  0.0848
   33MOL   H21930363   7.418   1.828   2.951 -0.7341 -0.6358  0.7951
   33MOL   H22030364   7.352   1.985   2.986  0.6036  0.7703  0.0612
   33MOL   H22130365   7.601   1.889   3.127  0.4321  1.6972 -1.5449
   33MOL   H22230366   7.535   2.050   3.120 -2.2094  0.6586 -0.2660
   33MOL   H22330367   7.327   1.947   3.238 -0.5116 -0.8843  1.9014
   33MOL   H22430368   7.404   1.787   3.244 -0.0908 -0.6196 -2.9883
   33MOL   H22530369   7.579   1.863   3.390 -0.0168  0.8399  0.3976
   33MOL   H22630370   7.535   2.028   3.382 -0.1419 -0.4291 -0.1010
   33MOL   H22730371   7.314   1.963   3.483  0.0037  2.6337  1.9044
   33MOL   H22830372   7.379   1.811   3.515  3.3985 -1.5481 -0.7451
   33MOL   H22930373   7.480   2.088   3.622 -2.7954 -0.8089  1.4731
   33MOL   H23030374   7.568   1.934   3.647  0.9265  0.3994 -1.6972
   33MOL   H23130375   7.426   1.971   3.826 -0.7346  0.4536  0.3881
   33MOL   H23230376   7.326   1.853   3.742  1.6734 -0.4320  0.8375
   33MOL   H23330377   6.961   2.143   3.964  1.4962 -1.7972 -1.0637
   33MOL   H23430378   6.869   2.376   3.992 -0.1743 -0.5728  0.0427
   33MOL   H23530379   7.097   2.485   3.635 -0.0443 -0.0583  0.8902
   33MOL   H23630380   7.216   2.279   3.650 -0.5070  0.6255 -0.8997
   33MOL   O23730381   6.938   2.830   3.790 -1.1039 -0.0196 -0.0869
   33MOL   C23830382   6.998   2.920   3.882  0.0613 -0.5001  0.3448
   33MOL   C23930383   7.102   3.010   3.803  0.5456  0.6344  0.2156
   33MOL   C24030384   7.232   2.933   3.778 -0.6203 -0.7763 -0.0219
   33MOL   C24130385   7.345   3.015   3.717  0.2057 -0.6383 -0.4825
   33MOL   C24230386   7.328   3.025   3.567 -0.9328 -0.3507 -0.6990
   33MOL   C24330387   7.456   3.065   3.497  0.3206  0.3150 -0.1354
   33MOL   C24430388   7.442   3.094   3.346  0.3649  0.2551 -0.1580
   33MOL   C24530389   7.573   3.121   3.271 -0.2958 -0.0257 -0.2700
   33MOL   C24630390   7.611   3.268   3.274 -0.4863 -1.4765  0.0808
   33MOL   C24730391   7.755   3.301   3.240 -0.2278 -0.6736  0.2909
   33MOL   O24830392   7.772   3.290   3.097  0.3750 -0.1821 -0.3165
   33MOL   C24930393   7.822   3.184   3.033  0.5708 -0.3476  0.0367
   33MOL   O25030394   7.871   3.090   3.089 -0.6543  0.5988 -0.6162
   33MOL   C25130395   7.807   3.199   2.886 -0.5837  0.1167  0.2114
   33MOL   C25230396   7.705   3.274   2.835  0.2061  0.0412 -0.0937
   33MOL   C25330397   7.671   3.277   2.695 -0.1467 -0.3117  0.3131
   33MOL   C25430398   7.754   3.206   2.604  1.0223 -0.4506 -0.2522
   33MOL   C25530399   7.732   3.213   2.456  0.2776 -0.2041  0.0469
   33MOL   O25630400   7.813   3.167   2.375 -0.4175 -0.8198 -0.1499
   33MOL   O25730401   7.612   3.270   2.413  0.4342  0.2564 -0.6135
   33MOL   C25830402   7.866   3.135   2.653 -0.0352 -0.3722  0.1193
   33MOL   C25930403   7.890   3.125   2.793  0.3408  0.1631 -0.2729
   33MOL   H26030404   6.916   2.983   3.916  1.6316  0.1082  3.2146
   33MOL   H26130405   7.034   2.868   3.970 -3.7656 -0.2605  2.1314
   33MOL   H26230406   7.118   3.104   3.856  1.2319  0.9146 -0.4660
   33MOL   H26330407   7.061   3.031   3.704  0.7553  0.8710  0.1782
   33MOL   H26430408   7.267   2.890   3.872 -0.2385 -0.6143 -0.0906
   33MOL   H26530409   7.219   2.852   3.707 -1.2171 -0.2850 -0.4823
   33MOL   H26630410   7.442   2.971   3.741  0.2673 -0.3394 -0.1863
   33MOL   H26730411   7.347   3.111   3.767  2.1603 -1.1156  0.4086
   33MOL   H26830412   7.301   2.930   3.519 -1.4093  0.0823 -1.3025
   33MOL   H26930413   7.253   3.094   3.528 -0.1157  1.4364  0.8368
   33MOL   H27030414   7.485   3.157   3.547 -0.8775  0.7857 -0.2920
   33MOL   H27130415   7.535   2.993   3.518 -1.5472 -1.9769 -0.6198
   33MOL   H27230416   7.401   2.998   3.313 -0.3225  0.0447  1.2824
   33MOL   H27330417   7.364   3.169   3.335 -0.9288 -1.0642 -0.0620
   33MOL   H27430418   7.653   3.052   3.298 -1.2379 -0.2235  2.0944
   33MOL   H27530419   7.553   3.098   3.166 -1.0266 -1.4642  0.1678
   33MOL   H27630420   7.608   3.304   3.376 -1.1778 -1.1433 -0.0522
   33MOL   H27730421   7.543   3.323   3.208  0.7364  0.0062  0.0327
   33MOL   H27830422   7.821   3.221   3.274  0.9686  0.4067  0.4993
   33MOL   H27930423   7.792   3.396   3.277  0.3718 -0.8456  0.1356
   33MOL   H28030424   7.647   3.338   2.900  0.0034  0.2205 -0.4524
   33MOL   H28130425   7.593   3.343   2.662 -0.0253  0.4654  1.5688
   33MOL   H28230426   7.926   3.087   2.577 -0.0491 -1.9102  1.0484
   33MOL   H28330427   0.002   3.078   2.830  0.8423  1.4449  0.1581
   33MOL   O28430428   7.589   3.252   2.262 -0.2064 -0.1620 -0.3412
   33MOL   C28530429   7.506   3.140   2.245 -0.3660 -0.1807  0.3590
   33MOL   C28630430   7.494   3.097   2.092 -0.1581  0.0506  0.3412
   33MOL   C28730431   7.626   3.060   2.023  0.9674  0.6165 -0.7807
   33MOL   C28830432   7.628   3.075   1.868  0.2812  1.0578  0.4586
   33MOL   C28930433   7.518   2.997   1.799 -0.3913 -0.4094  0.0969
   33MOL   C29030434   7.562   2.965   1.656 -0.1143 -0.4207  0.3365
   33MOL   C29130435   7.452   2.900   1.566 -0.1736 -0.3360  0.1724
   33MOL   C29230436   7.479   2.885   1.419 -0.3938 -0.3007  0.3551
   33MOL   C29330437   7.369   2.803   1.357 -0.0179 -0.4233 -0.0825
   33MOL   C29430438   7.384   2.793   1.212 -0.5258  0.4491  0.6173
   33MOL   O29530439   7.260   2.774   1.148  0.4162  0.1977  0.5117
   33MOL   C29630440   7.224   2.652   1.083  0.4362 -0.4395  0.1518
   33MOL   O29730441   7.296   2.557   1.093 -0.5115 -0.2213 -0.3963
   33MOL   C29830442   7.085   2.645   1.021  0.3656 -0.2723  0.5944
   33MOL   C29930443   7.021   2.525   1.003  0.0505  0.2661  0.4777
   33MOL   C30030444   6.894   2.514   0.945 -0.3864  0.1424  0.7912
   33MOL   C30130445   6.828   2.631   0.897  0.5542 -0.2946 -0.0233
   33MOL   C30230446   6.696   2.620   0.826  0.2521 -0.0734 -0.8020
   33MOL   O30330447   6.617   2.714   0.821  0.5362 -0.4188 -0.7940
   33MOL   O30430448   6.668   2.493   0.773  1.4667 -0.6653  0.6032
   33MOL   C30530449   6.889   2.753   0.922 -0.0866  0.1720  1.1004
   33MOL   C30630450   7.011   2.765   0.989  0.3135 -0.2099  0.8613
   33MOL   H30730451   7.539   3.052   2.300 -2.7852 -1.1402  0.3386
   33MOL   H30830452   7.413   3.149   2.300  0.4885  0.9605  1.6456
   33MOL   H30930453   7.455   3.185   2.040 -0.0407  0.9958  1.8188
   33MOL   H31030454   7.416   3.025   2.070 -0.5090  0.3252  0.6780
   33MOL   H31130455   7.708   3.116   2.068  1.4046 -0.3063 -0.4082
   33MOL   H31230456   7.643   2.955   2.051  2.3642  0.6696 -1.4112
   33MOL   H31330457   7.728   3.056   1.828 -0.3970  0.5427 -1.0435
   33MOL   H31430458   7.613   3.180   1.841  1.4784  1.4215  1.1767
   33MOL   H31530459   7.505   2.900   1.847 -4.1836 -0.4960 -1.0054
   33MOL   H31630460   7.423   3.049   1.798  0.0905  0.4766 -0.8411
   33MOL   H31730461   7.583   3.060   1.607 -1.2206  0.0322  0.7146
   33MOL   H31830462   7.650   2.901   1.658  0.4608  0.3623  0.2604
   33MOL   H31930463   7.433   2.800   1.604  1.6739 -0.9190 -0.3630
   33MOL   H32030464   7.366   2.964   1.583  1.5155  1.8776  0.6712
   33MOL   H32130465   7.475   2.981   1.368 -0.2428  0.3557  1.5530
   33MOL   H32230466   7.575   2.834   1.408 -0.4777 -0.8076  1.7908
   33MOL   H32330467   7.276   2.859   1.372  0.0333 -0.8545  1.9699
   33MOL   H32430468   7.352   2.705   1.401 -0.6167 -0.1953  0.1959
   33MOL   H32530469   7.453   2.714   1.184 -0.1103  0.9674  0.1637
   33MOL   H32630470   7.412   2.894   1.180 -1.8153  0.5817 -0.0890
   33MOL   H32730471   7.080   2.438   1.028  0.0356 -0.1486 -0.8873
   33MOL   H32830472   6.843   2.421   0.925 -1.0014 -0.1991  3.7275
   33MOL   H32930473   6.834   2.844   0.903 -1.5814 -1.3839 -2.4825
   33MOL   H33030474   7.048   2.863   1.013 -0.3138  0.4173 -0.6992
   33MOL   O33130475   6.528   2.488   0.715  0.8377  0.1821 -0.2944
   33MOL   C33230476   6.438   2.445   0.816 -0.2903  0.2550  0.1990
   33MOL   C33330477   6.457   2.291   0.838  0.0954  0.0526  0.2360
   33MOL   C33430478   6.424   2.210   0.713  0.1293 -0.0161 -0.3277
   33MOL   C33530479   6.474   2.066   0.741 -0.0757  0.4951  0.6993
   33MOL   C33630480   6.406   1.971   0.641 -0.6374 -0.1420 -0.0484
   33MOL   C33730481   6.463   1.829   0.648 -0.1721 -0.6317 -0.2813
   33MOL   C33830482   6.353   1.732   0.605  0.1982 -0.5332  0.3632
   33MOL   C33930483   6.402   1.585   0.631  0.1665  0.2453  0.2284
   33MOL   C34030484   6.282   1.484   0.604 -0.0718  0.4656 -0.9085
   33MOL   C34130485   6.179   1.472   0.710 -0.0904  0.0840 -0.0058
   33MOL   O34230486   6.112   1.589   0.726  0.3227  0.2613 -0.9588
   33MOL   C34330487   5.995   1.589   0.801 -0.0053  0.1894  0.1339
   33MOL   O34430488   5.953   1.487   0.854 -0.2172  0.2951 -0.3214
   33MOL   C34530489   5.916   1.718   0.794 -0.1644  0.1696  0.0358
   33MOL   C34630490   5.973   1.834   0.740  0.2032  1.4324 -0.0888
   33MOL   C34730491   5.909   1.956   0.741 -0.2179  0.0799  0.1525
   33MOL   C34830492   5.773   1.964   0.791  0.0204  0.4068 -0.2371
   33MOL   C34930493   5.701   2.090   0.787 -0.3359 -0.0793 -0.4618
   33MOL   O35030494   5.765   2.197   0.791 -0.5940 -0.1656 -0.0749
   33MOL   O35130495   5.566   2.079   0.773 -0.0330  0.0741  0.3472
   33MOL   C35230496   5.714   1.848   0.842  0.6852  0.6857  0.1730
   33MOL   C35330497   5.784   1.728   0.843 -0.5501  0.3608 -0.2396
   33MOL   H35430498   6.448   2.491   0.914  0.7947  0.9081 -0.2130
   33MOL   H35530499   6.337   2.464   0.779 -0.8399 -0.4407  1.3022
   33MOL   H35630500   6.406   2.248   0.924  3.3488 -3.1345  0.7052
   33MOL   H35730501   6.561   2.276   0.866 -0.3468 -1.2120  1.2515
   33MOL   H35830502   6.315   2.218   0.706  0.2004  0.6741 -0.7019
   33MOL   H35930503   6.478   2.260   0.633  1.1330 -0.9043 -0.2128
   33MOL   H36030504   6.460   2.036   0.845 -1.5564  2.3042  1.0633
   33MOL   H36130505   6.582   2.070   0.729  0.0197 -1.3691  0.8457
   33MOL   H36230506   6.300   1.977   0.666 -0.9846 -1.6279 -1.1026
   33MOL   H36330507   6.419   2.006   0.538 -0.1583 -3.8580 -1.3164
   33MOL   H36430508   6.552   1.822   0.585 -0.7319 -0.3638 -1.1096
   33MOL   H36530509   6.494   1.808   0.750 -1.2367  1.5894  0.5352
   33MOL   H36630510   6.261   1.754   0.659  0.8277 -0.9879  1.6329
   33MOL   H36730511   6.330   1.759   0.502 -2.3571 -2.3028  0.4272
   33MOL   H36830512   6.496   1.568   0.578  0.7327 -0.5613  1.4915
   33MOL   H36930513   6.436   1.582   0.734  3.0883 -0.0323 -0.6957
   33MOL   H37030514   6.318   1.385   0.576  0.2689  0.2055  0.4324
   33MOL   H37130515   6.230   1.513   0.512  2.0618  0.7732 -2.0337
   33MOL   H37230516   6.221   1.434   0.803 -0.5243 -0.0907  0.1192
   33MOL   H37330517   6.120   1.387   0.674  1.7546 -1.9302  1.5278
   33MOL   H37430518   6.073   1.829   0.700  1.4376 -0.5760  3.0895
   33MOL   H37530519   5.955   2.050   0.713  1.0823  0.2870  2.8474
   33MOL   H37630520   5.608   1.849   0.860  0.9063  1.6363  1.4880
   33MOL   H37730521   5.741   1.637   0.882 -0.4207 -0.0548 -1.0668
   33MOL   O37830522   5.494   2.209   0.771 -0.8444 -0.0384  0.2759
   33MOL   C37930523   5.499   2.273   0.648 -0.4710 -0.3880  0.0378
   33MOL   C38030524   5.408   2.402   0.648 -0.3520 -0.0513  0.6691
   33MOL   C38130525   5.265   2.352   0.674  0.0956  0.2762  0.4037
   33MOL   C38230526   5.155   2.457   0.670 -0.8815 -0.4569  0.0684
   33MOL   C38330527   5.168   2.555   0.550 -0.1160 -0.5477  0.4776
   33MOL   C38430528   5.047   2.644   0.523 -0.0983 -0.2145  0.5887
   33MOL   C38530529   5.090   2.769   0.443  0.6172 -0.0291 -0.3836
   33MOL   C38630530   5.179   2.859   0.537 -0.6417  0.2533  0.5347
   33MOL   C38730531   5.252   2.981   0.477 -0.0993 -0.0987 -0.2366
   33MOL   C38830532   5.391   2.954   0.429  0.0323 -0.2627  0.4346
   33MOL   O38930533   5.383   2.836   0.348 -0.2255 -0.1266 -0.6938
   33MOL   C39030534   5.382   2.840   0.219 -0.5565  0.7247  0.2593
   33MOL   O39130535   5.388   2.947   0.158 -0.0838  0.0557  0.0685
   33MOL   C39230536   5.363   2.707   0.154 -0.4408  0.0876  0.2597
   33MOL   C39330537   5.376   2.586   0.225 -0.2416  0.7920  0.7245
   33MOL   C39430538   5.358   2.470   0.154  0.1005  0.3538  0.0504
   33MOL   C39530539   5.317   2.469   0.020 -0.8907  0.0777  0.4173
   33MOL   C39630540   5.274   2.339   7.941 -0.4229  0.1340  0.5464
   33MOL   O39730541   5.255   2.243   0.038 -0.1357 -0.5344  0.4890
   33MOL   O39830542   5.248   2.352   7.804 -0.4778  0.1419 -0.0153
   33MOL   C39930543   5.311   2.591   7.924 -0.2109  0.2185 -0.2167
   33MOL   C40030544   5.331   2.711   0.016 -1.2596 -0.4146  0.0565
   33MOL   H40130545   5.602   2.300   0.624 -0.8923 -0.1991 -1.6213
   33MOL   H40230546   5.462   2.198   0.578  0.7206  0.0425 -1.0884
   33MOL   H40330547   5.414   2.459   0.555  2.5543 -1.4894 -0.0848
   33MOL   H40430548   5.432   2.479   0.721  0.4105  0.5809 -0.2314
   33MOL   H40530549   5.233   2.285   0.594 -0.1123 -2.0234  2.3920
   33MOL   H40630550   5.251   2.301   0.769  1.6886  0.5300  0.7900
   33MOL   H40730551   5.158   2.510   0.765 -0.9663  0.2615 -0.3328
   33MOL   H40830552   5.062   2.399   0.661 -1.0309 -0.0685 -0.9320
   33MOL   H40930553   5.263   2.608   0.547 -0.1012 -0.6310 -0.4056
   33MOL   H41030554   5.178   2.495   0.460  2.2009  0.0135  0.3274
   33MOL   H41130555   4.967   2.594   0.468  2.2039 -2.1632 -1.0977
   33MOL   H41230556   5.005   2.668   0.620 -1.6564 -1.0896  0.1569
   33MOL   H41330557   5.141   2.760   0.347  0.7184 -0.1531 -0.3185
   33MOL   H41430558   5.004   2.823   0.404  0.5338 -0.4641 -0.8175
   33MOL   H41530559   5.109   2.903   0.607  0.7921  2.3596  0.6927
   33MOL   H41630560   5.240   2.802   0.607 -2.6737 -0.7431  1.5267
   33MOL   H41730561   5.252   3.074   0.534 -1.0140  0.3338 -0.9198
   33MOL   H41830562   5.193   3.014   0.391 -0.4873  0.1339  0.1142
   33MOL   H41930563   5.463   2.940   0.510  1.6480 -0.7586 -1.0555
   33MOL   H42030564   5.433   3.042   0.378 -0.8528  0.2345  0.5581
   33MOL   H42130565   5.391   2.598   0.332 -1.7133  0.5209  0.9697
   33MOL   H42230566   5.358   2.378   0.211 -0.5746  0.1103 -0.3348
   33MOL   H42330567   5.277   2.602   7.822  0.1469  0.5997 -0.2937
   33MOL   H42430568   5.331   2.806   7.942 -1.4243 -1.2161 -1.4171
   33MOL   O42530569   5.223   2.218   7.729 -1.0634  0.0634  0.0383
   33MOL   C42630570   5.090   2.221   7.684 -0.2881  0.2486  0.2610
   33MOL   C42730571   5.059   2.100   7.599 -0.1293  0.2230 -0.2455
   33MOL   C42830572   5.157   2.073   7.480  0.3521  0.0353 -0.3752
   33MOL   C42930573   5.107   1.967   7.378  0.0861 -0.4268  0.3020
   33MOL   C43030574   5.170   1.988   7.238  0.3171 -0.7403 -0.7756
   33MOL   C43130575   5.076   1.923   7.129 -0.3410 -0.0883  0.2907
   33MOL   C43230576   5.103   1.948   6.974  0.0467 -0.0729  0.3848
   33MOL   C43330577   5.008   1.868   6.881 -0.1261 -0.5475  0.7870
   33MOL   C43430578   5.025   1.890   6.727  0.3100  0.0241 -0.0826
   33MOL   C43530579   4.913   1.982   6.677  0.4783 -0.0585  0.1811
   33MOL   O43630580   4.785   1.918   6.683 -0.6241 -0.0587  0.0256
   33MOL   C43730581   4.669   1.989   6.705 -0.7282  0.0118 -0.0018
   33MOL   O43830582   4.670   2.112   6.721  0.2175  0.8805 -0.3322
   33MOL   C43930583   4.544   1.904   6.695 -0.4196  0.5771 -0.6087
   33MOL   C44030584   4.545   1.774   6.650 -0.7268  0.0718 -0.3984
   33MOL   C44130585   4.429   1.699   6.636  0.6057  0.5019  0.4838
   33MOL   C44230586   4.303   1.756   6.676  0.5744  0.5512  0.2320
   33MOL   C44330587   4.184   1.671   6.660 -1.1100 -0.2173  0.3854
   33MOL   O44430588   4.183   1.567   6.591  0.3231 -0.2096 -0.4176
   33MOL   O44530589   4.067   1.734   6.721 -0.6708 -0.2172  0.2234
   33MOL   C44630590   4.298   1.887   6.724  0.0086  0.1559  0.2373
   33MOL   C44730591   4.418   1.961   6.730 -0.2842  0.0176  0.0819
   33MOL   H44830592   5.023   2.222   7.769 -0.0035  1.1444  0.4771
   33MOL   H44930593   5.079   2.310   7.622  2.2923 -0.6441 -1.6098
   33MOL   H45030594   4.956   2.122   7.569 -0.1475  0.7856  0.2216
   33MOL   H45130595   5.058   2.010   7.661  2.3642  0.5255  0.2641
   33MOL   H45230596   5.185   2.172   7.442  1.1074  0.4790  1.2816
   33MOL   H45330597   5.245   2.038   7.535 -1.3243  0.8412  2.9415
   33MOL   H45430598   4.998   1.974   7.373  0.0800  1.0738  1.9577
   33MOL   H45530599   5.115   1.863   7.410  0.1519  0.1165  2.0935
   33MOL   H45630600   5.199   2.092   7.222 -0.0248 -0.2650  1.5306
   33MOL   H45730601   5.270   1.945   7.236  0.8018  0.3876 -1.8355
   33MOL   H45830602   5.068   1.816   7.146 -1.5882 -0.1168 -0.4022
   33MOL   H45930603   4.973   1.957   7.145 -1.3463 -3.4017  1.1233
   33MOL   H46030604   5.103   2.052   6.943 -1.7904  0.1620  1.0844
   33MOL   H46130605   5.205   1.914   6.956 -0.4808 -1.4391 -0.1315
   33MOL   H46230606   5.024   1.763   6.905 -0.0673 -0.2279  2.2547
   33MOL   H46330607   4.903   1.874   6.913 -0.5354 -0.5375 -0.5527
   33MOL   H46430608   5.037   1.794   6.678  3.2290 -0.4949  1.5119
   33MOL   H46530609   5.121   1.943   6.729 -0.1432  0.8455  0.7116
   33MOL   H46630610   4.941   2.004   6.574  2.0457 -1.4077  0.2849
   33MOL   H46730611   4.918   2.081   6.722  1.3410  0.0839 -0.2237
   33MOL   H46830612   4.637   1.731   6.612 -1.0152 -1.0626  0.2083
   33MOL   H46930613   4.435   1.605   6.583 -3.2373  0.1706  0.5360
   33MOL   H47030614   4.214   1.939   6.767 -0.9007 -1.5566  0.5702
   33MOL   H47130615   4.411   2.062   6.765 -0.9418  0.0658 -0.1831
   33MOL   O47230616   3.942   1.649   6.689 -0.2275 -0.0811 -0.3308
   33MOL   C47330617   3.863   1.710   6.586  0.1295  0.3312  0.6481
   33MOL   C47430618   3.739   1.629   6.563 -0.3766 -0.0720 -0.7423
   33MOL   C47530619   3.653   1.680   6.451  0.3707 -0.1768 -0.2696
   33MOL   C47630620   3.529   1.589   6.444  0.0474  0.1108 -0.4578
   33MOL   C47730621   3.404   1.655   6.492  0.7214  0.2481 -0.1047
   33MOL   C47830622   3.273   1.586   6.476  0.3400  0.1298 -0.4131
   33MOL   C47930623   3.159   1.675   6.523 -0.6026 -0.2163 -0.2478
   33MOL   C48030624   3.018   1.611   6.506  0.5689 -0.4141 -1.1370
   33MOL   C48130625   2.911   1.709   6.555 -0.4709 -0.3691  0.1678
   33MOL   C48230626   2.762   1.671   6.536 -0.4048  0.2266  0.7139
   33MOL   O48330627   2.721   1.572   6.633  0.1264 -0.2365  0.0872
   33MOL   C48430628   2.661   1.604   6.750 -0.4524  0.1936 -0.0823
   33MOL   O48530629   2.606   1.709   6.776  0.1128  0.2996 -0.2465
   33MOL   C48630630   2.662   1.485   6.843 -0.4026  0.1071  0.4910
   33MOL   C48730631   2.604   1.494   6.972  0.1105  0.2013  0.2629
   33MOL   C48830632   2.600   1.376   7.055 -0.1026  0.4631  0.2890
   33MOL   C48930633   2.638   1.247   7.004 -0.4353 -0.3677 -0.5537
   33MOL   C49030634   2.614   1.125   7.088 -0.2789  0.0580 -0.6408
   33MOL   O49130635   2.697   1.039   7.111 -0.2095 -0.4090  0.6696
   33MOL   O49230636   2.483   1.123   7.124  0.7810  0.2801 -0.3133
   33MOL   C49330637   2.696   1.243   6.875 -0.3080 -0.1264 -0.1934
   33MOL   C49430638   2.710   1.363   6.799  0.9481  0.1233 -0.7423
   33MOL   H49530639   3.827   1.808   6.615  0.8021  1.3010 -1.7655
   33MOL   H49630640   3.925   1.715   6.497 -1.1271  0.2301 -0.2420
   33MOL   H49730641   3.675   1.638   6.651 -0.8294 -1.2251 -0.9537
   33MOL   H49830642   3.772   1.526   6.553  2.2654  0.2810  3.0494
   33MOL   H49930643   3.616   1.781   6.467 -1.8357 -0.1319 -4.8608
   33MOL   H50030644   3.705   1.681   6.355  0.2704  1.0145 -0.3231
   33MOL   H50130645   3.551   1.501   6.505 -0.4522  0.2611 -0.0613
   33MOL   H50230646   3.527   1.545   6.344  1.6426  0.1652 -0.5359
   33MOL   H50330647   3.411   1.687   6.596 -2.8041  1.7710 -0.2527
   33MOL   H50430648   3.389   1.748   6.438  4.0077  1.3587  0.8113
   33MOL   H50530649   3.265   1.565   6.369  0.6112 -0.7471 -0.2703
   33MOL   H50630650   3.264   1.491   6.529  1.0647  1.1946  1.6627
   33MOL   H50730651   3.179   1.688   6.629 -1.3386 -0.0844 -0.1222
   33MOL   H50830652   3.161   1.778   6.488  0.6311  0.1834  0.9716
   33MOL   H50930653   2.996   1.591   6.401  0.1752  3.1173 -1.7928
   33MOL   H51030654   3.015   1.522   6.568 -0.8598  0.1356 -0.3874
   33MOL   H51130655   2.927   1.800   6.497 -1.4702 -1.5089 -2.0002
   33MOL   H51230656   2.937   1.721   6.660 -5.2855  0.9906  1.3476
   33MOL   H51330657   2.747   1.634   6.434 -0.0230  0.3979  0.5949
   33MOL   H51430658   2.695   1.757   6.546 -0.4997  0.4728 -1.7039
   33MOL   H51530659   2.561   1.588   7.003  0.6022  0.7687 -0.7265
   33MOL   H51630660   2.550   1.389   7.150 -1.1192  0.8220 -0.2972
   33MOL   H51730661   2.727   1.148   6.836  1.4746 -0.2486  1.4195
   33MOL   H51830662   2.752   1.349   6.700  0.1295 -2.1475 -0.8066
   33MOL   O51930663   2.444   1.011   7.211  0.2093  0.1626 -0.3439
   33MOL   C52030664   2.423   1.056   7.341 -0.0406 -0.5991 -0.3776
   33MOL   C52130665   2.312   1.156   7.360 -0.0802  0.3502  0.3482
   33MOL   C52230666   2.307   1.215   7.503  0.0499  0.2920 -0.0109
   33MOL   C52330667   2.205   1.330   7.526 -0.5636 -0.1351 -0.3170
   33MOL   C52430668   2.246   1.387   7.663 -0.1156  0.0232  0.3839
   33MOL   C52530669   2.135   1.492   7.713  0.3781  0.2622  0.4401
   33MOL   C52630670   2.186   1.582   7.820 -0.1836  0.2867  0.3831
   33MOL   C52730671   2.108   1.713   7.839 -0.7809  0.4785  0.0076
   33MOL   C52830672   2.181   1.833   7.903 -0.3012 -0.1789  0.0127
   33MOL   C52930673   2.132   1.965   7.835 -0.6986 -0.3986  0.5218
   33MOL   O53030674   1.991   1.978   7.842  0.4208  0.4721  0.4521
   33MOL   C53130675   1.929   2.018   7.960 -0.2168 -0.0914  0.2140
   33MOL   O53230676   1.992   2.041   0.088  0.5255 -0.0233  0.1749
   33MOL   C53330677   1.779   2.032   7.958 -0.2125 -0.4678  0.5210
   33MOL   C53430678   1.714   2.057   7.834  0.2331  0.1068 -0.3855
   33MOL   C53530679   1.571   2.077   7.841  0.5019  0.2724 -0.2834
   33MOL   C53630680   1.503   2.061   7.966  0.7014  0.7383 -0.3746
   33MOL   C53730681   1.357   2.091   7.970  0.0597 -0.1237  0.3414
   33MOL   O53830682   1.287   2.115   7.867  0.6448 -0.4316 -0.4874
   33MOL   O53930683   1.309   2.082   0.119 -0.1637  0.1306  0.0155
   33MOL   C54030684   1.573   2.044   0.105 -0.6838  0.6443 -0.4541
   33MOL   C54130685   1.712   2.031   0.102 -0.4145  0.4893 -0.2098
   33MOL   H54230686   2.419   0.965   7.400 -2.5470 -0.2062  0.1346
   33MOL   H54330687   2.515   1.110   7.364 -0.8760  0.0984  1.4006
   33MOL   H54430688   2.220   1.103   7.333 -0.2099  1.9520 -2.5756
   33MOL   H54530689   2.321   1.232   7.283 -0.5750  0.0952  0.0342
   33MOL   H54630690   2.290   1.131   7.571 -0.9268  1.0416  0.6871
   33MOL   H54730691   2.411   1.240   7.522  1.0418  0.8580 -5.2318
   33MOL   H54830692   2.101   1.300   7.516 -0.4269 -1.2077  1.2529
   33MOL   H54930693   2.222   1.405   7.448  1.0097 -0.6971 -0.5354
   33MOL   H55030694   2.270   1.302   7.726 -0.7405 -0.0863  0.4757
   33MOL   H55130695   2.337   1.444   7.645 -0.7449  0.5624 -1.2380
   33MOL   H55230696   2.097   1.552   7.629  2.4553  1.3807  0.2655
   33MOL   H55330697   2.056   1.436   7.762  0.4117 -0.2253 -0.0601
   33MOL   H55430698   2.181   1.521   7.910 -0.7707  0.4251  0.4450
   33MOL   H55530699   2.292   1.602   7.802  0.1760 -2.5648 -0.9928
   33MOL   H55630700   2.071   1.743   7.741 -0.8329 -0.8399 -0.3972
   33MOL   H55730701   2.012   1.687   7.884 -0.6192 -0.0105  0.0805
   33MOL   H55830702   2.288   1.820   7.886  0.1062  0.1223  2.1362
   33MOL   H55930703   2.162   1.840   0.032 -0.7431  1.6562 -0.1545
   33MOL   H56030704   2.167   1.957   7.733  1.6653  1.1076  1.1822
   33MOL   H56130705   2.173   2.054   7.884 -1.9570  1.2876 -1.3806
   33MOL   H56230706   1.769   2.060   7.741  0.2912  0.6785 -0.3386
   33MOL   H56330707   1.511   2.096   7.753  0.1988  0.3028 -0.0724
   33MOL   H56430708   1.516   2.039   0.196  1.0506 -0.8277  0.5713
   33MOL   H56530709   1.760   1.998   0.193  0.0196 -2.1546 -1.3676
   33MOL   O56630710   1.166   2.116   0.128 -0.0883 -1.3044  0.2976
   33MOL   C56730711   1.145   2.225   0.221 -0.7469  0.0675  0.1128
   33MOL   C56830712   1.108   2.354   0.146  0.2809  0.3274 -0.1296
   33MOL   C56930713   1.217   2.440   0.078  0.0553  0.2868  0.3531
   33MOL   C57030714   1.159   2.557   7.971  0.6437 -0.6423  0.4525
   33MOL   C57130715   1.261   2.634   7.895  0.0382  0.4072 -0.0591
   33MOL   C57230716   1.352   2.714   0.014 -0.3209 -0.0546  0.4722
   33MOL   C57330717   1.451   2.803   7.924  0.2231 -0.4009  1.0054
   33MOL   C57430718   1.567   2.854   0.044  0.2466 -0.0586  0.1437
   33MOL   C57530719   1.656   2.949   7.941  0.2652 -0.4498  0.0981
   33MOL   C57630720   1.758   3.014   0.052 -1.0788  0.6387 -0.3824
   33MOL   O57730721   1.695   3.110   0.130  0.3719 -0.0692 -0.3012
   33MOL   C57830722   1.750   3.135   0.252  0.5719  0.0782 -0.0632
   33MOL   O57930723   1.866   3.120   0.276 -0.0725 -0.9026 -0.3700
   33MOL   C58030724   1.650   3.181   0.346 -0.2982  0.1365 -0.3883
   33MOL   C58130725   1.510   3.154   0.325  0.0921  0.0201 -0.3142
   33MOL   C58230726   1.421   3.189   0.423  0.7159  0.1186 -0.4449
   33MOL   C58330727   1.463   3.252   0.543  0.3220 -0.0312 -0.2925
   33MOL   C58430728   1.363   3.289   0.645 -0.4154  0.2269 -0.2234
   33MOL   O58530729   1.248   3.247   0.632 -0.5728  0.0130  0.0939
   33MOL   O58630730   1.397   3.374   0.741 -0.3935 -0.1155  0.0637
   33MOL   C58730731   1.602   3.276   0.569 -0.2043 -1.0471  0.2937
   33MOL   C58830732   1.694   3.243   0.466 -0.9478  0.7733  0.1153
   33MOL   H58930733   1.059   2.197   0.281 -1.1296  0.3865 -0.2816
   33MOL   H59030734   1.227   2.241   0.291 -2.1630 -1.4931  2.1919
   33MOL   H59130735   1.062   2.414   0.225  0.7930  1.2951 -0.5660
   33MOL   H59230736   1.036   2.319   0.072 -0.5013  0.7714  0.4168
   33MOL   H59330737   1.289   2.475   0.152 -0.1323  2.0057 -0.2700
   33MOL   H59430738   1.275   2.377   0.010 -3.0654 -3.1178  0.6807
   33MOL   H59530739   1.092   2.621   0.051 -0.9647 -1.4472 -0.4737
   33MOL   H59630740   1.095   2.516   7.893  1.5657 -1.0456 -0.0913
   33MOL   H59730741   1.313   2.564   7.830  0.3822  1.8830 -1.3982
   33MOL   H59830742   1.219   2.706   7.825 -0.5699 -0.6605 -0.8094
   33MOL   H59930743   1.290   2.766   0.087  1.4221 -0.3291  2.1661
   33MOL   H60030744   1.413   2.650   0.077 -1.4466 -0.0786  1.5675
   33MOL   H60130745   1.499   2.754   7.840 -2.2235 -2.0290  0.5056
   33MOL   H60230746   1.395   2.886   7.881  3.3777  2.0143  1.4667
   33MOL   H60330747   1.513   2.902   0.126  0.5238 -1.3288  1.0835
   33MOL   H60430748   1.633   2.772   0.071  1.0781 -0.1856 -2.1944
   33MOL   H60530749   1.600   3.018   7.878  2.2054  1.0600 -0.0135
   33MOL   H60630750   1.721   2.891   7.875 -1.6089 -0.2056 -2.0295
   33MOL   H60730751   1.829   3.062   7.962  2.3573 -2.5951  0.7337
   33MOL   H60830752   1.811   2.940   0.113 -0.4724  1.7414  0.4555
   33MOL   H60930753   1.469   3.095   0.244 -1.4853  1.9255 -0.9449
   33MOL   H61030754   1.317   3.163   0.410  0.6317  0.2886 -0.1209
   33MOL   H61130755   1.631   3.303   0.669  2.3918  0.4866 -0.8110
   33MOL   H61230756   1.800   3.250   0.489 -0.2889 -0.8047 -2.3127
   33MOL   O61330757   1.284   3.415   0.835 -0.2220  0.3278 -0.1959
   33MOL   C61430758   1.304   3.341   0.956  0.6728  0.5376  0.0445
   33MOL   C61530759   1.229   3.203   0.950  0.3629  0.4275  0.1993
   33MOL   C61630760   1.200   3.122   1.078 -0.0157  0.0933 -0.2965
   33MOL   C61730761   1.185   2.972   1.064  0.8150  0.4226 -0.2327
   33MOL   C61830762   1.072   2.925   0.957 -0.3154  0.3771 -0.3243
   33MOL   C61930763   1.094   2.783   0.905 -0.0576  0.5286 -0.1905
   33MOL   C62030764   1.006   2.759   0.779 -0.6649  0.3706  0.5663
   33MOL   C62130765   1.061   2.823   0.648 -0.7801  0.7385  0.3839
   33MOL   C62230766   1.202   2.780   0.609 -0.0487 -0.9468  0.0228
   33MOL   C62330767   1.240   2.839   0.475 -0.4992 -0.1929 -0.0975
   33MOL   O62430768   1.384   2.839   0.472 -0.3636 -0.1999  0.3897
   33MOL   C62530769   1.458   2.741   0.411 -0.0979 -0.1564  0.3915
   33MOL   O62630770   1.417   2.650   0.342 -0.8643 -1.0403 -0.1952
   33MOL   C62730771   1.600   2.760   0.456 -0.2470 -0.4656  0.3844
   33MOL   C62830772   1.701   2.669   0.413  0.0517 -0.5995  0.7860
   33MOL   C62930773   1.836   2.699   0.431  0.3486  0.5682  0.2925
   33MOL   C63030774   1.881   2.814   0.498 -0.1064 -0.0571 -0.1822
   33MOL   C63130775   2.022   2.853   0.523 -0.9468  0.9682 -0.6502
   33MOL   O63230776   2.057   2.957   0.572  0.0998 -0.0747 -0.0106
   33MOL   O63330777   2.105   2.759   0.484  0.1715 -0.0887  0.3123
   33MOL   C63430778   1.776   2.903   0.542 -0.1513  0.7818  0.3348
   33MOL   C63530779   1.645   2.869   0.533  0.1764  0.1648 -0.4872
   33MOL   H63630780   1.407   3.331   0.990  0.3061 -0.4331  0.9385
   33MOL   H63730781   1.254   3.399   1.034  1.0551  0.3279  0.4464
   33MOL   H63830782   1.303   3.146   0.892  0.2373 -0.3893  0.8291
   33MOL   H63930783   1.138   3.210   0.890  0.0703 -1.4728  0.3678
   33MOL   H64030784   1.287   3.139   1.140 -1.3916  0.3085  1.6111
   33MOL   H64130785   1.108   3.169   1.113  0.6895  0.2631  1.3637
   33MOL   H64230786   1.165   2.927   1.161  2.6807 -0.5234 -0.2675
   33MOL   H64330787   1.282   2.933   1.035 -0.0518 -0.7567 -1.6260
   33MOL   H64430788   0.971   2.916   0.999 -0.8445 -0.1629 -1.6908
   33MOL   H64530789   1.060   2.995   0.874 -2.0362 -2.9236 -2.9690
   33MOL   H64630790   1.198   2.757   0.887 -0.1720 -1.2074  1.5266
   33MOL   H64730791   1.065   2.713   0.983  0.6688 -0.7782 -1.0606
   33MOL   H64830792   1.007   2.651   0.763  1.9188  0.0784  2.2347
   33MOL   H64930793   0.901   2.768   0.806 -0.8325  1.5775 -0.4390
   33MOL   H65030794   0.992   2.798   0.567 -0.4772 -0.1299  0.3964
   33MOL   H65130795   1.042   2.930   0.662 -1.0866  0.6335  0.7836
   33MOL   H65230796   1.219   2.673   0.620 -1.7261 -1.1712  0.5722
   33MOL   H65330797   1.268   2.827   0.682 -1.5020 -0.0272  0.7734
   33MOL   H65430798   1.198   2.939   0.465 -0.1507  0.1439  1.5878
   33MOL   H65530799   1.206   2.775   0.394 -0.8174  2.5440 -2.2137
   33MOL   H65630800   1.673   2.587   0.350  1.6603  1.3061 -2.5321
   33MOL   H65730801   1.908   2.629   0.390  1.1100  1.0195  0.8513
   33MOL   H65830802   1.793   2.996   0.593  0.3525 -0.1672  1.9150
   33MOL   H65930803   1.577   2.945   0.568 -0.6785 -0.4243 -0.8509
   33MOL   O66030804   2.246   2.791   0.511 -0.0213  0.4690  0.4274
   33MOL   C66130805   2.288   2.710   0.619 -0.2471  0.4997  0.4671
   33MOL   C66230806   2.271   2.564   0.601  0.6110  0.0321  0.0954
   33MOL   C66330807   2.305   2.477   0.727 -0.0310  0.0753  0.1127
   33MOL   C66430808   2.306   2.322   0.703 -0.2987 -0.1424 -0.4800
   33MOL   C66530809   2.363   2.231   0.812  0.5838  0.3113  1.1409
   33MOL   C66630810   2.292   2.228   0.948 -0.1580 -0.4265  0.4340
   33MOL   C66730811   2.361   2.148   1.056  0.1368  0.2919 -0.8080
   33MOL   C66830812   2.277   2.111   1.182  0.6945  0.9148  0.7615
   33MOL   C66930813   2.352   2.017   1.282  0.6673 -0.3665 -0.5548
   33MOL   C67030814   2.286   1.995   1.417  0.0425  0.0280 -0.1367
   33MOL   O67130815   2.175   1.917   1.390  0.3265 -0.2855  0.1247
   33MOL   C67230816   2.085   1.902   1.492  0.8839  0.1291  0.1084
   33MOL   O67330817   2.103   1.943   1.608  0.4948 -0.1289 -0.1868
   33MOL   C67430818   1.959   1.829   1.454  0.3715  0.3954 -0.3933
   33MOL   C67530819   1.937   1.786   1.321 -0.3534 -0.6142 -0.0521
   33MOL   C67630820   1.809   1.740   1.275  0.1822 -0.0422 -0.1748
   33MOL   C67730821   1.704   1.721   1.365  0.4785 -0.0592  0.0037
   33MOL   C67830822   1.572   1.673   1.327  0.5861 -0.1168  0.2472
   33MOL   O67930823   1.484   1.657   1.414 -0.1155  0.4519 -0.3101
   33MOL   O68030824   1.560   1.654   1.196  0.0460 -0.6136  0.0473
   33MOL   C68130825   1.728   1.761   1.497 -0.8618  0.4630 -0.0242
   33MOL   C68230826   1.854   1.811   1.543  0.9363 -0.0847 -1.0270
   33MOL   H68330827   2.392   2.729   0.645 -0.8553  2.1149  1.7792
   33MOL   H68430828   2.235   2.745   0.707  0.0177  2.4563 -0.1189
   33MOL   H68530829   2.334   2.525   0.520  0.4618 -2.7139  1.2230
   33MOL   H68630830   2.167   2.560   0.570  1.7439  2.0997 -4.4068
   33MOL   H68730831   2.400   2.508   0.771 -0.8780  2.3688  0.4178
   33MOL   H68830832   2.236   2.511   0.805 -0.8557  0.3247 -0.7188
   33MOL   H68930833   2.363   2.295   0.614 -0.9147 -0.8989 -0.6497
   33MOL   H69030834   2.203   2.296   0.681 -1.2755  1.7910  1.6326
   33MOL   H69130835   2.359   2.128   0.778  0.0099  0.2489  1.3930
   33MOL   H69230836   2.467   2.259   0.830  0.7152  0.9124 -0.5107
   33MOL   H69330837   2.284   2.328   0.991  0.6762 -0.6531  1.1348
   33MOL   H69430838   2.199   2.173   0.935 -0.0959 -0.2740 -0.6555
   33MOL   H69530839   2.374   2.047   1.017  2.4761  0.0593  0.4355
   33MOL   H69630840   2.461   2.188   1.076  0.4012 -0.7188 -0.0725
   33MOL   H69730841   2.250   2.204   1.233  0.1043 -1.5785  5.2289
   33MOL   H69830842   2.182   2.074   1.145  1.2607  1.6563 -1.5264
   33MOL   H69930843   2.448   2.062   1.305  0.0327  1.2079 -0.9126
   33MOL   H70030844   2.374   1.918   1.242  0.4615 -0.8535  0.5382
   33MOL   H70130845   2.256   2.087   1.467 -0.0423  1.3423 -2.5252
   33MOL   H70230846   2.356   1.940   1.480  1.3877 -0.8635 -2.3282
   33MOL   H70330847   2.009   1.801   1.242 -1.0894 -1.7310 -0.9533
   33MOL   H70430848   1.802   1.707   1.172 -4.5850 -0.5285  0.2215
   33MOL   H70530849   1.641   1.777   1.559  1.0814  1.1212  2.6589
   33MOL   H70630850   1.854   1.852   1.642  0.0539 -2.1054 -0.1548
   33MOL   O70730851   1.429   1.594   1.163  0.0435 -0.0384 -0.0415
   33MOL   C70830852   1.336   1.689   1.109 -0.1770 -0.3318  0.1678
   33MOL   C70930853   1.206   1.628   1.058 -0.3051  0.6757  0.0470
   33MOL   C71030854   1.102   1.583   1.165 -0.4642 -0.2436 -0.3034
   33MOL   C71130855   1.000   1.483   1.117 -0.3185  0.2192  0.0645
   33MOL   C71230856   0.873   1.483   1.201  0.0640  0.8857 -0.1834
   33MOL   C71330857   0.780   1.369   1.146 -0.7744 -0.2499 -0.6781
   33MOL   C71430858   0.644   1.390   1.216  0.4533 -0.9478 -0.4822
   33MOL   C71530859   0.546   1.303   1.140 -0.2862  0.3664 -0.0746
   33MOL   C71630860   0.409   1.296   1.206  0.2844 -0.6753  0.2180
   33MOL   C71730861   0.312   1.205   1.123 -0.0400 -0.0326  0.7178
   33MOL   O71830862   0.182   1.210   1.178  0.0303  0.4784  0.3418
   33MOL   C71930863   0.078   1.233   1.096 -0.4572 -0.2168  0.6278
   33MOL   O72030864   0.093   1.242   0.974 -0.7605  0.1808  0.2786
   33MOL   C72130865   7.927   1.238   1.163  0.0295  0.0643 -0.1528
   33MOL   C72230866   7.903   1.195   1.296 -0.5045  0.2030 -0.1688
   33MOL   C72330867   7.777   1.199   1.361  0.6955 -0.2055  0.6483
   33MOL   C72430868   7.671   1.254   1.288 -0.4496 -0.6472 -0.0974
   33MOL   C72530869   7.544   1.282   1.355  0.4730 -0.5789 -0.2636
   33MOL   O72630870   7.450   1.336   1.306 -0.0514  0.2788  0.2550
   33MOL   O72730871   7.538   1.221   1.469 -0.6077  0.1053  0.1818
   33MOL   C72830872   7.688   1.291   1.160  0.0758  0.1978 -0.0256
   33MOL   C72930873   7.814   1.283   1.098 -0.3525 -0.3571  0.5186
   33MOL   H73030874   1.326   1.765   1.186 -0.1011  0.7098 -0.8410
   33MOL   H73130875   1.391   1.742   1.032  1.6683  0.0671  1.7144
   33MOL   H73230876   1.220   1.551   0.983  0.6373 -0.4926  1.4048
   33MOL   H73330877   1.156   1.708   1.003 -2.3292  1.0042  2.2658
   33MOL   H73430878   1.150   1.540   1.253  0.2433 -0.2346 -0.6869
   33MOL   H73530879   1.057   1.677   1.198 -1.7002 -1.9116  2.9891
   33MOL   H73630880   1.051   1.388   1.127  1.5399  1.1739 -0.2018
   33MOL   H73730881   0.963   1.482   1.015 -2.0979 -0.7486  0.6765
   33MOL   H73830882   0.896   1.462   1.306 -1.5746  1.4393  0.3040
   33MOL   H73930883   0.812   1.569   1.176  0.5418  1.0279 -0.8662
   33MOL   H74030884   0.767   1.389   1.040 -0.0092  0.3017 -0.6724
   33MOL   H74130885   0.809   1.269   1.177 -1.1691 -0.1285  0.1088
   33MOL   H74230886   0.656   1.349   1.317 -1.2082 -0.1719  0.0502
   33MOL   H74330887   0.609   1.493   1.218  1.2409 -0.6514 -1.3788
   33MOL   H74430888   0.539   1.330   1.035  3.5405  0.7162 -0.3009
   33MOL   H74530889   0.575   1.199   1.129 -3.0866 -0.3055 -1.4953
   33MOL   H74630890   0.363   1.394   1.210  2.4735  0.4302 -0.7962
   33MOL   H74730891   0.408   1.259   1.308 -0.0848 -0.7373  0.1918
   33MOL   H74830892   0.340   1.100   1.128 -0.6657 -0.1573  1.7222
   33MOL   H74930893   0.307   1.231   1.017  3.8389  0.6400  0.6144
   33MOL   H75030894   0.013   1.164   1.350  0.2838  1.9599 -0.4230
   33MOL   H75130895   7.773   1.179   1.468  2.1834 -1.2842  0.5150
   33MOL   H75230896   7.618   1.353   1.105 -2.5367 -0.2777  2.6567
   33MOL   H75330897   7.818   1.325   0.999  0.0143 -2.1453 -0.2580
   33MOL   O75430898   7.397   1.222   1.525  0.4366 -0.3601  0.1284
   33MOL   C75530899   7.399   1.316   1.631  0.1074  0.0570 -0.0117
   33MOL   C75630900   7.442   1.238   1.754  0.2546 -0.3890  0.1830
   33MOL   C75730901   7.357   1.122   1.796  0.6943 -0.8713 -0.5986
   33MOL   C75830902   7.413   1.069   1.932  0.2664 -0.3512  0.7246
   33MOL   C75930903   7.343   0.941   1.973  0.2656 -0.0488  0.0125
   33MOL   C76030904   7.216   0.957   2.051 -0.6610 -0.2932  0.5154
   33MOL   C76130905   7.143   0.829   2.090 -0.3821  0.5485 -0.0524
   33MOL   C76230906   7.013   0.839   2.163 -0.6886  0.6492  0.7884
   33MOL   C76330907   6.939   0.709   2.157  0.5662  0.1885 -0.2295
   33MOL   C76430908   6.798   0.720   2.217  0.3024 -0.2823  0.0820
   33MOL   O76530909   6.713   0.798   2.130  0.4267 -0.1421  0.5224
   33MOL   C76630910   6.643   0.741   2.034  0.3461 -0.2667  0.4248
   33MOL   O76730911   6.655   0.624   1.996  0.5754  0.7295 -0.2086
   33MOL   C76830912   6.544   0.832   1.973 -0.0335  0.0271  0.0007
   33MOL   C76930913   6.481   0.793   1.849  0.2968 -0.1621 -0.4295
   33MOL   C77030914   6.387   0.876   1.782 -0.2164 -0.1281  0.1307
   33MOL   C77130915   6.350   1.000   1.830 -0.4040  0.5702 -0.2054
   33MOL   C77230916   6.267   1.090   1.751  0.2161  0.0375 -0.8433
   33MOL   O77330917   6.261   1.078   1.626  0.1688  0.3149  0.2546
   33MOL   O77430918   6.236   1.200   1.813  0.1209  0.0415 -0.1475
   33MOL   C77530919   6.417   1.046   1.947 -0.8153  0.3944 -0.1770
   33MOL   C77630920   6.507   0.962   2.022 -0.0418 -0.5138 -0.1714
   33MOL   H77730921   7.473   1.395   1.621  1.0579 -0.6462  1.3417
   33MOL   H77830922   7.304   1.366   1.652  0.7913  0.2276  2.8533
   33MOL   H77930923   7.452   1.306   1.839 -0.9462 -1.3955  1.1513
   33MOL   H78030924   7.539   1.194   1.733 -0.2235 -1.4013  0.0963
   33MOL   H78130925   7.254   1.155   1.799  0.9089 -0.3456  2.2980
   33MOL   H78230926   7.361   1.039   1.726 -0.1559 -1.4423  0.0192
   33MOL   H78330927   7.389   1.144   2.007  0.9097 -1.6813  2.2897
   33MOL   H78430928   7.520   1.054   1.923  0.7910  2.9806  1.0967
   33MOL   H78530929   7.336   0.871   1.890 -2.9295 -0.8010  0.8299
   33MOL   H78630930   7.410   0.917   2.055  2.7688  0.9455 -1.6678
   33MOL   H78730931   7.242   1.016   2.138 -0.3106 -0.5223  0.5642
   33MOL   H78830932   7.149   1.024   1.995 -0.3668 -0.0953  0.3999
   33MOL   H78930933   7.119   0.779   1.996  1.2755 -1.0120  0.3161
   33MOL   H79030934   7.199   0.752   2.144 -0.7451  1.1413  1.1812
   33MOL   H79130935   7.033   0.862   2.267 -0.4375 -0.2800  0.9507
   33MOL   H79230936   6.945   0.915   2.122 -4.4003 -2.3979  0.9975
   33MOL   H79330937   6.985   0.623   2.206 -0.1649  1.4922  2.8689
   33MOL   H79430938   6.925   0.672   2.056  0.3011  1.4596 -0.6683
   33MOL   H79530939   6.789   0.777   2.309 -1.2322  1.8450 -1.3306
   33MOL   H79630940   6.752   0.625   2.245  0.6146 -0.9743 -1.6719
   33MOL   H79730941   6.504   0.702   1.796 -0.2114 -2.4136  3.0189
   33MOL   H79830942   6.346   0.836   1.690  2.7857 -1.4893 -0.7026
   33MOL   H79930943   6.395   1.146   1.982 -0.0288  0.8069 -0.8547
   33MOL   H80030944   6.549   1.004   2.112  1.7910 -2.2548 -0.1830
   33MOL   O80130945   6.142   1.288   1.741 -0.0778 -0.0465 -0.2054
   33MOL   C80230946   6.222   1.398   1.704 -0.2133 -0.1668  0.1428
   33MOL   C80330947   6.156   1.500   1.622  0.5965  0.3238 -0.2772
   33MOL   C80430948   6.045   1.582   1.702  0.6699  0.1613  0.4812
   33MOL   C80530949   5.941   1.657   1.618  0.0238  0.4988  0.1407
   33MOL   C80630950   5.827   1.717   1.704 -0.5138 -0.3986 -0.6698
   33MOL   C80730951   5.871   1.852   1.764  0.3627 -0.4554 -0.7427
   33MOL   C80830952   5.758   1.928   1.828 -0.4592  0.4570  0.3423
   33MOL   C80930953   5.801   2.061   1.891 -0.1188 -0.6621  0.2181
   33MOL   C81030954   5.691   2.138   1.960 -0.5351 -0.3874 -0.1402
   33MOL   C81130955   5.752   2.265   2.036  0.0703  0.1678 -0.0639
   33MOL   O81230956   5.826   2.221   2.142 -0.5083 -0.0917 -0.1648
   33MOL   C81330957   5.779   2.238   2.269 -0.1706  0.2323 -0.2297
   33MOL   O81430958   5.688   2.317   2.302  0.4334 -0.1869 -0.2473
   33MOL   C81530959   5.838   2.149   2.372  0.4966 -0.7159 -0.8960
   33MOL   C81630960   5.771   2.124   2.498  0.2665  0.5241 -0.8462
   33MOL   C81730961   5.819   2.032   2.591 -0.9777  0.4306 -0.2275
   33MOL   C81830962   5.949   1.971   2.569 -0.0044  0.2098  0.7082
   33MOL   C81930963   6.009   1.870   2.670 -0.3291 -0.4818  0.4851
   33MOL   O82030964   6.125   1.832   2.662  0.2654 -0.3760  0.3694
   33MOL   O82130965   5.925   1.835   2.774  0.3960 -0.1986 -0.6960
   33MOL   C82230966   6.028   2.004   2.454 -0.0907 -0.7881  0.0368
   33MOL   C82330967   5.964   2.085   2.354  0.4632  0.6788  0.2062
   33MOL   H82430968   6.262   1.446   1.793 -0.1547 -0.2012  0.1351
   33MOL   H82530969   6.307   1.355   1.651  0.5743  2.4876 -0.8358
   33MOL   H82630970   6.124   1.462   1.525 -1.4503  1.9675 -0.2862
   33MOL   H82730971   6.237   1.571   1.603 -0.0359  1.4510  1.1294
   33MOL   H82830972   5.995   1.518   1.776 -0.1626 -0.4109 -0.5587
   33MOL   H82930973   6.096   1.657   1.763  0.0716  0.8253  0.1725
   33MOL   H83030974   5.880   1.598   1.550 -0.5485  1.4584 -0.1933
   33MOL   H83130975   5.990   1.728   1.550  0.3346 -1.1105 -1.3547
   33MOL   H83230976   5.737   1.737   1.646 -1.9432 -0.8434  1.3399
   33MOL   H83330977   5.792   1.649   1.782 -2.1011 -1.7351 -2.4986
   33MOL   H83430978   5.953   1.840   1.834 -0.9685  1.0812  1.1381
   33MOL   H83530979   5.919   1.914   1.689  0.5941  1.0507  0.6402
   33MOL   H83630980   5.688   1.941   1.745  1.6932 -0.7750 -1.7031
   33MOL   H83730981   5.702   1.873   1.904  1.2633  0.3291  1.5244
   33MOL   H83830982   5.874   2.037   1.969 -2.0093  0.2688  2.3067
   33MOL   H83930983   5.852   2.126   1.819 -0.6274  1.5048  1.7545
   33MOL   H84030984   5.650   2.074   2.037  1.0657 -0.1574  0.9314
   33MOL   H84130985   5.621   2.164   1.881  0.4765 -0.2293 -0.9953
   33MOL   H84230986   5.669   2.330   2.062  1.0815  1.9257 -1.1542
   33MOL   H84330987   5.818   2.327   1.976  0.4354  0.4699  0.6469
   33MOL   H84430988   5.679   2.176   2.517  0.2439  0.0110  0.4547
   33MOL   H84530989   5.769   2.017   2.685  0.7161 -0.7577  0.4914
   33MOL   H84630990   6.124   1.964   2.425 -0.3079 -1.3108  0.0473
   33MOL   H84730991   6.015   2.109   2.262 -2.2949 -0.5860 -1.6948
   33MOL   O84830992   5.997   1.753   2.870 -0.1440  0.0309 -0.3122
   33MOL   C84930993   5.967   1.611   2.844  0.6910  0.8579  0.4915
   33MOL   C85030994   5.827   1.589   2.884 -0.4124 -0.0552 -0.0578
   33MOL   C85130995   5.787   1.444   2.905 -0.6634 -0.1352 -0.4378
   33MOL   C85230996   5.636   1.433   2.944 -0.4212  0.4350 -0.7322
   33MOL   C85330997   5.602   1.285   2.981  0.3118 -0.0017  0.0276
   33MOL   C85430998   5.474   1.271   3.063  0.1767  0.0608  0.1559
   33MOL   C85530999   5.503   1.232   3.210 -0.8098 -0.4544 -0.2540
   33MOL   C85631000   5.580   1.337   3.291 -0.4837 -0.5024 -1.0062
   33MOL   C85731001   5.615   1.308   3.437  0.2476 -0.5082 -0.1347
   33MOL   C85831002   5.677   1.428   3.509  0.2360  0.0148  0.0114
   33MOL   O85931003   5.789   1.467   3.430  0.9301  0.1038  0.0602
   33MOL   C86031004   5.861   1.574   3.463 -0.1877  0.1396 -0.0480
   33MOL   O86131005   5.852   1.641   3.568 -0.7702  0.1460  0.1729
   33MOL   C86231006   5.961   1.609   3.361  0.2568  0.2166  0.3839
   33MOL   C86331007   5.998   1.527   3.256  0.2553 -0.5565 -0.8183
   33MOL   C86431008   6.101   1.571   3.170  0.3201  0.3365  0.2152
   33MOL   C86531009   6.182   1.680   3.188 -0.0844 -0.0328 -0.3744
   33MOL   C86631010   6.304   1.715   3.101 -0.2744 -0.3407 -0.1497
   33MOL   O86731011   6.374   1.818   3.118 -0.3731  0.2824  0.4349
   33MOL   O86831012   6.314   1.632   2.998  0.0043 -0.2884  0.3279
   33MOL   C86931013   6.144   1.760   3.299  1.0948  0.5607 -0.3535
   33MOL   C87031014   6.031   1.730   3.385  0.1796 -0.4574  0.0549
   33MOL   H87131015   5.970   1.586   2.738 -1.6684 -1.1846  0.8591
   33MOL   H87231016   6.043   1.554   2.898  2.5650  2.0639 -0.8086
   33MOL   H87331017   5.755   1.632   2.815 -2.8273  0.3265  2.6149
   33MOL   H87431018   5.816   1.645   2.977 -1.4582  0.8119 -0.6892
   33MOL   H87531019   5.810   1.388   2.815 -1.6009  0.4634 -1.0544
   33MOL   H87631020   5.852   1.398   2.980 -0.2741  0.0138 -0.6815
   33MOL   H87731021   5.571   1.457   2.860  0.0562 -0.5553 -1.3980
   33MOL   H87831022   5.617   1.499   3.029  1.4432 -3.5065  2.9046
   33MOL   H87931023   5.582   1.227   2.892  2.6005 -1.1621  0.2252
   33MOL   H88031024   5.683   1.225   3.022 -0.0843 -0.0798  0.7126
   33MOL   H88131025   5.417   1.364   3.063  1.6120  0.9519  1.5013
   33MOL   H88231026   5.405   1.202   3.014 -0.1801  0.1344  0.5615
   33MOL   H88331027   5.400   1.222   3.245 -0.9748 -1.9651 -1.0985
   33MOL   H88431028   5.548   1.135   3.233  1.1264  0.9966  2.3506
   33MOL   H88531029   5.679   1.341   3.245 -1.0837  2.7418 -2.1985
   33MOL   H88631030   5.528   1.433   3.286  0.0583 -0.2320 -1.5336
   33MOL   H88731031   5.674   1.217   3.450  0.3306 -0.4077  0.1984
   33MOL   H88831032   5.519   1.286   3.484  0.0340 -0.4670 -0.5503
   33MOL   H88931033   5.704   1.411   3.613 -1.0391 -0.7323  0.2282
   33MOL   H89031034   5.606   1.511   3.516  1.4893  1.0794  0.4839
   33MOL   H89131035   5.948   1.435   3.231  0.3467 -0.6177 -0.7731
   33MOL   H89231036   6.118   1.505   3.085 -0.2697  0.0996  0.2796
   33MOL   H89331037   6.187   1.856   3.324  1.0659  0.7358 -0.9814
   33MOL   H89431038   6.001   1.801   3.460 -1.2979 -1.0453  0.0431
   33MOL   O89531039   6.430   1.655   2.911  0.6058 -0.5494  0.6454
   33MOL   C89631040   6.371   1.686   2.783 -0.0655  0.0585 -0.0456
   33MOL   C89731041   6.486   1.697   2.676 -0.0330  0.5131  0.3635
   33MOL   C89831042   6.428   1.708   2.532  0.1811 -0.8935  0.8703
   33MOL   C89931043   6.527   1.747   2.421 -0.4602  0.3307 -0.1182
   33MOL   C90031044   6.622   1.633   2.393 -0.0747  0.7168 -0.9978
   33MOL   C90131045   6.738   1.668   2.292  0.8381  0.0912  0.3378
   33MOL   C90231046   6.809   1.552   2.230 -0.1463  0.3612 -0.7704
   33MOL   C90331047   6.882   1.450   2.310  0.0294 -0.7657  0.6023
   33MOL   C90431048   6.954   1.354   2.219  0.5990 -0.2763 -0.6803
   33MOL   C90531049   7.051   1.263   2.293 -0.0639 -0.2747  0.5609
   33MOL   O90631050   7.167   1.323   2.347  0.3305 -0.2114 -0.2310
   33MOL   C90731051   7.256   1.245   2.414  0.5478 -0.2075  0.2846
   33MOL   O90831052   7.251   1.119   2.413  0.3557  0.4971  0.2757
   33MOL   C90931053   7.357   1.322   2.488  0.3945  0.0003  0.0458
   33MOL   C91031054   7.466   1.261   2.555  0.1080  0.3080  0.1569
   33MOL   C91131055   7.550   1.340   2.635 -0.0085 -0.3157  0.0998
   33MOL   C91231056   7.525   1.478   2.658  0.0942  0.1869  0.0295
   33MOL   C91331057   7.612   1.553   2.747 -0.4153 -0.5711 -0.1118
   33MOL   O91431058   7.604   1.677   2.754 -0.1954 -0.2182  0.2186
   33MOL   O91531059   7.699   1.488   2.826 -0.1935  0.3059 -0.2361
   33MOL   C91631060   7.409   1.542   2.593 -0.0230  0.0575  0.7366
   33MOL   C91731061   7.331   1.462   2.502 -0.0381  0.1840 -0.1677
   33MOL   H91831062   6.295   1.613   2.756  1.0540 -0.1209 -2.9182
   33MOL   H91931063   6.321   1.783   2.788  2.3089  1.2297  2.1493
   33MOL   H92031064   6.543   1.604   2.669  1.3297  1.3440  0.2061
   33MOL   H92131065   6.560   1.770   2.707  0.5784 -0.0577  0.2600
   33MOL   H92231066   6.367   1.621   2.508 -1.8245  0.1908  1.8953
   33MOL   H92331067   6.339   1.770   2.527 -0.3212 -1.7505 -1.7912
   33MOL   H92431068   6.593   1.831   2.439  0.6897 -0.8186  1.1355
   33MOL   H92531069   6.466   1.762   2.332 -1.5928  3.3139  1.1388
   33MOL   H92631070   6.666   1.602   2.488 -0.2116 -0.4547 -1.3099
   33MOL   H92731071   6.564   1.546   2.362  1.2328 -2.0251  3.7027
   33MOL   H92831072   6.696   1.722   2.207 -0.3224 -0.9224  0.2655
   33MOL   H92931073   6.808   1.739   2.337  1.4265  0.2880 -0.8411
   33MOL   H93031074   6.757   1.506   2.146 -1.2489 -1.6641  0.9839
   33MOL   H93131075   6.887   1.603   2.173  0.2708 -0.6426 -1.0895
   33MOL   H93231076   6.956   1.487   2.381 -0.2140 -0.5683  0.7545
   33MOL   H93331077   6.806   1.392   2.362 -1.5507  1.1349  0.4612
   33MOL   H93431078   7.018   1.412   2.153 -0.4966  4.0633  1.8888
   33MOL   H93531079   6.894   1.296   2.150 -0.5473 -0.2443  0.2821
   33MOL   H93631080   7.070   1.181   2.224 -0.0942 -0.4921  0.8113
   33MOL   H93731081   6.996   1.208   2.368  0.3637  0.9249  1.7854
   33MOL   H93831082   7.476   1.155   2.534 -0.7367  0.6142 -1.9583
   33MOL   H93931083   7.642   1.299   2.673  1.2457  2.9687  0.8186
   33MOL   H94031084   7.386   1.644   2.618 -0.0229  0.5162 -1.0641
   33MOL   H94131085   7.250   1.515   2.456 -1.5846 -2.0103 -0.0265
   33MOL   H94231086   7.743   1.542   2.890  0.4137  1.2701 -1.4555
   34MOL     O131087   6.420   5.516   6.659 -0.1778  0.1531  0.2371
   34MOL     C231088   6.315   5.442   6.602  0.1034 -0.0974 -0.1256
   34MOL     C331089   6.354   5.295   6.613 -0.2466 -0.1056  0.3299
   34MOL     C431090   6.251   5.207   6.529  0.5397  0.2115 -0.9911
   34MOL     C531091   6.267   5.058   6.555  0.0073  0.0526 -0.4408
   34MOL     C631092   6.183   4.963   6.471  0.8696 -0.0916  0.2700
   34MOL     C731093   6.184   4.815   6.523 -0.1204 -0.3679 -0.1591
   34MOL     C831094   6.139   4.713   6.421  0.6228  0.0544  0.6788
   34MOL     C931095   6.161   4.571   6.480 -0.5066  0.2568 -0.7232
   34MOL    C1031096   6.101   4.458   6.398  0.3788 -0.8502  0.9550
   34MOL    C1131097   6.118   4.314   6.458  0.5827  0.1332 -0.1270
   34MOL    O1231098   6.086   4.206   6.371  0.1603  0.5103  0.3223
   34MOL    C1331099   6.166   4.170   6.263  0.4876  0.0819  0.2840
   34MOL    O1431100   6.259   4.239   6.228 -0.3428 -0.6369  0.0960
   34MOL    C1531101   6.130   4.053   6.180  0.6381 -0.0388  0.6440
   34MOL    C1631102   6.004   3.994   6.202  0.1037  0.6660  0.9387
   34MOL    C1731103   5.964   3.884   6.120  0.2477 -0.2338  0.0654
   34MOL    C1831104   6.062   3.827   6.033 -0.8209 -0.1624 -0.0849
   34MOL    C1931105   6.027   3.705   5.962  0.0495  0.0759  0.1199
   34MOL    O2031106   6.111   3.640   5.898 -0.4131  0.4469  0.2422
   34MOL    O2131107   5.895   3.667   5.963 -0.2327 -0.9886 -0.1334
   34MOL    C2231108   6.181   3.899   6.005 -0.1460 -0.3923  0.2805
   34MOL    C2331109   6.215   4.011   6.079  1.2189 -0.3781  0.1244
   34MOL    H2431110   6.219   5.458   6.652 -0.8092  1.2832 -2.2429
   34MOL    H2531111   6.290   5.476   6.502 -0.3087 -2.3288 -0.8229
   34MOL    H2631112   6.337   5.271   6.718 -1.9694  0.8884  0.2830
   34MOL    H2731113   6.458   5.275   6.584 -0.2462 -2.9532  2.0459
   34MOL    H2831114   6.152   5.233   6.567  0.1841 -1.3875 -0.7908
   34MOL    H2931115   6.265   5.229   6.423  5.7839 -0.2665 -0.4996
   34MOL    H3031116   6.268   5.038   6.662 -0.7128  2.0405 -0.0405
   34MOL    H3131117   6.374   5.038   6.546 -0.0311 -0.6543  0.5509
   34MOL    H3231118   6.075   4.978   6.469  1.0302  1.8540  2.8741
   34MOL    H3331119   6.216   4.984   6.369  1.3619  0.8977  0.6228
   34MOL    H3431120   6.291   4.806   6.543 -0.0269  2.4458  0.7450
   34MOL    H3531121   6.135   4.804   6.620 -1.1061  1.2927 -0.4458
   34MOL    H3631122   6.033   4.730   6.402  0.7089 -0.8634 -0.7385
   34MOL    H3731123   6.183   4.722   6.321  1.0423 -0.4021  0.8173
   34MOL    H3831124   6.265   4.545   6.503 -0.3277  1.0591 -0.6169
   34MOL    H3931125   6.132   4.554   6.584  1.3894 -1.9906 -0.5027
   34MOL    H4031126   6.161   4.464   6.307  1.2532  0.4253  1.5943
   34MOL    H4131127   5.999   4.485   6.371 -0.1833 -2.2903  1.6056
   34MOL    H4231128   6.054   4.306   6.546 -0.9204  2.7572 -0.9287
   34MOL    H4331129   6.218   4.309   6.501  0.3016 -0.1208  0.5077
   34MOL    H4431130   5.941   4.039   6.278  0.7669  3.6509 -0.1927
   34MOL    H4531131   5.861   3.852   6.113 -0.0693  0.8468 -0.3412
   34MOL    H4631132   6.231   3.886   5.911 -1.4078 -2.3933 -0.1394
   34MOL    H4731133   6.313   4.056   6.078  1.3663 -0.6355  1.8278
   34MOL    H4831134   6.427   5.607   6.635 -1.9083 -0.3874 -2.5945
   34MOL    O4931135   5.863   3.546   5.887 -0.7281 -0.1343  0.0115
   34MOL    C5031136   5.867   3.442   5.985 -0.3689 -0.1268  0.8722
   34MOL    C5131137   5.832   3.311   5.921  0.6716  0.5703 -0.8763
   34MOL    C5231138   5.694   3.306   5.853 -0.3022 -0.5805  0.3454
   34MOL    C5331139   5.670   3.185   5.770 -0.3459  0.0182  0.4644
   34MOL    C5431140   5.531   3.187   5.712  0.6281 -0.0309  0.6302
   34MOL    C5531141   5.484   3.070   5.637 -0.6786 -0.2505  0.4369
   34MOL    C5631142   5.329   3.074   5.627  0.0011 -0.8013  0.5161
   34MOL    C5731143   5.277   2.989   5.517 -0.2210  0.1799  0.4536
   34MOL    C5831144   5.125   3.006   5.491  0.1725  0.0091 -0.3416
   34MOL    C5931145   5.073   2.939   5.359  0.4791  0.1960  0.7472
   34MOL    O6031146   5.116   2.804   5.352 -0.0508 -0.4316 -0.4962
   34MOL    C6131147   5.138   2.737   5.239  0.5288 -0.1217 -0.2409
   34MOL    O6231148   5.123   2.785   5.125 -0.2169  0.1138  0.0307
   34MOL    C6331149   5.169   2.593   5.275  0.3357 -0.3108  0.5897
   34MOL    C6431150   5.186   2.541   5.401 -0.0265 -0.1374 -0.5665
   34MOL    C6531151   5.194   2.403   5.422  0.1181 -0.4571 -0.5083
   34MOL    C6631152   5.202   2.316   5.307 -0.0479 -1.0100 -0.2798
   34MOL    C6731153   5.215   2.173   5.336 -0.2210  0.2919  0.3792
   34MOL    O6831154   5.208   2.136   5.455  0.0906 -0.5903 -0.5781
   34MOL    O6931155   5.231   2.095   5.236  0.3994  0.8141  0.4797
   34MOL    C7031156   5.200   2.370   5.179 -0.2860  0.0809 -0.0941
   34MOL    C7131157   5.169   2.510   5.159  0.1730  0.7187  0.2735
   34MOL    H7231158   5.970   3.445   6.020 -0.1045  1.0374  0.0288
   34MOL    H7331159   5.805   3.459   6.073 -1.9952 -2.8828  0.3296
   34MOL    H7431160   5.827   3.232   5.996 -0.1286  1.2036 -0.2466
   34MOL    H7531161   5.904   3.277   5.847  1.0451 -0.7141  0.0514
   34MOL    H7631162   5.620   3.328   5.929  1.2989  1.1313  1.4669
   34MOL    H7731163   5.676   3.394   5.790 -0.5947  0.3416  1.7023
   34MOL    H7831164   5.682   3.090   5.821 -1.0159 -0.0299  0.5366
   34MOL    H7931165   5.745   3.180   5.690 -1.8758 -1.4827 -0.9033
   34MOL    H8031166   5.463   3.209   5.794 -1.4577 -1.5812 -0.6474
   34MOL    H8131167   5.522   3.278   5.653  1.5893  0.5905  1.4255
   34MOL    H8231168   5.518   3.068   5.533 -1.0681 -2.6006  0.3106
   34MOL    H8331169   5.509   2.976   5.687 -0.1845  0.2046  1.0392
   34MOL    H8431170   5.284   3.046   5.723  1.0809 -0.0326  1.2623
   34MOL    H8531171   5.302   3.178   5.610  0.6633 -0.3448  2.1266
   34MOL    H8631172   5.326   3.005   5.421 -1.1073 -1.8279 -0.3711
   34MOL    H8731173   5.309   2.887   5.539 -1.0798 -0.1583  0.1848
   34MOL    H8831174   5.099   3.112   5.494 -0.3136 -0.0796 -1.4283
   34MOL    H8931175   5.068   2.970   5.577  0.2258  0.6466 -0.0327
   34MOL    H9031176   5.109   2.993   5.271 -1.1531 -0.2750 -0.2082
   34MOL    H9131177   4.965   2.934   5.355  0.5826 -0.7385 -1.1683
   34MOL    H9231178   5.181   2.608   5.486 -2.4928 -0.6179 -0.3171
   34MOL    H9331179   5.194   2.364   5.523  1.2216 -2.0952 -1.1234
   34MOL    H9431180   5.202   2.321   5.083 -0.3577  0.1303 -0.1204
   34MOL    H9531181   5.160   2.552   5.059  0.2572 -2.1712 -0.9968
   34MOL    O9631182   5.225   1.952   5.284  0.2257 -1.0347 -0.2458
   34MOL    C9731183   5.088   1.911   5.272 -0.4478 -0.4646  0.0637
   34MOL    C9831184   5.080   1.761   5.309  0.1025 -0.7723 -0.2834
   34MOL    C9931185   4.932   1.713   5.327  0.0630 -0.0610 -0.1131
   34MOL   C10031186   4.858   1.771   5.449  0.4233  0.2610 -0.0185
   34MOL   C10131187   4.733   1.697   5.492 -0.0093 -0.0599 -0.7739
   34MOL   C10231188   4.677   1.759   5.616  0.1645  0.0739  0.1868
   34MOL   C10331189   4.580   1.664   5.687  0.5714 -0.4514  0.4223
   34MOL   C10431190   4.480   1.730   5.789 -0.5299 -0.2294  0.1526
   34MOL   C10531191   4.367   1.640   5.847 -0.7138  0.0308 -0.0121
   34MOL   C10631192   4.274   1.702   5.957  0.1084 -0.4288  0.0730
   34MOL   O10731193   4.217   1.593   6.022  0.0888  0.1141  0.2600
   34MOL   C10831194   4.141   1.597   6.142 -0.4462 -0.3263  0.6522
   34MOL   O10931195   4.102   1.697   6.194  0.5040  0.5778  0.2732
   34MOL   C11031196   4.086   1.461   6.170  0.5592 -0.1221  0.9378
   34MOL   C11131197   4.005   1.435   6.282 -0.8847 -0.0847 -0.5113
   34MOL   C11231198   3.950   1.311   6.300 -0.6518 -0.1397  0.2830
   34MOL   C11331199   3.972   1.199   6.215 -0.0583  0.2384  0.1527
   34MOL   C11431200   3.908   1.060   6.227 -0.9226 -0.4574 -0.7119
   34MOL   O11531201   3.911   0.980   6.133  0.1423  0.0392 -0.2588
   34MOL   O11631202   3.849   1.043   6.344  0.1887 -0.0342  0.0930
   34MOL   C11731203   4.055   1.228   6.108  0.5058  0.4810 -0.2390
   34MOL   C11831204   4.102   1.352   6.077 -0.4759  0.5503 -0.5959
   34MOL   H11931205   5.025   1.967   5.340  0.6474  0.3897  0.3732
   34MOL   H12031206   5.053   1.918   5.169 -1.3189 -1.2548  0.2923
   34MOL   H12131207   5.127   1.729   5.402 -1.4440 -0.5820  0.5833
   34MOL   H12231208   5.121   1.697   5.231  0.3407 -1.2837  0.2594
   34MOL   H12331209   4.875   1.724   5.235 -0.9144  0.9853  0.6046
   34MOL   H12431210   4.937   1.605   5.339  0.7522  0.0115  0.2654
   34MOL   H12531211   4.828   1.875   5.439 -3.8241 -0.8102  0.5224
   34MOL   H12631212   4.934   1.774   5.527 -0.5956 -0.6567  1.0241
   34MOL   H12731213   4.652   1.698   5.419 -2.2423  0.6856  1.6292
   34MOL   H12831214   4.765   1.594   5.505  1.4187  0.5718  1.0548
   34MOL   H12931215   4.763   1.776   5.680 -1.5200  1.2830  2.2218
   34MOL   H13031216   4.628   1.856   5.602  1.3289  0.6236 -0.0788
   34MOL   H13131217   4.512   1.623   5.612 -0.1013  0.2324  0.6515
   34MOL   H13231218   4.628   1.573   5.725  0.8916  0.1036  1.3609
   34MOL   H13331219   4.539   1.771   5.872 -0.4959 -0.1503  0.0888
   34MOL   H13431220   4.430   1.817   5.747  0.0018  0.1707  0.3424
   34MOL   H13531221   4.412   1.547   5.883 -0.5682 -0.7407 -2.1363
   34MOL   H13631222   4.306   1.615   5.760  0.4586  1.6441 -1.3182
   34MOL   H13731223   4.192   1.759   5.913  1.8044  0.9698 -1.3547
   34MOL   H13831224   4.339   1.764   6.019 -0.6023 -0.2922  0.6821
   34MOL   H13931225   3.990   1.512   6.356 -1.0767 -0.3949 -0.2249
   34MOL   H14031226   3.885   1.312   6.386 -0.6572  0.9855  0.2785
   34MOL   H14131227   4.091   1.158   6.034 -1.2629 -1.4985  0.7316
   34MOL   H14231228   4.176   1.362   5.999 -0.0779 -0.3337 -0.3383
   34MOL   O14331229   3.797   0.902   6.365  0.0636 -0.6013  0.0733
   34MOL   C14431230   3.665   0.889   6.332 -0.2396 -0.7059  0.2536
   34MOL   C14531231   3.625   0.750   6.348 -0.0151 -0.1769 -0.2191
   34MOL   C14631232   3.504   0.712   6.256  0.4521 -0.2580  0.5416
   34MOL   C14731233   3.462   0.568   6.266 -0.2426 -0.1057 -0.0660
   34MOL   C14831234   3.390   0.531   6.392  1.1080  0.3949 -0.2838
   34MOL   C14931235   3.339   0.390   6.403 -0.3769 -0.2925  0.9588
   34MOL   C15031236   3.199   0.348   6.347  0.1200  0.2770 -0.4335
   34MOL   C15131237   3.075   0.438   6.381  0.1737 -0.5478  0.3026
   34MOL   C15231238   3.050   0.453   6.531  0.7998  0.3276  0.1049
   34MOL   C15331239   2.969   0.578   6.558  0.2385 -0.0970  0.5664
   34MOL   O15431240   2.892   0.574   6.682 -0.0999 -0.1833 -0.3023
   34MOL   C15531241   2.846   0.694   6.739  0.8304 -0.2084  0.2659
   34MOL   O15631242   2.886   0.808   6.711  0.2907  0.2128  0.4920
   34MOL   C15731243   2.746   0.678   6.846  0.2852 -0.3966 -0.0814
   34MOL   C15831244   2.702   0.791   6.921 -0.2613  0.3137  0.9566
   34MOL   C15931245   2.593   0.780   7.009 -0.3080 -0.1729 -0.0878
   34MOL   C16031246   2.542   0.655   7.048  0.0091 -0.0111  0.0843
   34MOL   C16131247   2.431   0.635   7.151  0.3688 -0.4589  0.0176
   34MOL   O16231248   2.373   0.525   7.162  0.0013 -0.3272  0.4242
   34MOL   O16331249   2.407   0.739   7.231 -0.1567 -0.1860  0.4885
   34MOL   C16431250   2.599   0.545   6.982  0.0664 -0.3142 -0.1779
   34MOL   C16531251   2.691   0.551   6.876 -0.2369 -0.0859 -0.3958
   34MOL   H16631252   3.591   0.952   6.382 -0.6358  0.1961 -1.4305
   34MOL   H16731253   3.648   0.911   6.227 -1.8221 -1.4369  0.3377
   34MOL   H16831254   3.601   0.740   6.454  0.8786 -1.6468 -0.1342
   34MOL   H16931255   3.708   0.680   6.332  0.4517  0.3488 -0.1314
   34MOL   H17031256   3.423   0.780   6.284  0.4023 -0.7822  1.6885
   34MOL   H17131257   3.533   0.725   6.152  0.1904  1.0151  0.6189
   34MOL   H17231258   3.540   0.497   6.237  0.5199  1.3580 -1.6787
   34MOL   H17331259   3.397   0.546   6.182  1.6670  0.9866 -1.8904
   34MOL   H17431260   3.459   0.553   6.473  1.4632  0.6700 -0.6596
   34MOL   H17531261   3.317   0.609   6.413 -0.2633 -1.6347  2.7997
   34MOL   H17631262   3.417   0.339   6.346 -0.2091 -0.1232  1.0369
   34MOL   H17731263   3.343   0.352   6.505 -0.8575  2.1879  1.9334
   34MOL   H17831264   3.200   0.339   6.238 -1.9077 -1.3891 -0.3460
   34MOL   H17931265   3.184   0.248   6.386  0.1989 -0.2629 -1.7466
   34MOL   H18031266   3.089   0.541   6.348 -0.9452 -0.2970  0.5953
   34MOL   H18131267   2.992   0.396   6.325  0.0190 -0.6264  0.5912
   34MOL   H18231268   3.136   0.458   6.598 -0.0577 -0.4663  1.2971
   34MOL   H18331269   2.989   0.365   6.552  1.1964  0.0446  0.0702
   34MOL   H18431270   2.885   0.580   6.489 -0.6986 -3.4626  1.5118
   34MOL   H18531271   3.023   0.672   6.549  0.6071 -0.5351 -2.4890
   34MOL   H18631272   2.745   0.889   6.905 -0.0904  0.3414  1.5758
   34MOL   H18731273   2.545   0.868   7.048 -0.4639  0.2302 -1.1553
   34MOL   H18831274   2.546   0.451   6.996 -1.5289  0.6096  0.1505
   34MOL   H18931275   2.733   0.468   6.821  2.0221  1.5196 -1.1593
   34MOL   O19031276   2.310   0.712   7.340 -0.5978  0.4241  0.3444
   34MOL   C19131277   2.180   0.750   7.300  0.1202  0.9930  0.2639
   34MOL   C19231278   2.097   0.759   7.433  0.6670 -0.4739 -0.5485
   34MOL   C19331279   2.117   0.892   7.509 -0.2535 -0.4179  0.5546
   34MOL   C19431280   2.063   0.894   7.648 -0.3675  0.3228 -0.5730
   34MOL   C19531281   2.060   1.028   7.720 -0.2642 -0.8209  0.0295
   34MOL   C19631282   2.006   1.033   7.863  0.7694  0.5309 -0.9476
   34MOL   C19731283   2.071   0.943   7.967 -0.4610  0.4026 -0.4492
   34MOL   C19831284   2.218   0.975   0.022 -0.2462 -0.6801 -0.3614
   34MOL   C19931285   2.324   0.913   7.912  0.5920  0.3806  0.3364
   34MOL   C20031286   2.323   0.760   7.931  0.3268 -0.3151  0.7335
   34MOL   O20131287   2.397   0.710   7.820 -0.0261 -0.3873 -0.1682
   34MOL   C20231288   2.527   0.677   7.833  0.0453 -0.3910  0.3730
   34MOL   O20331289   2.593   0.705   7.932  0.1427  0.2883 -0.3064
   34MOL   C20431290   2.585   0.612   7.702 -0.5463 -0.2706  0.7358
   34MOL   C20531291   2.726   0.595   7.692  0.3052  0.0158  0.5672
   34MOL   C20631292   2.773   0.530   7.573 -0.6148  0.4635 -0.0302
   34MOL   C20731293   2.690   0.499   7.464  0.7281  0.1617 -0.5178
   34MOL   C20831294   2.731   0.418   7.345  0.3347  0.1148 -0.6183
   34MOL   O20931295   2.841   0.374   7.333  0.0295  0.0554  0.5991
   34MOL   O21031296   2.629   0.401   7.255 -0.5664  0.1548 -0.7407
   34MOL   C21131297   2.550   0.518   7.481  0.0149 -0.1386  0.3639
   34MOL   C21231298   2.503   0.582   7.594  0.4571 -0.6933 -0.0267
   34MOL   H21331299   2.181   0.837   7.235  0.2770 -0.7114 -2.1014
   34MOL   H21431300   2.141   0.669   7.238  1.2580  1.0769 -0.5872
   34MOL   H21531301   2.120   0.669   7.491  1.8881 -1.4134 -2.4568
   34MOL   H21631302   1.990   0.754   7.414 -0.0868  3.4552  2.0452
   34MOL   H21731303   2.224   0.916   7.506 -0.7608  3.2563  4.8287
   34MOL   H21831304   2.082   0.976   7.449 -0.2866  0.8006  2.2447
   34MOL   H21931305   2.124   0.819   7.698  1.3792  0.5959 -2.2433
   34MOL   H22031306   1.959   0.861   7.634 -0.6904  2.4024 -3.4701
   34MOL   H22131307   2.161   1.068   7.724 -0.5212  0.0612 -1.6528
   34MOL   H22231308   2.006   1.095   7.653 -0.8084 -1.5436 -0.2675
   34MOL   H22331309   1.997   1.135   7.902  0.2501 -0.4726  1.6503
   34MOL   H22431310   1.901   1.007   7.854  0.2594  0.9140  2.9213
   34MOL   H22531311   2.020   0.940   0.084  1.7970  0.0568  0.7898
   34MOL   H22631312   2.062   0.838   7.940  1.6729 -0.4526  1.9506
   34MOL   H22731313   2.234   1.082   0.035 -0.5030 -0.8426  1.4181
   34MOL   H22831314   2.235   0.940   0.124 -1.0194  0.9523  0.3402
   34MOL   H22931315   2.420   0.955   7.942  0.6929  0.7705 -0.5149
   34MOL   H23031316   2.300   0.934   7.808 -1.1746 -1.7519  0.2709
   34MOL   H23131317   2.221   0.724   7.919 -1.0185  0.6051  7.2668
   34MOL   H23231318   2.356   0.724   0.051 -0.7629  0.0597  1.2460
   34MOL   H23331319   2.795   0.613   7.773  1.6051 -0.2272 -0.4721
   34MOL   H23431320   2.874   0.494   7.580 -0.6814  0.1881 -0.4671
   34MOL   H23531321   2.472   0.491   7.412 -0.2809 -0.6433  0.8902
   34MOL   H23631322   2.395   0.594   7.596  0.3167 -1.1682 -2.7006
   34MOL   O23731323   2.672   0.317   7.132 -0.3445  0.1606 -0.2293
   34MOL   C23831324   2.645   0.186   7.159  0.4972 -0.2115 -0.0630
   34MOL   C23931325   2.660   0.098   7.035 -0.1789 -0.1709 -0.2436
   34MOL   C24031326   2.811   0.075   7.008 -0.0520  0.0966 -0.1628
   34MOL   C24131327   2.839   7.972   6.883  0.5084  0.2708 -0.2120
   34MOL   C24231328   2.803   7.830   6.895 -0.0293 -0.3740  0.3118
   34MOL   C24331329   2.890   7.750   7.001  0.6958 -0.3911 -0.2027
   34MOL   C24431330   2.887   7.606   6.979 -0.0847  0.3631  0.1550
   34MOL   C24531331   2.970   7.516   7.077  0.5046  0.3575  0.4786
   34MOL   C24631332   2.948   7.360   7.060 -0.2065 -0.3621  0.8245
   34MOL   C24731333   2.982   7.283   7.185  0.2698  0.5031  0.8783
   34MOL   O24831334   3.113   7.321   7.214 -0.1633  0.1047 -0.3410
   34MOL   C24931335   3.185   7.263   7.311 -0.0750  0.5604  0.5634
   34MOL   O25031336   3.137   7.181   7.386 -0.1838  0.0924 -0.4542
   34MOL   C25131337   3.329   7.295   7.310 -0.1584  0.4421  0.4057
   34MOL   C25231338   3.424   7.192   7.323  0.3803  0.4660 -0.4490
   34MOL   C25331339   3.560   7.221   7.318 -0.1331  0.1662  0.2622
   34MOL   C25431340   3.601   7.355   7.323  0.0658  0.1386 -0.1353
   34MOL   C25531341   3.745   7.384   7.319  0.4407  1.0813 -0.8625
   34MOL   O25631342   3.785   7.496   7.324  0.4661  0.1199  0.4352
   34MOL   O25731343   3.818   7.268   7.314 -0.1787 -0.3456  0.1714
   34MOL   C25831344   3.506   7.459   7.319 -0.6551  0.8276 -0.3649
   34MOL   C25931345   3.371   7.429   7.307 -0.4147  0.3600  0.1426
   34MOL   H26031346   2.709   0.145   7.238  2.0422  2.5570  0.1777
   34MOL   H26131347   2.540   0.181   7.188  0.8995 -3.7830  1.0448
   34MOL   H26231348   2.623   0.151   6.947  2.9919 -0.1184 -1.5801
   34MOL   H26331349   2.605   0.006   7.051 -1.3221  0.3060 -1.3240
   34MOL   H26431350   2.869   0.167   7.011  2.0522 -1.2533  2.5489
   34MOL   H26531351   2.858   0.016   7.087 -0.8373  0.5254  0.6251
   34MOL   H26631352   2.946   7.976   6.861  1.3344 -0.1995  3.3974
   34MOL   H26731353   2.793   0.038   6.795 -1.2259 -0.2336  0.4245
   34MOL   H26831354   2.694   7.828   6.907 -0.3581  3.7617 -1.0649
   34MOL   H26931355   2.831   7.786   6.799 -0.0472  0.4026 -0.0590
   34MOL   H27031356   2.994   7.779   6.986  0.7238  0.1760  1.0226
   34MOL   H27131357   2.842   7.772   7.097 -1.0546 -0.0558 -1.1323
   34MOL   H27231358   2.782   7.577   6.982  0.1524 -0.4266  2.3245
   34MOL   H27331359   2.921   7.588   6.878 -0.3513  1.2462 -0.1007
   34MOL   H27431360   3.072   7.545   7.049  0.3468  0.6019  0.1568
   34MOL   H27531361   2.937   7.547   7.176  0.4622  1.2363  0.1945
   34MOL   H27631362   3.019   7.322   6.987 -1.1844  1.6355 -1.2160
   34MOL   H27731363   2.845   7.334   7.036  0.4778 -0.2162 -2.5268
   34MOL   H27831364   2.967   7.177   7.164 -1.5414  0.8274  0.4861
   34MOL   H27931365   2.922   7.315   7.270  1.9135 -0.4422  2.4595
   34MOL   H28031366   3.403   7.086   7.326 -0.8182  0.6730 -1.2986
   34MOL   H28131367   3.629   7.139   7.310  1.8682  1.8703 -0.5115
   34MOL   H28231368   3.548   7.558   7.330 -0.7729  0.6604  1.8463
   34MOL   H28331369   3.300   7.510   7.297  1.1535  1.8470  0.8603
   34MOL   O28431370   3.959   7.301   7.354 -0.1138  0.1317 -0.0183
   34MOL   C28531371   4.045   7.271   7.239  0.8115  0.6052 -0.8272
   34MOL   C28631372   4.062   7.398   7.157 -0.2043 -0.2759  0.2427
   34MOL   C28731373   4.163   7.496   7.216 -0.6961 -0.3490  0.2891
   34MOL   C28831374   4.182   7.630   7.142  0.1530 -0.1071 -0.1178
   34MOL   C28931375   4.075   7.737   7.170  0.1772  1.1721  0.0327
   34MOL   C29031376   4.105   7.866   7.100 -0.1668  0.9977 -0.5033
   34MOL   C29131377   4.045   0.017   7.156  0.1357 -0.4562 -0.5349
   34MOL   C29231378   3.893   0.013   7.162 -0.2642 -0.3832 -0.1651
   34MOL   C29331379   3.815   0.145   7.186  0.1001 -0.1217  0.4857
   34MOL   C29431380   3.664   0.128   7.199 -0.2484  0.4193 -0.1070
   34MOL   O29531381   3.590   0.242   7.251 -0.5571  0.2220 -0.2384
   34MOL   C29631382   3.585   0.354   7.164  0.2874  0.0150  0.0981
   34MOL   O29731383   3.660   0.366   7.063  0.2098 -0.0643 -0.0415
   34MOL   C29831384   3.498   0.460   7.218 -0.8703 -0.8925 -0.1653
   34MOL   C29931385   3.414   0.444   7.335 -0.7004 -0.3668  0.3973
   34MOL   C30031386   3.335   0.548   7.386  0.7920 -0.1480 -0.3773
   34MOL   C30131387   3.335   0.670   7.325 -0.3099  0.6177  0.1980
   34MOL   C30231388   3.249   0.781   7.375 -0.3761  0.0530 -0.2745
   34MOL   O30331389   3.178   0.767   7.476 -0.1118  0.9473 -0.1690
   34MOL   O30431390   3.258   0.904   7.318  0.1704 -0.3334 -0.2730
   34MOL   C30531391   3.417   0.691   7.212  0.1675 -0.4606 -0.2583
   34MOL   C30631392   3.499   0.589   7.152  0.1125 -0.1061 -0.5708
   34MOL   H30731393   4.139   7.220   7.262  0.4052  0.9961  1.8579
   34MOL   H30831394   4.003   7.194   7.175  1.0715 -0.5187  0.3374
   34MOL   H30931395   3.965   7.447   7.158  0.1386  0.3980  0.4824
   34MOL   H31031396   4.087   7.381   7.052 -1.0170  2.5582 -0.4474
   34MOL   H31131397   4.148   7.526   7.320 -1.1783 -1.9853  0.7049
   34MOL   H31231398   4.265   7.460   7.209 -0.7367 -0.7017  1.4644
   34MOL   H31331399   4.174   7.600   7.037  2.0499  0.7379 -0.5284
   34MOL   H31431400   4.281   7.669   7.168 -0.5249  2.4967 -1.2712
   34MOL   H31531401   3.981   7.697   7.130 -0.3851  0.2683  2.1717
   34MOL   H31631402   4.075   7.743   7.279 -1.5919  1.3559  0.0408
   34MOL   H31731403   4.213   7.877   7.105  0.0442 -0.3539 -1.4897
   34MOL   H31831404   4.077   7.852   6.995  0.1732  0.7745 -0.5668
   34MOL   H31931405   4.087   0.037   7.254  0.4585 -1.3966 -0.4797
   34MOL   H32031406   4.073   0.092   7.082 -1.3105 -1.2260 -1.8935
   34MOL   H32131407   3.860   7.960   7.063 -0.5087  1.1756 -0.5809
   34MOL   H32231408   3.860   7.904   7.220  0.2509 -1.5451 -1.5828
   34MOL   H32331409   3.844   0.221   7.113 -1.5999 -0.7408 -0.8529
   34MOL   H32431410   3.834   0.179   7.288 -0.2801  0.4264  0.3746
   34MOL   H32531411   3.651   0.051   7.274 -1.5767 -0.9091 -1.6483
   34MOL   H32631412   3.617   0.093   7.106 -0.3489 -0.1522  0.1560
   34MOL   H32731413   3.421   0.357   7.398  0.1431 -1.4287 -1.1384
   34MOL   H32831414   3.281   0.543   7.479  0.4982  2.6918 -0.3335
   34MOL   H32931415   3.421   0.786   7.160 -0.0330  1.4868  3.1796
   34MOL   H33031416   3.549   0.611   7.059  2.1833 -1.7922  0.0825
   34MOL   O33131417   3.169   1.006   7.379 -0.0087 -0.2509  0.2074
   34MOL   C33231418   3.237   1.102   7.456  0.0425  0.2080 -0.5766
   34MOL   C33331419   3.216   1.061   7.598  0.4047 -0.2822 -0.3726
   34MOL   C33431420   3.071   1.060   7.640 -0.1463  0.5398  0.2719
   34MOL   C33531421   3.064   1.009   7.777 -0.2266  0.1354  0.4191
   34MOL   C33631422   3.098   1.112   7.882 -0.0655 -0.7125 -0.6996
   34MOL   C33731423   3.085   1.055   0.046  0.6046 -0.0861  0.1345
   34MOL   C33831424   3.098   1.165   0.146 -0.1432 -0.0919  0.2508
   34MOL   C33931425   3.081   1.096   0.275  0.1634 -0.1415 -1.0596
   34MOL   C34031426   3.087   1.202   0.387  0.3648  0.1710 -0.1764
   34MOL   C34131427   3.051   1.134   0.521 -0.1952  0.2950  0.3409
   34MOL   O34231428   3.046   1.223   0.634  0.3825  0.1802  0.1097
   34MOL   C34331429   3.053   1.171   0.759  0.2586 -0.2749  0.4184
   34MOL   O34431430   3.053   1.046   0.779 -0.3242 -0.3122 -0.0370
   34MOL   C34531431   3.063   1.270   0.868  0.1155  0.5080  0.2067
   34MOL   C34631432   3.054   1.408   0.836  0.2620 -0.4738 -0.2995
   34MOL   C34731433   3.056   1.509   0.936  0.3974  0.1403 -0.4100
   34MOL   C34831434   3.067   1.471   1.073 -0.7160  0.7170  0.1810
   34MOL   C34931435   3.090   1.567   1.182 -0.3914 -0.0670 -0.1467
   34MOL   O35031436   3.088   1.691   1.167  0.2443  0.6518 -0.1349
   34MOL   O35131437   3.120   1.510   1.299 -0.3649 -0.7160 -0.1753
   34MOL   C35231438   3.075   1.333   1.107 -0.7868  0.6248 -0.3925
   34MOL   C35331439   3.079   1.235   1.006 -0.4554  0.4868 -0.9402
   34MOL   H35431440   3.342   1.094   7.430  0.6198 -0.0466  1.7270
   34MOL   H35531441   3.200   1.202   7.433  2.6274  1.0204 -1.3001
   34MOL   H35631442   3.268   1.131   7.663 -0.9204 -0.8614  1.3528
   34MOL   H35731443   3.268   0.968   7.619  1.4833  0.9686  2.8293
   34MOL   H35831444   3.012   1.147   7.614  1.0533  1.2802 -0.0446
   34MOL   H35931445   3.032   0.983   7.573  2.1862 -1.4506  1.0950
   34MOL   H36031446   3.126   0.923   7.803  1.5527  1.5349  0.8363
   34MOL   H36131447   2.960   0.981   7.794 -0.5085  0.9575  0.0978
   34MOL   H36231448   3.193   1.162   7.862 -0.1405 -0.8162 -1.3290
   34MOL   H36331449   3.019   1.184   7.861  0.9385  0.7608  0.5373
   34MOL   H36431450   2.993   0.999   0.063  1.7265 -1.3854  2.1015
   34MOL   H36531451   3.171   0.991   0.065  0.8190  0.3969  0.7911
   34MOL   H36631452   3.195   1.213   0.153  0.2987 -0.9672  0.1435
   34MOL   H36731453   3.018   1.238   0.134 -1.9780 -1.9904  0.5975
   34MOL   H36831454   2.993   1.032   0.280 -0.5737  0.8333 -1.2629
   34MOL   H36931455   3.158   1.020   0.288  0.7563  0.2100 -2.4228
   34MOL   H37031456   3.035   1.294   0.361  0.2840  0.3168  0.4953
   34MOL   H37131457   3.190   1.240   0.388  0.7536 -0.8727  0.0466
   34MOL   H37231458   3.122   1.057   0.548  3.1227  1.9899 -3.0799
   34MOL   H37331459   2.949   1.095   0.516  0.2819 -0.8467 -0.7746
   34MOL   H37431460   3.031   1.442   0.736 -2.1598 -1.0690  0.0255
   34MOL   H37531461   3.050   1.614   0.911 -0.4070  0.3734  0.7123
   34MOL   H37631462   3.079   1.299   1.209 -1.3305  0.7966 -0.3128
   34MOL   H37731463   3.070   1.132   1.038  0.5066  0.7128  0.1034
   34MOL   O37831464   3.152   1.608   1.414 -0.0715  0.1125 -0.3491
   34MOL   C37931465   3.285   1.572   1.455  0.9805  0.1866 -0.0828
   34MOL   C38031466   3.335   1.635   1.585  0.0620 -0.1318 -0.1468
   34MOL   C38131467   3.475   1.594   1.635 -0.6685  0.0718 -0.1376
   34MOL   C38231468   3.510   1.664   1.772 -0.3544 -0.5148 -0.5078
   34MOL   C38331469   3.645   1.617   1.825 -0.0677 -0.2611 -0.0956
   34MOL   C38431470   3.767   1.677   1.754  0.8475  0.6754  0.0159
   34MOL   C38531471   3.892   1.670   1.838  0.2891  0.1820  0.7910
   34MOL   C38631472   4.000   1.764   1.783  0.2029  0.4501  0.0270
   34MOL   C38731473   4.120   1.783   1.876 -0.9211  0.6873 -0.2235
   34MOL   C38831474   4.211   1.908   1.842 -0.2061  0.2538  0.3554
   34MOL   O38931475   4.135   2.025   1.862 -0.2057  0.0253  0.8838
   34MOL   C39031476   4.129   2.082   1.982  0.3163  0.7301 -0.2627
   34MOL   O39131477   4.175   2.033   2.086  0.5115 -0.6435 -0.1624
   34MOL   C39231478   4.049   2.212   1.982 -0.2650 -0.3999 -0.4302
   34MOL   C39331479   4.032   2.277   2.107 -0.5746  0.6296 -0.3866
   34MOL   C39431480   3.960   2.399   2.119 -0.6664 -0.1095 -0.3213
   34MOL   C39531481   3.899   2.452   2.003 -0.0543 -0.7857 -0.0686
   34MOL   C39631482   3.807   2.570   2.014  0.2397  0.3314  0.0804
   34MOL   O39731483   3.778   2.621   2.119  0.3525  0.2333 -0.4228
   34MOL   O39831484   3.759   2.606   1.888  0.5080 -0.0167  0.2447
   34MOL   C39931485   3.922   2.395   1.879  0.1870 -0.2613  0.5731
   34MOL   C40031486   3.999   2.275   1.867  0.9442  0.2837 -0.0227
   34MOL   H40131487   3.285   1.463   1.466  2.7939  0.2592  0.9272
   34MOL   H40231488   3.354   1.607   1.377  2.2877  2.1345  1.8795
   34MOL   H40331489   3.270   1.598   1.665 -1.2083  0.0055 -1.0961
   34MOL   H40431490   3.318   1.743   1.584 -2.7184 -0.4816  1.8535
   34MOL   H40531491   3.468   1.485   1.646  1.2398 -0.0752 -0.3185
   34MOL   H40631492   3.551   1.616   1.560  2.4211 -4.0584  1.5791
   34MOL   H40731493   3.452   1.637   1.861  1.7306 -1.1622  0.6781
   34MOL   H40831494   3.513   1.772   1.755 -0.3276 -0.4607 -0.1700
   34MOL   H40931495   3.651   1.641   1.931 -2.3840  1.0466 -0.2244
   34MOL   H41031496   3.656   1.509   1.825 -0.4334 -0.3159 -2.1903
   34MOL   H41131497   3.795   1.635   1.658 -1.5947 -1.5287  0.2020
   34MOL   H41231498   3.744   1.782   1.732  3.0861  0.5261 -3.4140
   34MOL   H41331499   3.879   1.696   1.943  2.0376  0.0201  1.0535
   34MOL   H41431500   3.937   1.571   1.842  1.6085  0.7210 -0.1806
   34MOL   H41531501   4.035   1.724   1.688 -0.6816  1.4674 -0.7385
   34MOL   H41631502   3.959   1.861   1.755 -0.5926 -0.0906 -0.7269
   34MOL   H41731503   4.175   1.689   1.878  1.6147  2.1233  4.3968
   34MOL   H41831504   4.076   1.786   1.975  2.2568  1.1498  1.2237
   34MOL   H41931505   4.245   1.911   1.738 -2.4690  2.9500 -0.3789
   34MOL   H42031506   4.306   1.896   1.894  0.0611 -1.1808 -0.4444
   34MOL   H42131507   4.065   2.224   2.195  0.6822  0.1740 -1.1257
   34MOL   H42231508   3.946   2.439   2.219  0.5126 -1.3335  0.3468
   34MOL   H42331509   3.873   2.424   1.788 -2.2019 -2.0313  1.2560
   34MOL   H42431510   4.010   2.228   1.770  3.5798 -1.6934  1.1850
   34MOL   O42531511   3.654   2.714   1.891  0.1490 -0.1341 -0.2197
   34MOL   C42631512   3.709   2.844   1.922  0.3763  0.4676 -0.2962
   34MOL   C42731513   3.837   2.865   1.838 -0.6721  0.1992  0.2770
   34MOL   C42831514   3.917   2.994   1.858 -0.2029 -0.7099 -0.6662
   34MOL   C42931515   4.055   2.999   1.790  1.1100  0.1902  1.0760
   34MOL   C43031516   4.134   3.128   1.786 -0.0626 -0.0841 -0.1580
   34MOL   C43131517   4.207   3.166   1.916  1.0758  0.4814 -0.0480
   34MOL   C43231518   4.294   3.056   1.988 -0.5373 -0.3937  0.4449
   34MOL   C43331519   4.377   3.116   2.101 -0.8628 -0.4980 -0.0175
   34MOL   C43431520   4.442   3.013   2.201  0.2536 -0.5634 -0.9761
   34MOL   C43531521   4.514   3.071   2.324  0.4618  0.2077  0.7641
   34MOL   O43631522   4.548   2.964   2.407 -0.3159  0.3996 -0.2698
   34MOL   C43731523   4.581   2.993   2.537  0.0317  0.7483 -0.6663
   34MOL   O43831524   4.579   3.103   2.590 -0.1369  0.4948  0.3698
   34MOL   C43931525   4.634   2.873   2.610 -0.6406 -0.7960 -0.4248
   34MOL   C44031526   4.699   2.890   2.730 -0.4431 -0.3887 -0.4581
   34MOL   C44131527   4.759   2.787   2.797 -0.6808  0.3106 -0.2464
   34MOL   C44231528   4.733   2.652   2.766 -0.5807  0.9529  0.1105
   34MOL   C44331529   4.791   2.540   2.843 -0.3038  0.3398  0.8548
   34MOL   O44431530   4.809   2.427   2.798 -0.0096  0.2291 -0.3288
   34MOL   O44531531   4.827   2.572   2.969 -0.6767 -0.5213  0.1451
   34MOL   C44631532   4.676   2.630   2.640 -0.1540  0.6264 -0.0756
   34MOL   C44731533   4.629   2.742   2.561  0.0362 -0.3449  0.2887
   34MOL   H44831534   3.648   2.932   1.903 -0.9354 -0.0626  1.4301
   34MOL   H44931535   3.729   2.850   2.029 -2.2762  1.9797  0.1337
   34MOL   H45031536   3.813   2.857   1.732 -0.7110 -0.0447  0.3055
   34MOL   H45131537   3.911   2.787   1.852  1.2090  2.0726  0.9578
   34MOL   H45231538   3.864   3.082   1.821  1.0591  1.0564  1.6090
   34MOL   H45331539   3.940   2.999   1.964 -2.1381  2.9610 -0.3712
   34MOL   H45431540   4.045   2.966   1.686 -0.8980 -0.7525  1.5414
   34MOL   H45531541   4.125   2.923   1.823  2.4738  0.6785 -0.5710
   34MOL   H45631542   4.210   3.112   1.710 -1.0188 -2.0582 -0.7410
   34MOL   H45731543   4.081   3.218   1.757 -0.2826  0.6813  2.4736
   34MOL   H45831544   4.251   3.265   1.923 -0.5025  1.2046 -0.1910
   34MOL   H45931545   4.116   3.182   1.974  0.5402 -0.4347 -0.6231
   34MOL   H46031546   4.229   2.984   2.036  1.3652 -1.2857  1.7557
   34MOL   H46131547   4.362   3.008   1.918  0.0561  0.6479  0.2868
   34MOL   H46231548   4.455   3.182   2.062 -0.5409 -1.5713 -1.1990
   34MOL   H46331549   4.317   3.186   2.160  0.0169 -1.9554  2.6810
   34MOL   H46431550   4.521   2.966   2.142 -1.3961 -2.4562 -1.7371
   34MOL   H46531551   4.378   2.930   2.233 -1.3788  0.2268 -2.1009
   34MOL   H46631552   4.460   3.149   2.377  2.8552  0.1347  3.4554
   34MOL   H46731553   4.610   3.117   2.300  0.7443 -0.5074  0.4920
   34MOL   H46831554   4.708   2.992   2.765  1.0755 -0.0471 -1.8295
   34MOL   H46931555   4.811   2.813   2.887 -1.9524  3.0523 -0.2587
   34MOL   H47031556   4.651   2.527   2.619  2.1932  0.3158 -1.4160
   34MOL   H47131557   4.571   2.720   2.472 -0.6166  0.5206  0.4903
   34MOL   O47231558   4.911   2.474   3.039 -0.0105 -0.2061 -0.0966
   34MOL   C47331559   4.822   2.385   3.109  0.5415 -0.2278 -0.0969
   34MOL   C47431560   4.903   2.282   3.194 -0.3827 -0.9360  0.3362
   34MOL   C47531561   4.952   2.162   3.114  0.1819 -0.4298  0.4173
   34MOL   C47631562   5.051   2.194   3.002 -0.1622  0.2805  0.0850
   34MOL   C47731563   5.060   2.088   2.892 -0.3110 -0.1256 -0.0287
   34MOL   C47831564   5.166   2.134   2.790 -0.2386 -0.1204 -0.0494
   34MOL   C47931565   5.134   2.087   2.635 -0.0944  0.0097 -0.1961
   34MOL   C48031566   5.263   2.120   2.557 -0.3082  0.8068 -0.9016
   34MOL   C48131567   5.248   2.096   2.411 -0.5219  0.0434 -0.5355
   34MOL   C48231568   5.383   2.070   2.336 -0.0572 -0.2784 -0.2055
   34MOL   O48331569   5.436   1.945   2.381 -0.0571 -0.4163 -0.1715
   34MOL   C48431570   5.549   1.899   2.336 -0.5743  0.2238  0.0264
   34MOL   O48531571   5.611   1.956   2.249  0.3926 -0.2438  0.5267
   34MOL   C48631572   5.596   1.774   2.406 -0.5134  0.0882 -0.4661
   34MOL   C48731573   5.508   1.691   2.475  0.0707 -0.1582  0.1654
   34MOL   C48831574   5.545   1.573   2.534  0.7066  0.3127  0.8784
   34MOL   C48931575   5.678   1.528   2.518  0.4430 -0.0413  0.2537
   34MOL   C49031576   5.731   1.402   2.558  0.4989  0.8231 -0.5361
   34MOL   O49131577   5.847   1.373   2.549 -0.1667  0.5628  0.0224
   34MOL   O49231578   5.645   1.303   2.607  0.4290 -0.3557  0.4997
   34MOL   C49331579   5.770   1.609   2.449 -0.6713 -0.1980  0.3604
   34MOL   C49431580   5.731   1.732   2.388 -0.4735  0.8532 -0.2107
   34MOL   H49531581   4.766   2.444   3.182  0.5526  0.5058 -0.6791
   34MOL   H49631582   4.745   2.330   3.055  1.4633 -1.9119  0.2596
   34MOL   H49731583   4.839   2.248   3.275  1.3981  1.5156  2.8449
   34MOL   H49831584   4.987   2.334   3.240 -1.5662 -1.5791  3.3525
   34MOL   H49931585   4.991   2.095   3.191 -2.8227 -1.3733  1.1727
   34MOL   H50031586   4.868   2.112   3.065  1.7546 -1.4989 -1.2487
   34MOL   H50131587   5.146   2.215   3.052 -1.6022  0.0156  3.0272
   34MOL   H50231588   5.032   2.285   2.945  0.0391  0.4354  0.2652
   34MOL   H50331589   5.087   1.998   2.948 -0.4170 -0.3843 -0.3916
   34MOL   H50431590   4.960   2.083   2.848 -0.1126 -2.0787 -0.2961
   34MOL   H50531591   5.184   2.242   2.789 -1.2865  0.0885 -3.0095
   34MOL   H50631592   5.257   2.087   2.826  0.1058 -0.0721 -0.8465
   34MOL   H50731593   5.101   1.983   2.636 -2.3146  0.6926  0.0930
   34MOL   H50831594   5.053   2.147   2.594  0.1259 -0.4439 -1.3363
   34MOL   H50931595   5.287   2.225   2.574  0.0764  0.4519  0.8376
   34MOL   H51031596   5.347   2.063   2.596  0.5921  3.2645  0.8262
   34MOL   H51131597   5.206   2.185   2.363 -1.7614 -0.5755 -0.6121
   34MOL   H51231598   5.189   2.007   2.393  0.1178 -0.4285 -0.2908
   34MOL   H51331599   5.455   2.149   2.357 -0.4444  0.9992 -3.2762
   34MOL   H51431600   5.357   2.057   2.230 -3.5785 -0.3717  0.6003
   34MOL   H51531601   5.408   1.730   2.485  0.5895  1.4022 -0.5838
   34MOL   H51631602   5.467   1.517   2.583  0.9073  1.3756  2.4635
   34MOL   H51731603   5.871   1.581   2.426 -0.9806  0.2431 -1.6003
   34MOL   H51831604   5.799   1.786   2.324 -1.0063  2.7037  0.7266
   34MOL   O51931605   5.714   1.176   2.661  0.2781 -0.4818  0.3036
   34MOL   C52031606   5.720   1.087   2.556  0.1248 -0.5378  0.2054
   34MOL   C52131607   5.801   0.965   2.589 -0.7810  0.9017  0.1130
   34MOL   C52231608   5.957   0.999   2.586  0.1186 -0.0057  0.1348
   34MOL   C52331609   6.037   0.902   2.675  0.3278  0.5878  0.2179
   34MOL   C52431610   6.176   0.930   2.705 -0.2619 -0.4696  0.7354
   34MOL   C52531611   6.254   0.820   2.780  0.2324  0.1230 -0.1606
   34MOL   C52631612   6.400   0.865   2.779  0.0551  0.0415 -0.1941
   34MOL   C52731613   6.494   0.766   2.854  0.3507 -0.3628 -0.4610
   34MOL   C52831614   6.636   0.823   2.875  0.1889  0.2319 -0.4920
   34MOL   C52931615   6.718   0.844   2.753 -0.5285  0.8186  0.0796
   34MOL   O53031616   6.661   0.929   2.655  0.6165 -0.3881  0.0972
   34MOL   C53131617   6.727   0.960   2.547 -0.9435  0.2669 -0.5189
   34MOL   O53231618   6.841   0.919   2.522 -0.0785 -0.0553  0.4328
   34MOL   C53331619   6.655   1.056   2.467  0.1612 -0.0721 -0.4032
   34MOL   C53431620   6.706   1.090   2.340  0.2605 -0.6331  0.1091
   34MOL   C53531621   6.643   1.187   2.260  0.2503 -0.5894 -0.2456
   34MOL   C53631622   6.514   1.241   2.299  0.3501 -0.5029 -0.3934
   34MOL   C53731623   6.448   1.341   2.212  0.2887 -0.1482 -0.6946
   34MOL   O53831624   6.343   1.406   2.236 -0.0754 -0.2594 -0.2257
   34MOL   O53931625   6.511   1.350   2.096 -0.1033 -1.1727  0.2389
   34MOL   C54031626   6.450   1.194   2.419  1.0863  0.4648  0.6130
   34MOL   C54131627   6.522   1.101   2.498 -0.2938  0.0995  0.1851
   34MOL   H54231628   5.619   1.054   2.533  0.7431 -4.1698  2.2559
   34MOL   H54331629   5.759   1.134   2.466  0.8508  1.6539  1.6298
   34MOL   H54431630   5.789   0.885   2.517  2.6941 -0.7932  1.3022
   34MOL   H54531631   5.759   0.937   2.686  0.7551  0.4474  0.6743
   34MOL   H54631632   5.992   1.010   2.484 -2.1967 -1.0954 -0.8330
   34MOL   H54731633   5.971   1.093   2.639 -0.7179 -0.9268  2.0589
   34MOL   H54831634   6.053   0.809   2.619  0.5270  1.0969 -0.5836
   34MOL   H54931635   5.998   0.863   2.769  0.8454  2.2372  1.1194
   34MOL   H55031636   6.220   0.950   2.608 -1.8880 -2.6533 -0.5064
   34MOL   H55131637   6.170   1.025   2.758 -0.6095 -1.3114  2.2357
   34MOL   H55231638   6.221   0.816   2.883  0.5999 -0.2018 -0.0521
   34MOL   H55331639   6.240   0.724   2.730  0.6152 -0.3794  0.6807
   34MOL   H55431640   6.428   0.887   2.676  1.3882  1.4112  0.4410
   34MOL   H55531641   6.407   0.964   2.824  1.9320  0.4858 -1.3870
   34MOL   H55631642   6.455   0.736   2.952 -1.0957  0.0921 -0.8902
   34MOL   H55731643   6.502   0.673   2.798  2.5161 -0.3976 -0.1248
   34MOL   H55831644   6.692   0.765   2.949  0.4640 -0.1033 -0.9642
   34MOL   H55931645   6.634   0.919   2.927  1.2486  0.5477 -1.0362
   34MOL   H56031646   6.750   0.747   2.717  0.9786  2.1737 -2.3535
   34MOL   H56131647   6.811   0.886   2.793 -0.5479 -0.8070  1.8989
   34MOL   H56231648   6.802   1.053   2.305 -0.0669 -0.0072 -1.4985
   34MOL   H56331649   6.698   1.216   2.171  0.7071 -1.5911 -0.2970
   34MOL   H56431650   6.349   1.229   2.434  0.7766  0.6849 -1.7960
   34MOL   H56531651   6.475   1.069   2.590 -1.8559 -1.3008 -1.0485
   34MOL   O56631652   6.441   1.438   1.998  0.4083 -0.1741  0.5078
   34MOL   C56731653   6.489   1.566   2.015 -0.5982 -0.1000  0.4868
   34MOL   C56831654   6.405   1.651   1.921 -0.2825 -0.2726  0.7844
   34MOL   C56931655   6.424   1.802   1.929 -0.0961  0.3149  0.2210
   34MOL   C57031656   6.394   1.877   2.060 -0.6766 -0.0927 -1.0433
   34MOL   C57131657   6.276   1.821   2.137  0.7264  0.4505 -0.0158
   34MOL   C57231658   6.142   1.841   2.067 -0.2513  1.0483  0.4955
   34MOL   C57331659   6.020   1.789   2.138 -0.3053 -0.1192 -0.4137
   34MOL   C57431660   5.960   1.659   2.082 -0.1233  0.5289 -0.5041
   34MOL   C57531661   6.029   1.527   2.129 -0.3790 -0.3355 -0.2546
   34MOL   C57631662   5.984   1.401   2.057 -0.3217 -0.1911  0.1298
   34MOL   O57731663   5.846   1.397   2.048  0.4681  0.0725 -0.3540
   34MOL   C57831664   5.777   1.319   2.140  1.0407 -0.6927 -0.0311
   34MOL   O57931665   5.834   1.258   2.231 -0.2607  0.5541  0.0300
   34MOL   C58031666   5.628   1.301   2.118  0.3914 -0.2219  0.0878
   34MOL   C58131667   5.556   1.394   2.042 -0.2025  0.1095 -0.6517
   34MOL   C58231668   5.425   1.368   1.993  0.2779  0.0504 -0.1637
   34MOL   C58331669   5.352   1.259   2.043  0.1654  0.6961 -0.6441
   34MOL   C58431670   5.207   1.254   2.013  0.7713 -0.5343 -0.3728
   34MOL   O58531671   5.157   1.333   1.936  0.2960 -0.0388  0.0464
   34MOL   O58631672   5.136   1.172   2.091 -0.1631  0.0510 -0.1774
   34MOL   C58731673   5.417   1.171   2.136 -0.1868  0.4925  0.0947
   34MOL   C58831674   5.556   1.192   2.166 -0.6015 -0.0447 -0.0410
   34MOL   H58931675   6.484   1.597   2.119  1.0449  1.7402  0.0546
   34MOL   H59031676   6.595   1.580   1.993  0.1811 -1.3883  3.1343
   34MOL   H59131677   6.300   1.625   1.931 -0.1387 -0.8186  0.8700
   34MOL   H59231678   6.422   1.616   1.819 -0.5238  0.9514  0.3090
   34MOL   H59331679   6.515   1.842   1.884 -0.3034 -1.6321 -2.0234
   34MOL   H59431680   6.348   1.839   1.860  0.4449  2.1768  0.6018
   34MOL   H59531681   6.385   1.984   2.046  0.9848  0.1236 -0.5781
   34MOL   H59631682   6.483   1.864   2.121 -0.7828 -1.2386 -1.1175
   34MOL   H59731683   6.285   1.713   2.152 -2.1262  0.0861 -0.5524
   34MOL   H59831684   6.268   1.879   2.228 -1.2605 -1.3131  0.9634
   34MOL   H59931685   6.121   1.946   2.048  0.1836  1.1431  0.5316
   34MOL   H60031686   6.140   1.807   1.964 -0.4107  0.0286  0.8267
   34MOL   H60131687   6.015   1.789   2.247 -1.7406 -4.1568 -0.3903
   34MOL   H60231688   5.949   1.863   2.101 -0.4011  1.8242  3.3682
   34MOL   H60331689   5.855   1.661   2.113  0.1982 -1.0807  0.7718
   34MOL   H60431690   5.964   1.661   1.974 -2.2227 -1.0998 -0.6570
   34MOL   H60531691   6.011   1.505   2.234 -0.5478 -0.5530 -0.3288
   34MOL   H60631692   6.135   1.527   2.102 -0.6968 -0.3009 -1.5202
   34MOL   H60731693   6.018   1.316   2.115 -1.0584 -1.7346 -1.6420
   34MOL   H60831694   6.037   1.405   1.961  0.6293 -0.6654  0.6327
   34MOL   H60931695   5.606   1.485   2.013 -0.5734  0.1338 -1.2320
   34MOL   H61031696   5.376   1.441   1.930 -0.1664 -0.9102 -0.9346
   34MOL   H61131697   5.358   1.094   2.184  3.9580 -2.0228  1.3531
   34MOL   H61231698   5.608   1.128   2.236  1.6080  0.2845 -1.3304
   34MOL   O61331699   4.982   1.168   2.069 -0.2004 -0.7119 -0.5526
   34MOL   C61431700   4.930   1.244   2.172  0.5742  0.2177 -0.1214
   34MOL   C61531701   4.964   1.208   2.320  0.2757  0.8195 -0.0232
   34MOL   C61631702   4.933   1.055   2.331 -0.1721 -0.4826  0.1060
   34MOL   C61731703   5.017   0.980   2.433  0.5634 -0.2191 -0.1403
   34MOL   C61831704   4.982   1.009   2.580 -0.3981  0.2086  0.6146
   34MOL   C61931705   4.864   0.936   2.636 -0.3524  0.0973  0.1680
   34MOL   C62031706   4.834   0.965   2.785  0.2357  0.4528  0.0934
   34MOL   C62131707   4.708   0.882   2.824 -0.6239  0.6316  0.3274
   34MOL   C62231708   4.624   0.954   2.930  0.4544 -0.0807 -0.2490
   34MOL   C62331709   4.487   0.889   2.960 -0.0209  0.3102 -0.7547
   34MOL   O62431710   4.414   0.870   2.845 -0.2651 -0.7837 -0.0024
   34MOL   C62531711   4.326   0.760   2.823  0.2021 -0.2076 -0.2779
   34MOL   O62631712   4.310   0.666   2.902  0.5527  0.5567  0.4340
   34MOL   C62731713   4.282   0.754   2.684 -0.2071  0.0619  0.1552
   34MOL   C62831714   4.242   0.634   2.629 -0.4984  0.0119  0.2981
   34MOL   C62931715   4.210   0.627   2.489 -0.3223 -1.1189  0.0413
   34MOL   C63031716   4.220   0.741   2.405 -0.6193  0.7815 -0.3254
   34MOL   C63131717   4.188   0.724   2.257 -0.1685 -0.2064  0.3778
   34MOL   O63231718   4.224   0.808   2.176 -0.1700  0.5714  0.2173
   34MOL   O63331719   4.129   0.600   2.228  0.1390 -0.2534 -0.8686
   34MOL   C63431720   4.270   0.861   2.459 -0.1089  0.1944 -0.5534
   34MOL   C63531721   4.290   0.869   2.599 -0.4165  0.8627  0.0140
   34MOL   H63631722   4.946   1.348   2.147 -0.0573 -0.2328 -2.5304
   34MOL   H63731723   4.821   1.235   2.167  0.7449 -1.9386 -0.7224
   34MOL   H63831724   4.910   1.264   2.396  0.2655  0.9263 -0.1090
   34MOL   H63931725   5.067   1.232   2.345  1.1959 -1.5227 -1.4132
   34MOL   H64031726   4.824   1.043   2.329 -0.2249 -0.1264  0.7782
   34MOL   H64131727   4.967   1.008   2.239  3.2638  2.7666 -0.3797
   34MOL   H64231728   5.120   0.991   2.399  0.2318  3.1387 -0.2898
   34MOL   H64331729   4.998   0.874   2.421 -1.5269  0.2342 -0.9981
   34MOL   H64431730   5.071   0.989   2.639 -0.3076  0.0987  0.4383
   34MOL   H64531731   4.976   1.117   2.595  2.8841  0.7152 -1.2728
   34MOL   H64631732   4.788   0.975   2.567 -0.0678  2.1512  0.9619
   34MOL   H64731733   4.870   0.828   2.622  0.1532  0.5809 -3.7786
   34MOL   H64831734   4.919   0.932   2.845  0.0838 -0.9929 -0.4617
   34MOL   H64931735   4.822   1.071   2.809 -1.1892  0.4362 -0.4732
   34MOL   H65031736   4.650   0.866   2.733  0.7810 -3.4718  0.0303
   34MOL   H65131737   4.743   0.785   2.860 -2.2781 -1.1420 -2.6316
   34MOL   H65231738   4.602   1.057   2.900  0.5365  0.4033  1.2966
   34MOL   H65331739   4.684   0.962   3.021  0.5162 -0.8606 -0.2196
   34MOL   H65431740   4.421   0.940   3.031 -1.1737 -2.2966  0.1056
   34MOL   H65531741   4.506   0.787   2.994 -1.2429  0.2927 -0.0946
   34MOL   H65631742   4.225   0.547   2.692  0.7799 -0.7681 -0.4125
   34MOL   H65731743   4.177   0.530   2.456 -0.4979 -1.0129 -0.0980
   34MOL   H65831744   4.286   0.947   2.397 -0.0209 -0.4111 -1.3786
   34MOL   H65931745   4.332   0.962   2.632  0.6403 -0.0585  1.2979
   34MOL   O66031746   4.138   0.569   2.086  0.4255 -0.3901  0.1932
   34MOL   C66131747   4.218   0.450   2.068 -0.2239  0.5124  0.2108
   34MOL   C66231748   4.368   0.470   2.116 -0.9981 -0.8613 -0.0047
   34MOL   C66331749   4.407   0.378   2.244 -0.1042 -0.6794  0.8505
   34MOL   C66431750   4.562   0.361   2.264  1.0364  0.0744  1.0031
   34MOL   C66531751   4.587   0.259   2.384  0.1915 -0.1202  0.5322
   34MOL   C66631752   4.735   0.202   2.392  0.4276  0.1940 -0.2170
   34MOL   C66731753   4.756   0.092   2.285  0.3823  0.1177 -0.9694
   34MOL   C66831754   4.906   0.059   2.288 -0.0017  0.6404 -0.2175
   34MOL   C66931755   5.005   0.153   2.225 -0.7351 -0.4840  0.0694
   34MOL   C67031756   5.020   0.148   2.066 -0.7468 -0.3815 -0.0922
   34MOL   O67131757   4.924   0.230   2.007 -0.4725 -0.1796  0.3439
   34MOL   C67231758   4.869   0.211   1.882 -0.3350 -0.3466  0.4105
   34MOL   O67331759   4.901   0.113   1.808  0.3586 -0.8139  0.0035
   34MOL   C67431760   4.753   0.300   1.857 -0.1322 -0.2952 -0.0940
   34MOL   C67531761   4.677   0.290   1.740  0.0573 -0.2451 -0.5969
   34MOL   C67631762   4.577   0.378   1.709  0.5510  0.1828  0.4839
   34MOL   C67731763   4.571   0.495   1.784 -0.7940  0.4556 -0.3290
   34MOL   C67831764   4.474   0.598   1.748  0.6099 -0.4984 -0.6618
   34MOL   O67931765   4.421   0.605   1.637 -0.4037  0.2444 -0.2220
   34MOL   O68031766   4.457   0.698   1.843  0.0971  0.6477  0.3887
   34MOL   C68131767   4.650   0.507   1.902 -0.2290  0.4949 -0.8031
   34MOL   C68231768   4.733   0.407   1.944 -0.3747 -0.0862 -0.6285
   34MOL   H68331769   4.173   0.373   2.131 -1.1689  1.4162  0.6665
   34MOL   H68431770   4.211   0.423   1.963  2.5023 -3.3289  0.9143
   34MOL   H68531771   4.382   0.579   2.118  3.8353 -1.4051  2.3110
   34MOL   H68631772   4.433   0.424   2.042 -1.8697 -0.7460 -0.8448
   34MOL   H68731773   4.374   0.428   2.335  1.8495  1.9706  0.1523
   34MOL   H68831774   4.367   0.278   2.227  1.3549 -1.4112  1.6706
   34MOL   H68931775   4.611   0.454   2.295  0.1460  0.4353  1.3629
   34MOL   H69031776   4.605   0.323   2.172 -3.3886 -1.0308 -0.7234
   34MOL   H69131777   4.563   0.305   2.480  0.5012  2.5368 -0.6327
   34MOL   H69231778   4.516   0.177   2.380  1.6940 -1.3537 -1.2749
   34MOL   H69331779   4.807   0.284   2.404  2.0976 -1.6484  3.1753
   34MOL   H69431780   4.753   0.156   2.489  0.2045 -1.1033 -0.7809
   34MOL   H69531781   4.704   7.977   2.308 -0.6725  0.8068 -0.4794
   34MOL   H69631782   4.727   0.113   2.182  0.2778 -0.3253 -1.0310
   34MOL   H69731783   4.923   0.046   2.395 -1.2889  2.3668  0.2280
   34MOL   H69831784   4.922   7.940   2.243 -1.7682  0.3659 -0.3042
   34MOL   H69931785   5.106   0.128   2.257 -1.4538 -0.9189  2.0513
   34MOL   H70031786   4.990   0.253   2.267  0.4742 -1.2450  2.3890
   34MOL   H70131787   4.983   0.052   2.030 -0.6285 -0.5278  0.1666
   34MOL   H70231788   5.116   0.181   2.026  0.0947 -1.2803  1.1156
   34MOL   H70331789   4.687   0.198   1.684 -1.0467 -0.4969 -0.4055
   34MOL   H70431790   4.515   0.365   1.621 -0.1464 -0.8004  1.1090
   34MOL   H70531791   4.659   0.599   1.958 -0.7942 -0.0695  0.2292
   34MOL   H70631792   4.789   0.429   2.033 -1.9010  0.5027  0.1976
   34MOL   O70731793   4.374   0.817   1.803  0.6833 -0.5723 -0.2904
   34MOL   C70831794   4.244   0.809   1.853  0.1016  0.3243  1.0509
   34MOL   C70931795   4.164   0.895   1.757  0.0653  0.0530 -0.3722
   34MOL   C71031796   4.013   0.874   1.789 -0.7364 -0.3552  0.6342
   34MOL   C71131797   3.926   0.965   1.698  0.4298 -1.0922  0.0247
   34MOL   C71231798   3.927   0.928   1.547 -0.6404  0.0402 -0.3984
   34MOL   C71331799   3.848   1.008   1.457  0.5927  0.0810  0.0620
   34MOL   C71431800   3.773   0.937   1.341  0.4084  0.0853  0.1298
   34MOL   C71531801   3.694   1.031   1.254  0.1495  0.2045  0.0682
   34MOL   C71631802   3.662   0.975   1.114  0.2682  0.3043 -0.3803
   34MOL   C71731803   3.592   1.080   1.027 -0.0496  0.2991  0.0469
   34MOL   O71831804   3.580   1.040   0.894  0.1406 -0.2112  0.6462
   34MOL   C71931805   3.486   1.094   0.819 -0.7465  0.1169 -0.1415
   34MOL   O72031806   3.412   1.182   0.854 -0.1052 -0.3408 -0.6100
   34MOL   C72131807   3.479   1.044   0.680  0.8605  0.5028 -0.0714
   34MOL   C72231808   3.414   1.117   0.577  0.5173 -0.1674 -0.2223
   34MOL   C72331809   3.434   1.076   0.443  0.6012 -1.0663 -0.3108
   34MOL   C72431810   3.506   0.962   0.411 -0.3147 -0.3721 -0.5651
   34MOL   C72531811   3.525   0.915   0.270 -0.1331 -0.3605 -0.3530
   34MOL   O72631812   3.597   0.828   0.237 -0.3393 -0.0784  0.7705
   34MOL   O72731813   3.466   0.983   0.183  0.2171 -0.4337 -0.2548
   34MOL   C72831814   3.567   0.888   0.511  0.4987  0.2377  0.5328
   34MOL   C72931815   3.540   0.922   0.647  0.4380  0.3430 -0.3712
   34MOL   H73031816   4.214   0.705   1.857  3.2045 -0.7777 -1.6398
   34MOL   H73131817   4.235   0.866   1.945 -1.3363 -0.8813  1.6661
   34MOL   H73231818   4.179   0.852   1.658  0.9057 -0.4721 -0.0209
   34MOL   H73331819   4.200   0.998   1.766 -0.8468  0.2161  1.5498
   34MOL   H73431820   3.986   0.769   1.776 -1.9225 -0.0138  0.2338
   34MOL   H73531821   3.992   0.896   1.894  5.1271  0.7496  1.7558
   34MOL   H73631822   3.960   1.069   1.699 -0.9816 -0.6044 -0.9561
   34MOL   H73731823   3.827   0.971   1.743  2.2601  1.7334  4.0254
   34MOL   H73831824   4.031   0.930   1.512 -0.4781 -1.0680  0.0286
   34MOL   H73931825   3.898   0.825   1.527 -0.8174  0.5546 -3.0130
   34MOL   H74031826   3.770   1.058   1.516  0.0796 -2.3847  1.5129
   34MOL   H74131827   3.906   1.092   1.418 -1.1190  0.3687 -1.9811
   34MOL   H74231828   3.850   0.873   1.299  1.4966  1.3550  0.1553
   34MOL   H74331829   3.701   0.867   1.384 -0.3841  0.2716 -0.8835
   34MOL   H74431830   3.599   1.062   1.297 -1.0112  0.2205 -2.4448
   34MOL   H74531831   3.749   1.122   1.227  0.5892 -0.0101  0.2327
   34MOL   H74631832   3.590   0.896   1.132  0.1000  0.2676 -1.2084
   34MOL   H74731833   3.750   0.938   1.061  1.0573  1.2591  0.2166
   34MOL   H74831834   3.657   1.168   1.031  0.1659  0.1311  0.2142
   34MOL   H74931835   3.494   1.096   1.071 -1.0667 -2.1684 -1.2300
   34MOL   H75031836   3.366   1.210   0.600  0.9859 -0.1435  0.6490
   34MOL   H75131837   3.394   1.145   0.371  3.8665 -0.0622 -1.2294
   34MOL   H75231838   3.627   0.803   0.484  1.1159  1.0649 -0.7460
   34MOL   H75331839   3.585   0.868   0.729  1.5339 -0.0534 -1.2213
   34MOL   O75431840   3.522   0.962   0.044  0.0388 -0.3828 -0.0732
   34MOL   C75531841   3.439   0.881   7.944  0.2904  0.0749  0.3429
   34MOL   C75631842   3.495   0.821   7.810 -0.3499  0.2557  0.5158
   34MOL   C75731843   3.547   0.933   7.712 -0.1975  0.7270  0.7780
   34MOL   C75831844   3.628   0.872   7.597 -0.0027 -0.1124  0.3835
   34MOL   C75931845   3.635   0.976   7.478  0.5873 -0.7114 -0.6630
   34MOL   C76031846   3.680   0.917   7.338  0.1294  0.1750 -0.3231
   34MOL   C76131847   3.697   1.026   7.236 -0.1459 -0.0228  0.9340
   34MOL   C76231848   3.755   0.980   7.098  0.0815  0.0896 -0.8091
   34MOL   C76331849   3.879   1.046   7.049 -0.8602  0.5357  0.4079
   34MOL   C76431850   4.011   1.014   7.121  0.6269 -0.2245  0.2237
   34MOL   O76531851   4.009   1.072   7.248  0.1497 -0.9882 -0.4339
   34MOL   C76631852   4.040   0.999   7.354  0.4677  0.9366 -0.0210
   34MOL   O76731853   4.072   0.882   7.358 -0.0777 -0.1029  0.3953
   34MOL   C76831854   4.013   1.078   7.476 -0.0177 -0.6502 -0.3385
   34MOL   C76931855   3.987   1.213   7.467  0.4349  0.4232  0.0806
   34MOL   C77031856   3.954   1.286   7.585  0.5447 -0.1377  0.3554
   34MOL   C77131857   3.939   1.218   7.708 -0.8252  0.0549 -0.3587
   34MOL   C77231858   3.893   1.294   7.824 -0.3610  0.2106  1.3413
   34MOL   O77331859   3.904   1.416   7.834 -0.4517 -0.0337  0.3517
   34MOL   O77431860   3.841   1.214   7.926  0.3306 -0.1533  0.5344
   34MOL   C77531861   3.961   1.078   7.715 -0.1682 -0.0742  0.3350
   34MOL   C77631862   4.004   1.008   7.599  0.2877  0.5846 -0.3384
   34MOL   H77731863   3.395   0.800   0.025  0.2109 -0.1947 -0.0857
   34MOL   H77831864   3.349   0.938   7.920  0.3893 -1.5193 -4.2689
   34MOL   H77931865   3.431   0.757   7.749 -0.6908  1.7101 -0.6836
   34MOL   H78031866   3.573   0.749   7.832 -1.3637 -0.6484  1.2262
   34MOL   H78131867   3.474   1.005   7.675  0.3417  0.2798 -1.2408
   34MOL   H78231868   3.614   0.991   7.774  0.3052  0.6364  0.3246
   34MOL   H78331869   3.578   0.784   7.555 -0.3785 -0.5557  1.7329
   34MOL   H78431870   3.730   0.851   7.629  0.9806  1.5682 -1.5386
   34MOL   H78531871   3.536   1.021   7.471  0.7208 -0.3250 -0.1145
   34MOL   H78631872   3.700   1.059   7.505  1.1135 -1.6050  0.8751
   34MOL   H78731873   3.770   0.857   7.345 -0.9413 -1.3984  0.4045
   34MOL   H78831874   3.606   0.841   7.309  1.2099 -0.9461 -0.1687
   34MOL   H78931875   3.602   1.074   7.215 -0.1910 -0.5490 -0.1266
   34MOL   H79031876   3.752   1.112   7.275 -0.7422  0.4832  0.6758
   34MOL   H79131877   3.774   0.873   7.090 -2.2872 -0.3747 -0.3773
   34MOL   H79231878   3.670   0.989   7.030 -0.2340  1.7041 -0.2150
   34MOL   H79331879   3.873   1.155   7.049  1.4163  0.6727 -0.0113
   34MOL   H79431880   3.888   1.024   6.943  1.5054  1.4942  0.3820
   34MOL   H79531881   4.097   1.050   7.065 -1.1066  0.2186 -2.2035
   34MOL   H79631882   4.024   0.905   7.118  1.0904 -0.1494 -0.7230
   34MOL   H79731883   3.983   1.266   7.373  0.4838 -0.3565 -0.3732
   34MOL   H79831884   3.930   1.390   7.595  0.9320 -0.2110  2.1118
   34MOL   H79931885   3.943   1.017   7.803 -0.4609  0.5799  0.7305
   34MOL   H80031886   4.007   0.900   7.595  0.5567  0.5701  0.1911
   34MOL   O80131887   3.780   1.289   0.056 -0.2362  0.5044  0.3626
   34MOL   C80231888   3.645   1.309   0.022  0.1675 -0.2739 -1.1125
   34MOL   C80331889   3.562   1.359   0.144 -0.1139 -0.2137  0.6420
   34MOL   C80431890   3.582   1.512   0.182  0.0795 -0.0522 -0.4397
   34MOL   C80531891   3.505   1.559   0.303 -0.3937  0.4079 -0.5063
   34MOL   C80631892   3.568   1.515   0.434  0.1583  0.9647 -0.6798
   34MOL   C80731893   3.492   1.566   0.560 -0.0442  0.4446 -0.5046
   34MOL   C80831894   3.564   1.518   0.696  0.2528 -0.6303  0.3102
   34MOL   C80931895   3.469   1.514   0.807 -0.1719 -0.2185 -0.2806
   34MOL   C81031896   3.540   1.469   0.940 -0.0595  0.3365  0.1114
   34MOL   C81131897   3.453   1.423   1.058  0.1741 -0.1395  0.3243
   34MOL   O81231898   3.545   1.411   1.164 -0.2038 -0.1839 -1.0407
   34MOL   C81331899   3.512   1.351   1.273  0.3115  0.2486 -0.2910
   34MOL   O81431900   3.400   1.293   1.295  0.4720  0.0209 -0.0968
   34MOL   C81531901   3.615   1.365   1.380  0.1120  0.7516 -0.4474
   34MOL   C81631902   3.602   1.290   1.495  0.6097  0.7101  0.0369
   34MOL   C81731903   3.704   1.285   1.590  0.5045 -0.8445 -0.1624
   34MOL   C81831904   3.817   1.369   1.572 -0.2326  0.4016  0.3962
   34MOL   C81931905   3.928   1.359   1.676 -0.2332  0.1148  0.4988
   34MOL   O82031906   3.924   1.303   1.785  0.0534 -0.4165 -0.3237
   34MOL   O82131907   4.042   1.420   1.630  0.3073 -0.1578 -0.9172
   34MOL   C82231908   3.834   1.453   1.455 -0.3776 -0.3455 -0.2049
   34MOL   C82331909   3.727   1.450   1.361  0.8793 -0.2450 -0.2677
   34MOL   H82431910   3.656   1.387   7.925  0.2250  1.0655  0.2593
   34MOL   H82531911   3.587   1.224   7.964 -1.4597 -1.1753  3.2655
   34MOL   H82631912   3.581   1.295   0.229 -0.3081  1.1102  1.6991
   34MOL   H82731913   3.455   1.351   0.125 -0.2094 -1.3111  1.5858
   34MOL   H82831914   3.690   1.522   0.194  0.0131 -0.7541  0.7628
   34MOL   H82931915   3.566   1.576   0.095  1.9592  2.9903  1.3612
   34MOL   H83031916   3.402   1.525   0.299  0.0149 -0.8472 -0.7286
   34MOL   H83131917   3.515   1.667   0.307  1.4599  0.1933  1.7155
   34MOL   H83231918   3.568   1.406   0.445 -1.8719  1.2162  2.4107
   34MOL   H83331919   3.673   1.543   0.440  0.6958 -1.1638  0.2608
   34MOL   H83431920   3.488   1.674   0.550  0.7755  0.6540  1.2108
   34MOL   H83531921   3.391   1.527   0.562 -0.0413  0.4890  0.8031
   34MOL   H83631922   3.616   1.423   0.687 -1.5115 -1.6810  1.0385
   34MOL   H83731923   3.645   1.588   0.714  0.3092 -0.3050 -1.1207
   34MOL   H83831924   3.432   1.616   0.822 -1.0636 -0.5483 -0.2258
   34MOL   H83931925   3.390   1.445   0.777  1.3344 -1.5487 -1.2291
   34MOL   H84031926   3.603   1.548   0.980  1.2282 -0.1616 -0.8871
   34MOL   H84131927   3.604   1.384   0.916  0.3354  0.2410  1.4671
   34MOL   H84231928   3.402   1.328   1.046  0.4260 -0.3255  0.7065
   34MOL   H84331929   3.385   1.505   1.079 -0.9077 -0.6661 -1.1380
   34MOL   H84431930   3.515   1.228   1.508  1.0757 -0.8459 -3.4651
   34MOL   H84531931   3.700   1.215   1.672  1.3374 -0.7321 -0.0258
   34MOL   H84631932   3.932   1.498   1.443 -0.3520 -0.4559 -0.4190
   34MOL   H84731933   3.750   1.500   1.267  0.5844 -1.9087 -1.2516
   34MOL   O84831934   4.147   1.440   1.733 -0.6744 -0.5991  0.5011
   34MOL   C84931935   4.225   1.323   1.730 -0.5201  0.2105  0.3796
   34MOL   C85031936   4.361   1.354   1.798  0.3016 -0.4545  0.1560
   34MOL   C85131937   4.329   1.400   1.943  0.5637  0.0006 -0.0834
   34MOL   C85231938   4.446   1.454   2.031  0.1792  0.0538 -0.3326
   34MOL   C85331939   4.422   1.436   2.183 -0.1037 -0.2644  0.5416
   34MOL   C85431940   4.443   1.290   2.226 -0.0955 -0.3326 -0.0739
   34MOL   C85531941   4.452   1.284   2.373 -0.7448  0.0925 -0.5823
   34MOL   C85631942   4.530   1.166   2.438  0.0803 -0.5707 -0.3537
   34MOL   C85731943   4.540   1.172   2.593 -0.0670 -1.1483  0.4496
   34MOL   C85831944   4.676   1.248   2.628  0.5802  0.3639  0.0483
   34MOL   O85931945   4.694   1.377   2.571  0.0263 -0.3555  0.0652
   34MOL   C86031946   4.802   1.443   2.606  0.1077 -0.3461 -0.0130
   34MOL   O86131947   4.870   1.407   2.701 -0.1518  0.2641 -0.1663
   34MOL   C86231948   4.818   1.566   2.528  0.1243 -0.4340 -0.5152
   34MOL   C86331949   4.799   1.565   2.387  0.0175  0.2424 -0.5509
   34MOL   C86431950   4.816   1.687   2.319  0.0558 -0.2223 -0.0257
   34MOL   C86531951   4.860   1.805   2.386 -0.6754 -0.6226  0.1857
   34MOL   C86631952   4.882   1.937   2.320  0.0570  0.7214 -0.0403
   34MOL   O86731953   4.926   2.032   2.378 -0.0988 -0.0087  0.2154
   34MOL   O86831954   4.851   1.936   2.188 -0.0938  0.0004  0.5457
   34MOL   C86931955   4.896   1.800   2.524 -0.4185  0.0930  0.0906
   34MOL   C87031956   4.868   1.682   2.596 -0.4160  0.3329 -0.2961
   34MOL   H87131957   4.179   1.235   1.775 -0.7759 -0.5473 -1.3283
   34MOL   H87231958   4.237   1.291   1.627 -1.4997 -1.4598  0.7643
   34MOL   H87331959   4.410   1.432   1.740  0.1218 -0.3699  0.1154
   34MOL   H87431960   4.432   1.272   1.788  0.5486 -0.4102  1.5132
   34MOL   H87531961   4.247   1.472   1.945  1.5362  1.1090  0.3853
   34MOL   H87631962   4.280   1.318   1.995 -1.4583  0.2763 -1.5007
   34MOL   H87731963   4.458   1.560   2.010  1.8406 -0.3083 -1.2344
   34MOL   H87831964   4.537   1.410   1.990  2.1791  2.4978  1.3597
   34MOL   H87931965   4.496   1.496   2.235 -0.0931  0.5029 -0.3341
   34MOL   H88031966   4.323   1.468   2.215 -0.2758 -0.2150 -0.0292
   34MOL   H88131967   4.366   1.226   2.183 -1.5208  0.6686  0.9375
   34MOL   H88231968   4.542   1.268   2.185 -0.1689 -0.1974 -0.3291
   34MOL   H88331969   4.500   1.375   2.411  1.3973 -0.7441 -1.2031
   34MOL   H88431970   4.349   1.283   2.407 -0.3138 -1.6044  0.7736
   34MOL   H88531971   4.474   1.076   2.416 -1.0201  0.1499 -0.5698
   34MOL   H88631972   4.630   1.168   2.393  0.4565 -3.4336  0.3114
   34MOL   H88731973   4.536   1.074   2.641 -1.6022 -1.4926 -0.3482
   34MOL   H88831974   4.456   1.228   2.634 -0.7148  0.3834 -2.8554
   34MOL   H88931975   4.750   1.181   2.585  0.6694  0.6487 -0.2423
   34MOL   H89031976   4.696   1.247   2.735 -0.0449 -2.3673  0.1528
   34MOL   H89131977   4.757   1.476   2.342 -0.7266  1.4645 -2.3056
   34MOL   H89231978   4.803   1.687   2.212 -0.6116 -0.3277  0.0570
   34MOL   H89331979   4.939   1.886   2.574 -0.8686  0.2865  0.1407
   34MOL   H89431980   4.884   1.680   2.703 -1.3806  1.3893 -0.1222
   34MOL   O89531981   4.865   2.074   2.131  0.5831  0.3618  0.4862
   34MOL   C89631982   4.980   2.076   2.044  0.5641  0.8660 -0.2019
   34MOL   C89731983   4.964   2.022   1.905 -0.7116  0.3630 -0.1859
   34MOL   C89831984   4.872   2.103   1.810  0.5536  0.1957  0.6412
   34MOL   C89931985   4.879   2.048   1.661  0.7088 -0.1784 -0.8877
   34MOL   C90031986   4.768   2.098   1.575  0.1261 -0.0479 -0.1349
   34MOL   C90131987   4.778   2.051   1.425  0.2037  0.6142  0.0825
   34MOL   C90231988   4.669   2.119   1.349 -0.1664 -0.2795  0.9291
   34MOL   C90331989   4.660   2.110   1.193 -0.0343  0.7193 -0.0407
   34MOL   C90431990   4.640   1.968   1.161  0.0870  0.0277 -0.5268
   34MOL   C90531991   4.644   1.955   1.006 -0.3037  0.2544  0.0205
   34MOL   O90631992   4.645   1.819   0.970 -0.4815 -0.2190  0.7649
   34MOL   C90731993   4.533   1.743   0.970 -0.2511  0.0222  0.4375
   34MOL   O90831994   4.425   1.787   1.009  0.0077  0.0036  0.4249
   34MOL   C90931995   4.556   1.604   0.934  0.8023  0.0548  0.4408
   34MOL   C91031996   4.451   1.519   0.912  0.3388  0.0020  0.0528
   34MOL   C91131997   4.480   1.388   0.880 -1.0162  0.0580 -0.4321
   34MOL   C91231998   4.613   1.336   0.872 -0.1924  0.2061  0.2695
   34MOL   C91331999   4.633   1.187   0.842 -0.5015 -0.3818 -0.1194
   34MOL   O91432000   4.542   1.108   0.813 -0.4156 -0.2211 -0.3553
   34MOL   O91532001   4.762   1.149   0.864 -0.7752 -0.1409 -0.0872
   34MOL   C91632002   4.721   1.428   0.896  0.1623  0.2734 -0.0657
   34MOL   C91732003   4.692   1.558   0.929  0.2316  0.7115 -0.9076
   34MOL   H91832004   5.010   2.179   2.026 -0.0804  1.3184  1.2692
   34MOL   H91932005   5.066   2.030   2.094  2.5327  0.8752 -3.4236
   34MOL   H92032006   4.923   1.921   1.912  3.0233 -1.2037  0.0739
   34MOL   H92132007   5.064   2.019   1.861 -0.6055 -0.5638  0.0971
   34MOL   H92232008   4.768   2.093   1.840 -0.2266  0.1518 -1.8877
   34MOL   H92332009   4.895   2.209   1.819 -2.3562  0.9362 -0.1309
   34MOL   H92432010   4.875   1.939   1.664  1.0465 -0.1694  0.3174
   34MOL   H92532011   4.977   2.072   1.619  0.8474 -4.2225 -3.0580
   34MOL   H92632012   4.678   2.070   1.631  1.1601  0.0924  1.6551
   34MOL   H92732013   4.776   2.207   1.575 -1.1887  0.0658  0.7404
   34MOL   H92832014   4.876   2.078   1.386  0.2146  1.3394  0.5998
   34MOL   H92932015   4.764   1.943   1.424 -1.6958  0.8514 -1.1077
   34MOL   H93032016   4.575   2.090   1.395 -0.2607 -1.1585  0.1949
   34MOL   H93132017   4.671   2.225   1.374  0.1347  0.3497 -1.5820
   34MOL   H93232018   4.579   2.171   1.154 -2.5498 -3.1061 -1.0957
   34MOL   H93332019   4.749   2.142   1.137 -1.1864 -2.3771 -3.8974
   34MOL   H93432020   4.544   1.928   1.196  0.9266 -0.5262  1.1796
   34MOL   H93532021   4.711   1.894   1.199 -1.4201 -1.2737 -0.1786
   34MOL   H93632022   4.726   2.012   0.961 -0.8148 -0.1651 -1.4690
   34MOL   H93732023   4.558   2.002   0.959  1.1927  1.0838 -1.9790
   34MOL   H93832024   4.352   1.561   0.919 -0.3804 -0.9396 -3.7161
   34MOL   H93932025   4.400   1.320   0.856 -0.1534 -1.9721  2.0893
   34MOL   H94032026   4.824   1.397   0.884  0.1673 -0.9511  2.8429
   34MOL   H94132027   4.778   1.623   0.938  0.8049  0.1418 -2.2234
   34MOL   H94232028   4.784   1.058   0.864 -0.7530 -0.1376 -0.7235
   35MOL     O132029   6.751   4.980   3.441 -0.5524 -0.7797 -0.4853
   35MOL     C232030   6.804   4.897   3.343 -0.1220  0.6138  0.1374
   35MOL     C332031   6.940   4.834   3.382  0.9237  0.6928  1.1412
   35MOL     C432032   7.018   4.765   3.268 -0.1153  0.6873 -0.1484
   35MOL     C532033   7.159   4.718   3.319  0.3894 -0.2831  1.0504
   35MOL     C632034   7.260   4.841   3.349  0.0755  0.4255  0.0481
   35MOL     C732035   7.404   4.804   3.317 -0.2200 -0.4672 -0.6140
   35MOL     C832036   7.500   4.918   3.324  0.4790 -0.4964  0.3791
   35MOL     C932037   7.501   4.989   3.459 -0.7837  0.3687  0.6838
   35MOL    C1032038   7.602   5.099   3.470  0.4932 -0.4406  0.1273
   35MOL    C1132039   7.607   5.154   3.615  0.5255  0.0979  0.1516
   35MOL    O1232040   7.722   5.229   3.632  0.0810 -0.6379  0.1692
   35MOL    C1332041   7.738   5.321   3.731 -0.5520 -0.3668  0.2575
   35MOL    O1432042   7.670   5.336   3.832  0.3830 -0.3624 -0.5668
   35MOL    C1532043   7.868   5.393   3.715  0.3023  0.1057 -0.0027
   35MOL    C1632044   7.915   5.489   3.807  0.1822  0.2631  0.1270
   35MOL    C1732045   0.057   5.555   3.792  0.3248 -0.1879 -0.0746
   35MOL    C1832046   0.139   5.519   3.687  0.2162 -0.1022 -0.2981
   35MOL    C1932047   0.275   5.584   3.680  0.1413  0.2574 -0.0363
   35MOL    O2032048   0.361   5.529   3.611 -0.2644 -0.4369 -0.0927
   35MOL    O2132049   0.296   5.679   3.769 -0.4463 -0.5625 -0.1542
   35MOL    C2232050   0.103   5.422   3.595 -0.3650 -0.1132  0.0383
   35MOL    C2332051   7.957   5.357   3.610  0.3286 -0.2071  0.4538
   35MOL    H2432052   6.720   4.829   3.328  0.9293 -0.9319  1.1856
   35MOL    H2532053   6.814   4.951   3.248  2.5396  2.6752  1.4913
   35MOL    H2632054   6.920   4.759   3.459 -0.9836  0.3552  0.3436
   35MOL    H2732055   6.999   4.912   3.430  1.5125 -0.1417  1.7864
   35MOL    H2832056   6.958   4.678   3.244 -2.0719  1.5855  1.3387
   35MOL    H2932057   7.029   4.832   3.183 -2.9448 -1.2025 -2.0828
   35MOL    H3032058   7.208   4.671   3.233 -1.5066 -0.2309 -0.0762
   35MOL    H3132059   7.147   4.635   3.388  2.7739  0.4153  2.3823
   35MOL    H3232060   7.221   4.930   3.300 -0.4245  0.1614 -0.0350
   35MOL    H3332061   7.243   4.853   3.456 -0.8987  0.5906 -0.1198
   35MOL    H3432062   7.440   4.724   3.381 -4.0890 -2.4098 -0.7053
   35MOL    H3532063   7.420   4.759   3.219  3.8747 -2.5854  0.9107
   35MOL    H3632064   7.595   4.873   3.296  0.8058 -0.3984  1.2894
   35MOL    H3732065   7.474   4.996   3.253 -1.6143 -0.4788  1.1281
   35MOL    H3832066   7.409   5.035   3.496 -0.4844  2.0399 -0.5959
   35MOL    H3932067   7.518   4.909   3.531 -0.1637 -0.2087 -0.0939
   35MOL    H4032068   7.580   5.184   3.405  2.6731 -1.9352 -2.6399
   35MOL    H4132069   7.703   5.068   3.446  0.5518 -0.0487 -0.1388
   35MOL    H4232070   7.589   5.074   3.688  1.4493  0.1816  0.4789
   35MOL    H4332071   7.522   5.221   3.625 -0.1410 -0.6055 -0.8015
   35MOL    H4432072   7.856   5.515   3.895  0.4779  0.0845  0.3757
   35MOL    H4532073   0.082   5.623   3.872  0.3532 -1.9502  1.4710
   35MOL    H4632074   0.177   5.405   3.519 -1.3383 -2.1217 -0.4797
   35MOL    H4732075   7.931   5.279   3.540 -1.5284  1.0196 -0.2490
   35MOL    H4832076   6.724   4.931   3.517 -0.0736  1.0798  0.9406
   35MOL    O4932077   0.425   5.738   3.777 -0.4898 -0.3913  0.4978
   35MOL    C5032078   0.417   5.863   3.716  0.4385  0.8406 -0.3318
   35MOL    C5132079   0.321   5.958   3.789  0.1007 -0.4452  0.2908
   35MOL    C5232080   0.343   5.957   3.946 -0.2650  0.0406  0.2948
   35MOL    C5332081   0.212   6.008   4.013  0.2844 -0.8097 -0.7533
   35MOL    C5432082   0.176   6.153   3.981 -0.0785 -0.3000  0.0893
   35MOL    C5532083   0.078   6.229   4.072 -0.2773 -0.1784  0.6322
   35MOL    C5632084   0.027   6.358   4.016  0.6669  0.3299  0.2561
   35MOL    C5732085   0.126   6.473   3.995  0.1237  0.5770  0.1319
   35MOL    C5832086   0.066   6.608   3.950 -0.2362  0.3580  0.0684
   35MOL    C5932087   0.183   6.708   3.914  0.4800  0.8298 -0.0172
   35MOL    O6032088   0.255   6.668   3.792  0.0295 -0.3623 -0.2614
   35MOL    C6132089   0.393   6.667   3.786  0.1030 -0.5169 -0.5074
   35MOL    O6232090   0.459   6.667   3.891 -0.2421  0.0600  0.3256
   35MOL    C6332091   0.452   6.680   3.649 -0.1506 -0.2351 -0.2020
   35MOL    C6432092   0.590   6.719   3.635 -0.4565 -0.0053 -0.1020
   35MOL    C6532093   0.642   6.746   3.510 -0.3406 -0.3126  0.3569
   35MOL    C6632094   0.558   6.742   3.395 -0.8251 -0.5754 -0.0388
   35MOL    C6732095   0.612   6.776   3.261  0.3299 -0.5279  0.6279
   35MOL    O6832096   0.540   6.793   3.155  0.3453 -0.1248  0.2131
   35MOL    O6932097   0.748   6.785   3.250 -0.0949  0.1474 -0.3650
   35MOL    C7032098   0.424   6.711   3.412  0.5195 -0.4830  0.1800
   35MOL    C7132099   0.373   6.668   3.533  0.1612  0.1576  0.4456
   35MOL    H7232100   0.517   5.904   3.705  1.1188 -0.1195  1.7900
   35MOL    H7332101   0.390   5.848   3.612  0.8947 -2.3838 -0.0447
   35MOL    H7432102   0.218   5.926   3.769  0.6011 -1.9444  0.0519
   35MOL    H7532103   0.323   6.060   3.750 -0.2614 -0.4192  0.3370
   35MOL    H7632104   0.365   5.859   3.988 -0.4005  0.2722  0.9092
   35MOL    H7732105   0.424   6.023   3.976 -0.5053  0.1917  0.6226
   35MOL    H7832106   0.226   5.999   4.121  0.1891 -0.4969 -0.7146
   35MOL    H7932107   0.126   5.946   3.988  0.0334 -0.0256 -1.8597
   35MOL    H8032108   0.261   6.221   3.987 -1.0188  1.1846 -2.4563
   35MOL    H8132109   0.123   6.168   3.886 -0.2751  2.2251  0.5661
   35MOL    H8232110   7.974   6.158   4.077 -0.9759  0.4963 -1.0200
   35MOL    H8332111   0.113   6.248   4.174 -2.5488  2.0096  1.0487
   35MOL    H8432112   7.949   6.345   3.923  0.0130 -1.7444  0.9152
   35MOL    H8532113   7.925   6.385   4.085 -1.3706  1.6840 -2.5470
   35MOL    H8632114   0.171   6.486   4.093 -0.5655 -0.8907  0.6384
   35MOL    H8732115   0.204   6.437   3.928  1.4044  0.2618  1.7563
   35MOL    H8832116   0.010   6.643   4.037 -0.7622 -2.1467  0.7562
   35MOL    H8932117   0.001   6.603   3.862 -0.3851  0.8506  0.1494
   35MOL    H9032118   0.243   6.712   4.005  1.8106  2.0929 -0.9384
   35MOL    H9132119   0.141   6.806   3.893  2.5766  1.8651  0.4760
   35MOL    H9232120   0.660   6.705   3.716  1.7038 -0.5896 -2.0457
   35MOL    H9332121   0.750   6.755   3.505 -0.1230 -3.0829 -1.7246
   35MOL    H9432122   0.348   6.716   3.336 -1.7125  0.5026  2.3916
   35MOL    H9532123   0.268   6.644   3.536 -0.0446  1.1677  1.8984
   35MOL    O9632124   0.798   6.823   3.116  0.1944  0.2502  0.9863
   35MOL    C9732125   0.835   6.706   3.046  0.6567  0.0820 -0.0877
   35MOL    C9832126   0.882   6.730   2.905  0.3725  0.0951 -0.1381
   35MOL    C9932127   0.969   6.602   2.870 -0.1589  0.2998  0.1984
   35MOL   C10032128   1.012   6.590   2.723  0.0985 -0.3971 -0.2462
   35MOL   C10132129   1.057   6.454   2.674  0.1704 -0.2734 -0.2041
   35MOL   C10232130   1.114   6.447   2.532  0.2920 -0.0699 -0.6050
   35MOL   C10332131   1.240   6.526   2.502 -0.5519 -0.2193 -0.0201
   35MOL   C10432132   1.373   6.456   2.541 -0.5710 -0.1339 -0.6455
   35MOL   C10532133   1.499   6.511   2.483 -0.2237  0.0934 -0.1058
   35MOL   C10632134   1.625   6.434   2.516 -0.3688  0.1203 -0.2317
   35MOL   O10732135   1.640   6.442   2.657 -0.0912  0.2599  0.1629
   35MOL   C10832136   1.725   6.526   2.719 -0.7417  0.3514  0.3057
   35MOL   O10932137   1.812   6.589   2.658  0.0863 -0.0096  0.0151
   35MOL   C11032138   1.700   6.544   2.867 -0.4607 -0.8907  0.2974
   35MOL   C11132139   1.585   6.493   2.922 -0.5472  0.2559 -0.2773
   35MOL   C11232140   1.562   6.502   3.064 -0.0629  0.3404  0.8442
   35MOL   C11332141   1.664   6.567   3.143  0.9267 -0.5677 -0.3008
   35MOL   C11432142   1.653   6.590   3.291 -0.0575 -0.9567  0.5118
   35MOL   O11532143   1.752   6.593   3.366 -0.2973  0.3336  0.2592
   35MOL   O11632144   1.527   6.613   3.332 -0.0891  0.3740  0.5643
   35MOL   C11732145   1.770   6.630   3.081 -0.1289 -0.5577 -0.5263
   35MOL   C11832146   1.788   6.622   2.941 -0.2670  0.1096  0.5219
   35MOL   H11932147   0.916   6.668   3.108 -0.7786 -0.5838  1.4253
   35MOL   H12032148   0.745   6.645   3.045  0.5894  0.1167  1.6368
   35MOL   H12132149   0.951   6.815   2.908  1.0345 -0.3574 -2.0258
   35MOL   H12232150   0.800   6.758   2.839 -0.4511  0.7772  1.1434
   35MOL   H12332151   1.054   6.612   2.937  2.0425  0.1939 -2.4958
   35MOL   H12432152   0.927   6.510   2.911  1.7182 -0.8879 -0.4939
   35MOL   H12532153   1.083   6.668   2.694 -0.2970 -0.1168 -0.4804
   35MOL   H12632154   0.924   6.617   2.664 -0.8731 -2.2363  0.3432
   35MOL   H12732155   1.123   6.407   2.747  0.0953  2.2543  1.5457
   35MOL   H12832156   0.963   6.400   2.688  1.1339 -1.7870  0.6447
   35MOL   H12932157   1.142   6.345   2.507 -1.8847 -0.6267 -0.9144
   35MOL   H13032158   1.039   6.475   2.457  1.4291  2.5730 -0.8061
   35MOL   H13132159   1.242   6.535   2.394  1.4681 -2.0422 -0.1634
   35MOL   H13232160   1.237   6.628   2.540 -1.2870  0.0115 -0.6960
   35MOL   H13332161   1.391   6.451   2.649 -0.9560  0.3322 -0.5582
   35MOL   H13432162   1.379   6.355   2.502 -4.0060 -1.1091  1.1581
   35MOL   H13532163   1.516   6.610   2.525 -0.1844 -0.2485  0.7011
   35MOL   H13632164   1.495   6.512   2.374 -1.3213 -0.4530 -0.0734
   35MOL   H13732165   1.713   6.480   2.471 -0.2469  2.7100  2.4828
   35MOL   H13832166   1.622   6.335   2.470 -0.3060 -0.2592  0.5690
   35MOL   H13932167   1.509   6.441   2.865  0.7734  0.1066 -1.9396
   35MOL   H14032168   1.475   6.455   3.106 -0.4068 -0.7338 -1.0185
   35MOL   H14132169   1.838   6.681   3.147 -1.2226 -0.8959  0.8806
   35MOL   H14232170   1.875   6.671   2.899 -0.8982 -0.0686 -1.0234
   35MOL   O14332171   1.518   6.666   3.472  0.3622  0.4544  0.4698
   35MOL   C14432172   1.483   6.801   3.471  0.0956 -0.1590 -0.0892
   35MOL   C14532173   1.467   6.856   3.613 -0.4648 -0.3128  0.0501
   35MOL   C14632174   1.408   6.997   3.631 -0.1574  0.0433 -0.4435
   35MOL   C14732175   1.490   7.106   3.548 -0.1058 -0.3080 -0.5550
   35MOL   C14832176   1.417   7.143   3.422  0.6318 -0.3948 -0.6892
   35MOL   C14932177   1.478   7.271   3.364  0.1738 -0.5941  0.2901
   35MOL   C15032178   1.468   7.276   3.208 -0.3333  0.2814 -0.4563
   35MOL   C15132179   1.584   7.189   3.154  0.3141  0.1281  0.2474
   35MOL   C15232180   1.613   7.195   3.006  0.5598  1.3001  0.4254
   35MOL   C15332181   1.666   7.328   2.963 -0.3134  0.4557 -0.0886
   35MOL   O15432182   1.706   7.343   2.834 -0.0537  0.9209 -0.2507
   35MOL   C15532183   1.832   7.310   2.800 -0.0994 -0.2780 -0.1020
   35MOL   O15632184   1.919   7.262   2.876 -0.4289  0.0324 -0.2074
   35MOL   C15732185   1.864   7.338   2.654  0.8013 -0.3820  0.1067
   35MOL   C15832186   1.974   7.284   2.588 -0.5349  0.6066  0.1450
   35MOL   C15932187   1.997   7.317   2.451 -0.3212  0.0614  0.1512
   35MOL   C16032188   1.902   7.391   2.383 -0.9434  0.0583 -0.0126
   35MOL   C16132189   1.910   7.426   2.239 -0.3906 -0.8860  0.2986
   35MOL   O16232190   1.813   7.454   2.165 -0.1501  0.0759  0.1223
   35MOL   O16332191   2.037   7.430   2.194  0.3902  0.2091 -0.4705
   35MOL   C16432192   1.795   7.455   2.447  0.6835  0.3122 -0.3472
   35MOL   C16532193   1.774   7.430   2.584  0.4871 -0.5822  0.6246
   35MOL   H16632194   1.557   6.856   3.412 -2.2153  2.0314 -1.0229
   35MOL   H16732195   1.390   6.814   3.417 -0.1821  1.0880  0.6606
   35MOL   H16832196   1.556   6.842   3.675  0.3343  1.6134 -0.6253
   35MOL   H16932197   1.396   6.798   3.672  0.2794  2.0738  3.4276
   35MOL   H17032198   1.304   7.009   3.603 -0.7664 -3.6818 -0.0904
   35MOL   H17132199   1.413   7.039   3.731  1.3028 -2.8445  0.7678
   35MOL   H17232200   1.588   7.062   3.531  0.6236  0.8890  0.4669
   35MOL   H17332201   1.507   7.195   3.608 -1.9275 -0.6551  0.5156
   35MOL   H17432202   1.434   7.057   3.358  1.2548  0.6187 -1.8993
   35MOL   H17532203   1.310   7.145   3.441  0.2776 -2.0766 -2.4213
   35MOL   H17632204   1.437   7.369   3.391 -0.4047 -1.0306  1.0038
   35MOL   H17732205   1.582   7.273   3.396 -0.3621  0.3808  2.0412
   35MOL   H17832206   1.369   7.239   3.182 -0.2150 -1.3142  1.1853
   35MOL   H17932207   1.469   7.376   3.167 -1.6449  1.8741  3.1725
   35MOL   H18032208   1.681   7.211   3.198  0.1169 -0.4160  0.9599
   35MOL   H18132209   1.559   7.084   3.170 -0.0497  0.0833 -0.5555
   35MOL   H18232210   1.528   7.182   2.940  0.6933  0.6721  0.3779
   35MOL   H18332211   1.681   7.112   2.986  1.3943  2.2155 -0.6520
   35MOL   H18432212   1.752   7.352   3.026 -0.8609  0.2307  0.7534
   35MOL   H18532213   1.589   7.402   2.986  1.4327  2.2529  0.1442
   35MOL   H18632214   2.032   7.213   2.645 -1.3618  0.6673  1.0720
   35MOL   H18732215   2.089   7.277   2.412  1.0642  0.9278  2.4094
   35MOL   H18832216   1.734   7.524   2.390 -0.3874 -1.9469 -2.0194
   35MOL   H18932217   1.696   7.487   2.632  0.2387 -0.4776  0.1013
   35MOL   O19032218   2.068   7.420   2.049  0.4530  0.4908 -0.0085
   35MOL   C19132219   2.115   7.550   2.016  0.1500 -0.2264  0.2210
   35MOL   C19232220   2.161   7.567   1.867  0.2699  0.5812  0.6275
   35MOL   C19332221   2.229   7.704   1.847  0.1388  0.8000  0.4282
   35MOL   C19432222   2.266   7.733   1.697 -0.3371  0.9393 -0.1053
   35MOL   C19532223   2.293   7.883   1.677  0.1119 -0.7156  0.3217
   35MOL   C19632224   2.158   7.959   1.659 -0.5775  0.1604 -0.4444
   35MOL   C19732225   2.186   0.116   1.595  1.0372  0.2373 -0.6701
   35MOL   C19832226   2.253   0.216   1.696  0.5687 -0.5029  0.9800
   35MOL   C19932227   2.264   0.364   1.654 -0.4723  0.2132 -0.4154
   35MOL   C20032228   2.127   0.439   1.677 -0.8794  0.2159 -0.2918
   35MOL   O20132229   2.133   0.574   1.636 -0.8942  0.1176 -0.1402
   35MOL   C20232230   2.017   0.643   1.621  0.2571 -0.2218  0.1620
   35MOL   O20332231   1.909   0.601   1.658 -0.1713  0.5288  0.3475
   35MOL   C20432232   2.040   0.779   1.567 -0.0065  0.7638 -0.0657
   35MOL   C20532233   1.932   0.872   1.560  0.2172 -0.0740 -0.1143
   35MOL   C20632234   1.955   0.997   1.505  0.0423  0.4207  0.2106
   35MOL   C20732235   2.078   1.041   1.457  0.1339 -0.0434 -0.4039
   35MOL   C20832236   2.099   1.172   1.394 -0.0264 -0.3189  0.6051
   35MOL   O20932237   2.202   1.204   1.340  0.3399 -1.0379  0.4876
   35MOL   O21032238   1.993   1.244   1.385  0.2453 -0.0848  0.1465
   35MOL   C21132239   2.180   0.941   1.460 -0.4336  0.5303  1.4970
   35MOL   C21232240   2.170   0.813   1.520  0.2221 -0.0151  0.1245
   35MOL   H21332241   2.034   7.620   2.038  0.2436 -0.2223  0.5547
   35MOL   H21432242   2.199   7.575   2.082  1.2875 -0.2777 -1.1949
   35MOL   H21532243   2.066   7.565   1.813  0.9585 -1.4464 -0.5543
   35MOL   H21632244   2.222   7.484   1.833 -0.4166  1.0909 -2.0041
   35MOL   H21732245   2.166   7.782   1.888 -0.6494 -0.7974  2.3759
   35MOL   H21832246   2.320   7.715   1.906  0.3874 -1.2932  0.5020
   35MOL   H21932247   2.187   7.707   1.626 -0.4417  0.3455  0.2210
   35MOL   H22032248   2.357   7.675   1.682 -0.2931  0.5573  1.5794
   35MOL   H22132249   2.356   7.920   1.758  0.7540  3.6049 -1.9919
   35MOL   H22232250   2.340   7.898   1.580 -0.8078  0.0059 -0.0131
   35MOL   H22332251   2.082   7.908   1.599 -0.2772 -0.1146 -0.5889
   35MOL   H22432252   2.094   7.972   1.746  1.2791  0.6517  0.8880
   35MOL   H22532253   2.246   0.107   1.505  0.4362 -2.1031 -0.8740
   35MOL   H22632254   2.087   0.145   1.558  0.8959 -2.1113 -2.2406
   35MOL   H22732255   2.194   0.211   1.787 -0.4776 -0.6462  0.2943
   35MOL   H22832256   2.355   0.181   1.715  1.6536  1.4674 -0.9271
   35MOL   H22932257   2.294   0.377   1.550  0.5741 -1.6459 -0.3589
   35MOL   H23032258   2.347   0.417   1.700  0.5853 -2.0779  0.3647
   35MOL   H23132259   2.091   0.428   1.779 -2.8650  0.2019 -0.9760
   35MOL   H23232260   2.044   0.389   1.627 -1.8013  1.1114  0.3426
   35MOL   H23332261   1.831   0.853   1.595 -0.1762 -1.3010 -1.8016
   35MOL   H23432262   1.864   1.056   1.505 -1.4123 -1.7650 -0.7502
   35MOL   H23532263   2.275   0.967   1.415 -1.3201  0.8644 -0.2026
   35MOL   H23632264   2.252   0.744   1.527  1.1824  1.2310  1.3321
   35MOL   O23732265   2.014   1.382   1.317 -0.2988 -0.0158  0.2601
   35MOL   C23832266   1.990   1.368   1.181  0.6173 -0.1450  0.7772
   35MOL   C23932267   1.842   1.390   1.163  0.0642 -0.3108 -0.5468
   35MOL   C24032268   1.747   1.266   1.175  0.1038  0.9287 -0.1722
   35MOL   C24132269   1.603   1.294   1.200 -0.3643 -0.5458 -0.1799
   35MOL   C24232270   1.510   1.178   1.214  0.2052 -1.3030 -0.5815
   35MOL   C24332271   1.360   1.199   1.218  0.7306  0.2957  0.2417
   35MOL   C24432272   1.306   1.283   1.339 -0.5431 -0.3965  0.7824
   35MOL   C24532273   1.302   1.189   1.458 -0.0473 -0.5244 -0.0872
   35MOL   C24632274   1.249   1.269   1.583  0.2841  0.0456  0.4111
   35MOL   C24732275   1.236   1.179   1.711 -0.1178  0.5742 -0.1962
   35MOL   O24832276   1.368   1.137   1.744 -0.2107  0.0697 -1.1441
   35MOL   C24932277   1.394   1.060   1.851  0.1425 -0.2114 -0.4104
   35MOL   O25032278   1.307   1.013   1.925 -0.0961 -0.1086  0.0169
   35MOL   C25132279   1.534   1.039   1.877 -0.2059 -0.0398 -0.1843
   35MOL   C25232280   1.572   0.964   1.990  0.9797 -0.2028  0.4727
   35MOL   C25332281   1.709   0.943   2.021 -0.3436 -0.3442  0.4179
   35MOL   C25432282   1.811   0.987   1.934 -0.8063  0.0739 -0.3579
   35MOL   C25532283   1.953   0.973   1.971  0.1912 -0.3096 -0.3292
   35MOL   O25632284   1.990   0.882   2.050  0.1711 -0.2392  0.3159
   35MOL   O25732285   2.029   1.058   1.910  0.0689  0.1683  0.2920
   35MOL   C25832286   1.770   1.061   1.821  0.2312  0.5348 -0.1299
   35MOL   C25932287   1.640   1.083   1.792 -0.3415 -0.0906  0.7672
   35MOL   H26032288   2.048   1.442   1.126  0.0127  1.5357  2.3614
   35MOL   H26132289   2.027   1.274   1.140 -0.4746 -0.1676 -0.1820
   35MOL   H26232290   1.830   1.430   1.063  1.0087 -0.3399 -0.6779
   35MOL   H26332291   1.801   1.465   1.230  0.0470 -0.2984 -0.5712
   35MOL   H26432292   1.751   1.216   1.078  0.3591  2.0867 -0.7679
   35MOL   H26532293   1.771   1.194   1.253 -1.6380  0.1625 -0.3281
   35MOL   H26632294   1.571   1.368   1.126  0.8485  0.4757  0.2892
   35MOL   H26732295   1.608   1.344   1.296 -1.6245 -1.6398  0.4698
   35MOL   H26832296   1.528   1.123   1.121 -1.5852  0.8486 -2.2478
   35MOL   H26932297   1.546   1.109   1.291 -3.1788  0.9887  3.2396
   35MOL   H27032298   1.320   1.239   1.125 -0.2582 -1.2910 -0.0287
   35MOL   H27132299   1.310   1.103   1.226 -0.8805  1.1046  0.1425
   35MOL   H27232300   1.369   1.370   1.357 -1.7621  0.9304 -1.1752
   35MOL   H27332301   1.201   1.300   1.316 -0.8044 -2.1122  0.6673
   35MOL   H27432302   1.247   1.099   1.430  1.3878 -1.6902  0.7821
   35MOL   H27532303   1.404   1.156   1.477 -0.0204 -0.1212  0.4828
   35MOL   H27632304   1.151   1.317   1.576  0.8063  0.8456 -1.8573
   35MOL   H27732305   1.314   1.355   1.596 -1.4041  1.5435 -0.7921
   35MOL   H27832306   1.175   1.090   1.699  0.6118 -0.2493  1.9362
   35MOL   H27932307   1.200   1.245   1.791  1.5655  1.4463 -0.1392
   35MOL   H28032308   1.502   0.912   2.052  0.9768  0.9119  1.4206
   35MOL   H28132309   1.729   0.881   2.107  1.1545  1.9351  1.7450
   35MOL   H28232310   1.845   1.100   1.753  2.2154 -0.1785  1.5988
   35MOL   H28332311   1.610   1.130   1.699  0.1856 -2.4711 -0.6445
   35MOL   O28432312   2.171   1.044   1.941 -0.8159 -0.2900  0.0062
   35MOL   C28532313   2.237   0.967   1.847 -0.1025 -0.0299  0.3046
   35MOL   C28632314   2.372   0.918   1.892  1.2332 -0.1450  0.7095
   35MOL   C28732315   2.355   0.815   2.002  0.8214  0.0634 -0.3321
   35MOL   C28832316   2.334   0.671   1.967  0.0979  0.1094  0.1572
   35MOL   C28932317   2.335   0.577   2.086  0.2523 -0.3404  0.4890
   35MOL   C29032318   2.294   0.430   2.039 -0.1906  0.3026  0.4530
   35MOL   C29132319   2.308   0.321   2.144 -0.0621 -0.1237  0.0327
   35MOL   C29232320   2.321   0.169   2.094 -0.3758  0.1912 -0.5129
   35MOL   C29332321   2.347   0.069   2.207 -0.7037  0.5248  0.1287
   35MOL   C29432322   2.322   7.898   2.165  0.0472 -0.2641 -0.4378
   35MOL   O29532323   2.177   7.876   2.154 -0.2135 -0.0440  0.3280
   35MOL   C29632324   2.118   7.805   2.246  0.4616  0.3617 -0.5285
   35MOL   O29732325   2.176   7.722   2.310  0.3104 -0.3751  0.0362
   35MOL   C29832326   1.973   7.836   2.262  0.0437  0.3117 -0.6258
   35MOL   C29932327   1.902   7.776   2.363 -0.6009 -0.2498 -0.0696
   35MOL   C30032328   1.762   7.801   2.372 -0.4800  0.3079  0.3432
   35MOL   C30132329   1.690   7.888   2.280 -0.4834 -0.0693  0.6355
   35MOL   C30232330   1.536   7.902   2.276  0.1435  0.6344  0.1106
   35MOL   O30332331   1.473   7.968   2.190  0.1132  0.0050  0.1695
   35MOL   O30432332   1.480   7.832   2.378  0.4127 -0.0736  0.3362
   35MOL   C30532333   1.768   7.952   2.181 -0.3174  0.1782 -0.3122
   35MOL   C30632334   1.910   7.934   2.178 -0.3361  0.0958 -0.1308
   35MOL   H30732335   2.176   0.879   1.826 -0.9815  1.4618 -3.7628
   35MOL   H30832336   2.246   1.031   1.759 -1.2996 -0.3725 -0.0688
   35MOL   H30932337   2.426   1.007   1.921  1.8455 -0.3657  0.2584
   35MOL   H31032338   2.423   0.873   1.806  0.2041  1.3006 -0.6910
   35MOL   H31132339   2.453   0.812   2.050  0.7051 -0.7871 -0.1227
   35MOL   H31232340   2.287   0.858   2.075 -0.2310  3.1167 -3.0108
   35MOL   H31332341   2.401   0.640   1.887 -1.3451 -1.2174 -0.5397
   35MOL   H31432342   2.240   0.660   1.914 -0.7397 -0.0480  1.6528
   35MOL   H31532343   2.430   0.582   2.139  0.6240 -1.5270 -0.0547
   35MOL   H31632344   2.253   0.616   2.148  0.5596  1.4117 -0.1737
   35MOL   H31732345   2.192   0.443   2.003 -0.7535 -2.4556  0.9196
   35MOL   H31832346   2.348   0.400   1.949 -0.9914 -0.7117  0.2988
   35MOL   H31932347   2.403   0.324   2.198 -0.3753 -2.1061  0.7268
   35MOL   H32032348   2.232   0.327   2.222  1.0744  0.2111  1.1443
   35MOL   H32132349   2.233   0.139   2.038 -0.3061  1.7947 -1.5204
   35MOL   H32232350   2.407   0.169   2.027 -0.3849 -0.7707 -0.5342
   35MOL   H32332351   2.282   0.090   2.291 -1.3945 -0.2911 -0.1895
   35MOL   H32432352   2.450   0.080   2.241 -0.2873 -1.1473 -0.5246
   35MOL   H32532353   2.364   7.835   2.244  1.4649  0.2865 -0.7362
   35MOL   H32632354   2.366   7.876   2.068  0.4314  1.5745 -0.6989
   35MOL   H32732355   1.949   7.714   2.438 -1.0006 -0.3030  0.1376
   35MOL   H32832356   1.704   7.759   2.452 -1.3241  0.5298 -0.1484
   35MOL   H32932357   1.723   0.034   2.103  1.4224  0.4157 -1.1501
   35MOL   H33032358   1.965   0.009   2.103  0.6236  0.2338  0.6666
   35MOL   O33132359   1.335   7.816   2.345  0.9968 -0.3164  0.3087
   35MOL   C33232360   1.304   7.688   2.290 -0.4649 -0.0443  0.6465
   35MOL   C33332361   1.355   7.584   2.387 -0.9766  1.0738 -0.2773
   35MOL   C33432362   1.314   7.618   2.528  0.3414  0.0742  0.6565
   35MOL   C33532363   1.353   7.509   2.625 -0.5504  0.0269  0.7965
   35MOL   C33632364   1.322   7.361   2.597  0.3073  0.3165  0.3895
   35MOL   C33732365   1.177   7.339   2.588 -0.3791  0.0074  0.3405
   35MOL   C33832366   1.141   7.193   2.589 -0.0914 -0.1046 -0.0600
   35MOL   C33932367   1.129   7.118   2.726 -1.3742 -0.5577  0.0548
   35MOL   C34032368   0.999   7.159   2.799  0.5515  0.1005 -0.7226
   35MOL   C34132369   1.001   7.112   2.940 -0.6823 -0.4823  0.2912
   35MOL   O34232370   0.883   7.146   3.013 -0.4087  0.4082  0.0842
   35MOL   C34332371   0.875   7.139   3.147 -0.5505  0.2350  0.0134
   35MOL   O34432372   0.971   7.133   3.228  0.7778 -0.2963  0.3543
   35MOL   C34532373   0.734   7.148   3.194  0.6806 -0.3048 -0.6680
   35MOL   C34632374   0.704   7.122   3.332 -0.5600  0.1345  0.9483
   35MOL   C34732375   0.569   7.133   3.370 -0.9099 -0.4690 -0.0152
   35MOL   C34832376   0.465   7.154   3.280  0.5295  0.7736 -0.4743
   35MOL   C34932377   0.323   7.150   3.334  0.3318  0.3363 -0.4260
   35MOL   O35032378   0.288   7.119   3.449 -0.3695  0.4557  0.5553
   35MOL   O35132379   0.231   7.169   3.245 -0.1197  0.3363 -0.0305
   35MOL   C35232380   0.497   7.190   3.150  0.3543  0.3216  0.4300
   35MOL   C35332381   0.630   7.177   3.107  0.6647  0.5851 -0.2811
   35MOL   H35432382   1.196   7.672   2.284 -0.2194 -1.1220 -1.1564
   35MOL   H35532383   1.338   7.667   2.188  2.5486 -0.4106  1.6947
   35MOL   H35632384   1.460   7.560   2.375 -0.9520  0.9924  0.1175
   35MOL   H35732385   1.302   7.493   2.361 -0.6233  1.7868 -3.8301
   35MOL   H35832386   1.360   7.710   2.564  0.9863  0.2649 -0.6216
   35MOL   H35932387   1.207   7.639   2.533  0.0060 -1.4868  0.1738
   35MOL   H36032388   1.323   7.532   2.728 -2.1151 -1.2687  0.6658
   35MOL   H36132389   1.461   7.515   2.617 -0.7194  0.1760 -1.4499
   35MOL   H36232390   1.379   7.329   2.509  2.4433  0.4425  1.6907
   35MOL   H36332391   1.374   7.296   2.668  0.1255  0.5351  0.7233
   35MOL   H36432392   1.122   7.388   2.669  0.3551  4.0413 -1.4641
   35MOL   H36532393   1.141   7.383   2.495 -0.5605  2.4430  1.5101
   35MOL   H36632394   1.050   7.174   2.533 -0.7141 -1.0469  1.2325
   35MOL   H36732395   1.218   7.135   2.539  0.3815  1.4894 -1.2134
   35MOL   H36832396   1.144   7.011   2.713 -3.1846 -1.1075  2.2740
   35MOL   H36932397   1.221   7.134   2.782 -0.3093  0.3693 -1.8688
   35MOL   H37032398   0.914   7.121   2.742  0.3643  2.4021 -2.0361
   35MOL   H37132399   0.995   7.267   2.813 -2.3609 -0.3016  2.2609
   35MOL   H37232400   1.090   7.151   2.989  1.4493 -2.1646 -2.0363
   35MOL   H37332401   1.011   7.003   2.939 -1.9425 -0.6071 -0.6787
   35MOL   H37432402   0.791   7.097   3.391 -0.7985 -1.2949  0.7058
   35MOL   H37532403   0.542   7.126   3.474  0.2640 -2.6047  0.1751
   35MOL   H37632404   0.426   7.204   3.069  0.5989 -1.4633 -0.1148
   35MOL   H37732405   0.648   7.199   3.003 -1.0994 -0.3674 -0.7981
   35MOL   O37832406   0.088   7.169   3.293 -0.2240 -0.4117  0.4228
   35MOL   C37932407   0.064   7.302   3.343  0.3666  0.1762  0.4176
   35MOL   C38032408   7.893   7.331   3.337 -0.3851  0.1806 -0.2681
   35MOL   C38132409   7.862   7.482   3.382  0.7621 -0.9331 -0.0698
   35MOL   C38232410   7.902   7.596   3.284 -0.2904 -0.5571  0.0646
   35MOL   C38332411   7.842   7.726   3.328 -0.1293  0.1402 -0.1181
   35MOL   C38432412   7.878   7.774   3.473  0.4562  0.7587 -0.0048
   35MOL   C38532413   7.813   7.904   3.503  0.2006 -0.7917  0.1825
   35MOL   C38632414   7.862   0.058   3.434  0.3420  0.4196 -0.9852
   35MOL   C38732415   0.033   0.097   3.478 -0.2126  0.2094  0.5402
   35MOL   C38832416   0.071   0.237   3.426  0.4571 -0.0703  1.0373
   35MOL   O38932417   0.211   0.236   3.411  0.4337 -0.6803 -0.8087
   35MOL   C39032418   0.296   0.293   3.503 -0.0525  0.2874 -0.3649
   35MOL   O39132419   0.262   0.342   3.609  0.1587  0.2339 -0.1283
   35MOL   C39232420   0.432   0.294   3.452  0.2402 -0.0117  0.1623
   35MOL   C39332421   0.459   0.250   3.325  0.2746  0.0457 -0.3723
   35MOL   C39432422   0.591   0.256   3.271  0.0609  1.0865 -0.3202
   35MOL   C39532423   0.697   0.304   3.355  0.6781  0.4622  0.3648
   35MOL   C39632424   0.839   0.298   3.313 -0.3434  0.9933 -0.3279
   35MOL   O39732425   0.929   0.299   3.395 -0.3659  0.2640  0.0294
   35MOL   O39832426   0.861   0.295   3.178 -0.0393 -0.7092  0.3770
   35MOL   C39932427   0.665   0.358   3.480 -0.0586  0.6922  0.5446
   35MOL   C40032428   0.533   0.356   3.526  0.4493 -0.1085 -0.5630
   35MOL   H40132429   0.107   7.297   3.443 -3.2637 -0.2926  2.0221
   35MOL   H40232430   0.125   7.377   3.293  1.0835 -0.9640 -0.4336
   35MOL   H40332431   7.846   7.268   3.413  0.0215  1.1359  0.7780
   35MOL   H40432432   7.857   7.305   3.238  0.8609 -1.0109 -0.4253
   35MOL   H40532433   7.756   7.496   3.405  0.3171  0.0129 -2.5986
   35MOL   H40632434   7.911   7.497   3.479  0.8577  2.9017 -0.6409
   35MOL   H40732435   7.853   7.581   3.187 -0.1184  1.4761 -0.3487
   35MOL   H40832436   0.032   7.599   3.272 -0.2196 -0.3473  0.7286
   35MOL   H40932437   7.877   7.806   3.263 -0.7713  1.6964  1.4346
   35MOL   H41032438   7.734   7.722   3.312  0.1849 -0.5960 -2.2291
   35MOL   H41132439   7.844   7.709   3.554  0.1251  2.9827  1.6803
   35MOL   H41232440   0.009   7.773   3.472  0.4729 -0.0763  1.4039
   35MOL   H41332441   7.706   7.896   3.485  0.0284 -0.6823  1.1574
   35MOL   H41432442   7.820   7.925   3.609  0.0979  2.5972 -0.4133
   35MOL   H41532443   7.862   0.046   3.326 -0.8686  1.2102 -1.0846
   35MOL   H41632444   7.795   0.143   3.449 -2.2993 -1.8711  0.6384
   35MOL   H41732445   0.091   0.015   3.436  1.7707  0.6432  2.3690
   35MOL   H41832446   0.042   0.093   3.587  0.0005  1.2782  0.5612
   35MOL   H41932447   0.031   0.325   3.477  0.5983  0.8802 -0.4414
   35MOL   H42032448   0.024   0.240   3.327 -0.1108 -1.1737  1.2630
   35MOL   H42132449   0.379   0.225   3.257 -0.1381 -2.0147  0.8288
   35MOL   H42232450   0.613   0.217   3.173 -2.4091 -0.3091 -0.3539
   35MOL   H42332451   0.751   0.385   3.541 -0.6520  0.3647  1.5371
   35MOL   H42432452   0.520   0.407   3.620 -0.6381 -0.5055 -0.4875
   35MOL   O42532453   1.002   0.315   3.132  0.3054  0.2082 -0.1499
   35MOL   C42632454   1.064   0.189   3.120  0.2303  0.1622 -0.1269
   35MOL   C42732455   1.203   0.197   3.056 -0.4611  0.5546  0.2915
   35MOL   C42832456   1.311   0.250   3.162 -0.3543 -0.1115  0.1562
   35MOL   C42932457   1.459   0.239   3.106  0.4593 -0.6325 -0.1146
   35MOL   C43032458   1.474   0.318   2.981 -0.3358 -0.2341  0.0849
   35MOL   C43132459   1.621   0.351   2.954  0.5812  0.0940 -0.6825
   35MOL   C43232460   1.642   0.437   2.835  0.3246 -0.1815 -0.4441
   35MOL   C43332461   1.582   0.581   2.846 -0.2299  0.2297  0.7826
   35MOL   C43432462   1.668   0.694   2.900  0.4301  0.1969 -0.0137
   35MOL   C43532463   1.657   0.722   3.052  0.4926 -0.8474 -0.1367
   35MOL   O43632464   1.760   0.795   3.112 -0.2599  0.3693 -0.1964
   35MOL   C43732465   1.852   0.723   3.175 -0.0572 -0.5352  0.1426
   35MOL   O43832466   1.840   0.610   3.215 -1.0206  0.2212 -0.4287
   35MOL   C43932467   1.979   0.795   3.195  0.5688 -0.0927  0.5174
   35MOL   C44032468   2.074   0.752   3.289  0.0543  0.4987  1.2129
   35MOL   C44132469   2.193   0.821   3.312 -0.2802 -0.0474 -0.4403
   35MOL   C44232470   2.228   0.932   3.227 -0.0885  0.4888 -0.5807
   35MOL   C44332471   2.355   1.001   3.252 -0.1318 -0.0773  0.2074
   35MOL   O44432472   2.434   0.962   3.339  0.7244  0.4460  0.4384
   35MOL   O44532473   2.368   1.118   3.182 -0.4079  0.1080  0.1112
   35MOL   C44632474   2.134   0.976   3.131  0.9930  0.5631 -0.5334
   35MOL   C44732475   2.010   0.915   3.120  0.2864  0.4976 -0.1200
   35MOL   H44832476   1.064   0.141   3.218  0.6850  1.5204  0.5538
   35MOL   H44932477   1.005   0.135   3.047  1.6134  0.3043 -1.3928
   35MOL   H45032478   1.195   0.264   2.971  0.1260 -0.4026 -0.5207
   35MOL   H45132479   1.240   0.111   3.001  0.1868  1.7245 -1.1469
   35MOL   H45232480   1.288   0.355   3.181 -2.4597 -0.5134 -0.0142
   35MOL   H45332481   1.296   0.207   3.261 -0.1545  0.7406  0.5601
   35MOL   H45432482   1.484   0.133   3.092  1.3079 -0.4196 -0.2552
   35MOL   H45532483   1.532   0.270   3.180  1.4508 -1.1230 -0.8654
   35MOL   H45632484   1.418   0.274   2.898 -0.5662 -0.4128  0.3360
   35MOL   H45732485   1.434   0.417   3.006  0.9976  0.7073 -1.3630
   35MOL   H45832486   1.657   0.411   3.037 -0.6659  2.3065 -1.6914
   35MOL   H45932487   1.674   0.256   2.959  0.5165  0.1298  0.8374
   35MOL   H46032488   1.749   0.435   2.814  0.0159  1.0332 -2.2657
   35MOL   H46132489   1.591   0.403   2.745  2.1434 -1.3745 -1.0492
   35MOL   H46232490   1.570   0.605   2.740 -0.7404  0.0038  0.7895
   35MOL   H46332491   1.485   0.580   2.896 -1.3928 -2.3756 -1.3624
   35MOL   H46432492   1.652   0.786   2.845  2.7783 -0.0231 -1.1402
   35MOL   H46532493   1.772   0.669   2.877 -0.1040 -1.4591 -0.6783
   35MOL   H46632494   1.656   0.620   3.089  0.7053 -0.4792  0.9092
   35MOL   H46732495   1.559   0.763   3.079 -0.0468 -1.7969 -0.6425
   35MOL   H46832496   2.047   0.670   3.354 -0.1938 -0.2701  0.1580
   35MOL   H46932497   2.257   0.792   3.394 -0.1567 -0.3086 -0.6267
   35MOL   H47032498   2.149   1.066   3.075  2.8775  0.4936 -0.1951
   35MOL   H47132499   1.938   0.961   3.053  2.5613  1.8557 -1.7234
   35MOL   O47232500   2.504   1.182   3.195  0.2049  0.5765  0.0205
   35MOL   C47332501   2.501   1.277   3.298  0.5489 -0.3327  0.1166
   35MOL   C47432502   2.644   1.322   3.329  0.1151  0.3267  0.3962
   35MOL   C47532503   2.719   1.210   3.407 -0.0695  0.3066 -0.4432
   35MOL   C47632504   2.861   1.250   3.421 -0.4770  0.4593 -0.0189
   35MOL   C47732505   2.942   1.139   3.480  0.1257 -0.3304  0.4726
   35MOL   C47832506   3.090   1.171   3.495 -0.0485  0.5755  0.1024
   35MOL   C47932507   3.184   1.075   3.580  0.6636 -0.5121  0.3729
   35MOL   C48032508   3.321   1.136   3.599 -0.1759 -0.4108 -0.3719
   35MOL   C48132509   3.406   1.069   3.710 -0.1282 -0.0973 -0.1639
   35MOL   C48232510   3.434   0.914   3.705  0.1383 -0.1407  0.3486
   35MOL   O48332511   3.310   0.847   3.719 -0.1810  0.2841 -0.0662
   35MOL   C48432512   3.244   0.834   3.841 -1.1244  0.6556 -0.7111
   35MOL   O48532513   3.281   0.888   3.942 -0.2819  0.5182  0.7691
   35MOL   C48632514   3.124   0.749   3.829  0.3604 -0.5831 -0.9200
   35MOL   C48732515   3.054   0.724   3.705 -0.2742  0.3097 -0.0785
   35MOL   C48832516   2.935   0.650   3.696 -0.3666 -0.3381  0.0089
   35MOL   C48932517   2.888   0.586   3.814 -0.2735  0.4994 -0.6163
   35MOL   C49032518   2.767   0.498   3.802 -0.3354  0.0601 -0.5960
   35MOL   O49132519   2.719   0.466   3.696  0.3608 -0.5784  0.0160
   35MOL   O49232520   2.716   0.461   3.916  0.0995  0.0019  0.8414
   35MOL   C49332521   2.957   0.606   3.936 -0.0537  0.6919  0.1816
   35MOL   C49432522   3.076   0.680   3.939  0.8841 -1.0905  0.2777
   35MOL   H49532523   2.439   1.359   3.261  1.3736 -0.5929 -1.9267
   35MOL   H49632524   2.451   1.229   3.382  1.8547  1.1054  1.7401
   35MOL   H49732525   2.640   1.408   3.396  0.5049  0.9448 -0.3619
   35MOL   H49832526   2.697   1.334   3.235 -0.9218  1.3436 -0.0650
   35MOL   H49932527   2.672   1.183   3.501  0.0245 -2.0282 -1.0331
   35MOL   H50032528   2.716   1.126   3.338  0.6495 -1.3168  1.4767
   35MOL   H50132529   2.884   1.338   3.482  2.0824 -1.7136  2.2873
   35MOL   H50232530   2.902   1.277   3.324  0.2620  2.2220  0.7561
   35MOL   H50332531   2.895   1.129   3.578 -3.4151 -0.4932 -1.1583
   35MOL   H50432532   2.932   1.039   3.437 -0.1239 -0.5780  1.0993
   35MOL   H50532533   3.141   1.177   3.399  0.7708 -1.3608  0.3996
   35MOL   H50632534   3.113   1.275   3.517 -0.7441  0.2949  2.2869
   35MOL   H50732535   3.139   1.064   3.678 -1.9651  1.6329 -0.5301
   35MOL   H50832536   3.212   0.981   3.533  0.8887 -0.8115  1.1114
   35MOL   H50932537   3.370   1.147   3.503 -3.2646 -0.7116 -2.0638
   35MOL   H51032538   3.307   1.243   3.618  1.7553 -0.0542 -0.9409
   35MOL   H51132539   3.371   1.100   3.809  0.6017  0.3284 -0.0380
   35MOL   H51232540   3.505   1.114   3.702 -0.0878 -0.1270  0.1444
   35MOL   H51332541   3.500   0.870   3.779  1.7892 -0.9770 -1.5568
   35MOL   H51432542   3.470   0.876   3.609  1.0123  3.7255 -0.9600
   35MOL   H51532543   3.096   0.774   3.620  0.3440  0.1332  0.1203
   35MOL   H51632544   2.890   0.632   3.600 -0.8624 -3.1460  0.7115
   35MOL   H51732545   2.918   0.561   4.027  1.1601  1.7685  1.2645
   35MOL   H51832546   3.120   0.692   4.037  1.6199 -0.7336 -0.0937
   35MOL   O51932547   2.601   0.363   3.898 -0.1587 -0.4004  0.1036
   35MOL   C52032548   2.485   0.442   3.929 -0.1381  0.3796  0.1890
   35MOL   C52132549   2.364   0.360   3.938  0.1659 -0.1074  0.8193
   35MOL   C52232550   2.233   0.429   3.912  0.1275 -0.4675 -0.4264
   35MOL   C52332551   2.110   0.349   3.957 -0.1506  0.1459 -0.0694
   35MOL   C52432552   1.976   0.419   3.921  0.8726 -0.0886 -0.3010
   35MOL   C52532553   1.852   0.324   3.939  0.2627 -0.4372 -0.5808
   35MOL   C52632554   1.713   0.387   3.969 -0.4435 -0.1104 -0.0800
   35MOL   C52732555   1.606   0.268   3.988  0.0736  0.4939  0.4127
   35MOL   C52832556   1.455   0.295   3.953 -0.1528  0.1885  0.1735
   35MOL   C52932557   1.401   0.408   4.041  0.2559 -0.3492  0.4845
   35MOL   O53032558   1.286   0.468   4.001 -0.2639  0.1291 -0.4453
   35MOL   C53132559   1.285   0.585   3.938  0.6669 -0.7855 -0.0767
   35MOL   O53232560   1.389   0.643   3.912 -0.0838 -0.0242 -0.1755
   35MOL   C53332561   1.147   0.646   3.906  0.0339  0.2069  0.9098
   35MOL   C53432562   1.023   0.619   3.980 -0.2871 -0.8334  0.1596
   35MOL   C53532563   0.905   0.686   3.945 -0.1151 -0.1727 -0.8071
   35MOL   C53632564   0.900   0.769   3.831  0.0979 -0.0874 -0.2850
   35MOL   C53732565   0.769   0.831   3.788  0.4472 -0.2311 -0.1696
   35MOL   O53832566   0.671   0.814   3.855  0.0119 -0.1726  0.3254
   35MOL   O53932567   0.775   0.910   3.678 -0.4546 -0.1245  0.0458
   35MOL   C54032568   1.021   0.797   3.759  0.0386  0.1929 -0.6913
   35MOL   C54132569   1.144   0.743   3.801 -0.6240  0.4224 -0.1468
   35MOL   H54232570   2.497   0.504   4.018 -0.1664  0.4055  0.1743
   35MOL   H54332571   2.464   0.519   3.855  1.1036  1.3025  0.7835
   35MOL   H54432572   2.357   0.319   4.038  0.5389  0.0537  0.9126
   35MOL   H54532573   2.374   0.275   3.870 -2.6072 -0.0748  0.2986
   35MOL   H54632574   2.226   0.523   3.966 -0.8075 -0.5905 -0.3228
   35MOL   H54732575   2.242   0.474   3.814  2.8014 -0.2510 -0.1325
   35MOL   H54832576   2.117   0.317   4.061  0.7215  2.6605  0.6958
   35MOL   H54932577   2.115   0.254   3.904  0.7498  0.9007 -1.3806
   35MOL   H55032578   1.968   0.514   3.974 -1.6660 -0.5156  0.1053
   35MOL   H55132579   1.975   0.457   3.819  1.8769  0.5478 -0.0768
   35MOL   H55232580   1.838   0.260   3.851 -1.3711 -2.8177  1.3498
   35MOL   H55332581   1.874   0.259   4.024  0.3757  1.1364  0.6004
   35MOL   H55432582   1.724   0.452   4.056  0.6471 -0.0487 -0.2588
   35MOL   H55532583   1.681   0.441   3.880 -0.5719  1.2808  0.7955
   35MOL   H55632584   1.640   0.180   3.934  2.7927  1.6716  0.0941
   35MOL   H55732585   1.611   0.237   4.092  1.1315  0.4108  0.3420
   35MOL   H55832586   1.393   0.205   3.963  0.9291 -0.5671  0.2209
   35MOL   H55932587   1.438   0.327   3.850 -0.8013  2.7032  1.0331
   35MOL   H56032588   1.490   0.467   4.064  0.3772 -0.6435  0.7678
   35MOL   H56132589   1.374   0.361   4.136 -0.9456 -2.2691 -0.7647
   35MOL   H56232590   1.026   0.550   4.063  0.7677 -1.9890 -0.8111
   35MOL   H56332591   0.812   0.673   3.998 -0.5174 -0.5468 -1.5920
   35MOL   H56432592   1.023   0.872   3.682 -1.6880  0.0368 -0.8910
   35MOL   H56532593   1.237   0.775   3.756 -1.5732  1.3774 -1.4685
   35MOL   O56632594   0.637   0.950   3.634 -0.3068  0.4737  0.3402
   35MOL   C56732595   0.586   0.862   3.531  0.0584  0.2419 -0.5100
   35MOL   C56832596   0.434   0.901   3.525 -0.2673 -0.8097 -0.0298
   35MOL   C56932597   0.340   0.817   3.425  0.3365 -0.1894 -0.7545
   35MOL   C57032598   0.300   0.675   3.465  0.6314  0.3893  0.0514
   35MOL   C57132599   0.197   0.620   3.367  0.3900  0.8475  0.3612
   35MOL   C57232600   0.256   0.556   3.237  0.8963 -0.2996 -0.0535
   35MOL   C57332601   0.154   0.482   3.145 -0.4897 -0.0273 -0.7900
   35MOL   C57432602   0.223   0.430   3.016 -0.4019  0.5295 -0.2888
   35MOL   C57532603   0.121   0.383   2.922 -0.5194 -0.6402 -0.3868
   35MOL   C57632604   0.008   0.290   2.978  0.9815  0.2090 -0.7442
   35MOL   O57732605   0.064   0.167   3.030 -0.1536 -0.1838  0.0454
   35MOL   C57832606   0.070   0.065   2.953  0.0830 -0.3140  0.4374
   35MOL   O57932607   0.026   0.059   2.836 -0.0071 -0.0725 -0.1198
   35MOL   C58032608   0.135   7.924   3.018  0.8612 -0.4541  0.2312
   35MOL   C58132609   0.160   7.918   3.151 -0.5362 -0.6188  0.5142
   35MOL   C58232610   0.224   7.815   3.212  0.1036  0.0368 -0.3095
   35MOL   C58332611   0.249   7.696   3.138 -0.1403  0.2542 -0.6055
   35MOL   C58432612   0.311   7.580   3.208  0.2436  0.1666  0.4108
   35MOL   O58532613   0.350   7.477   3.144  0.4282  0.2772 -0.4022
   35MOL   O58632614   0.333   7.598   3.338 -0.5343  0.3332 -0.1296
   35MOL   C58732615   0.217   7.691   3.000 -1.1631  0.2115  0.2250
   35MOL   C58832616   0.169   7.809   2.939  0.4015  0.3358  0.1010
   35MOL   H58932617   0.643   0.880   3.441 -2.4292  1.4290 -1.8954
   35MOL   H59032618   0.591   0.758   3.564 -1.7525  0.4266  0.4107
   35MOL   H59132619   0.422   1.007   3.504  0.1687 -1.0305 -1.4744
   35MOL   H59232620   0.392   0.869   3.620  0.8872 -0.3862  0.6308
   35MOL   H59332621   0.243   0.867   3.427  0.3937 -0.0582 -1.2172
   35MOL   H59432622   0.389   0.825   3.329  1.0494 -0.9168 -0.4545
   35MOL   H59532623   0.247   0.670   3.559  0.7594 -0.8969  0.0714
   35MOL   H59632624   0.386   0.607   3.465  1.0126  0.8694  0.1253
   35MOL   H59732625   0.161   0.526   3.408  0.0067  0.6783 -0.3423
   35MOL   H59832626   0.112   0.685   3.346  0.1228 -0.2191 -2.0852
   35MOL   H59932627   0.273   0.645   3.177  0.7460 -0.8430 -0.9053
   35MOL   H60032628   0.353   0.509   3.256  0.5459 -0.1548  2.2089
   35MOL   H60132629   0.120   0.392   3.197 -0.3037 -0.5644 -1.5916
   35MOL   H60232630   0.066   0.544   3.130 -0.9275  0.7272  4.1084
   35MOL   H60332631   0.270   0.506   2.954 -1.5463  0.4974 -1.2065
   35MOL   H60432632   0.294   0.352   3.044 -0.6713  0.9063  1.4988
   35MOL   H60532633   0.163   0.350   2.827  1.2319 -1.6001  0.6934
   35MOL   H60632634   0.061   0.469   2.890 -1.7249 -1.8196 -1.4024
   35MOL   H60732635   7.920   0.273   2.893 -2.0711 -0.2115  1.6421
   35MOL   H60832636   7.928   0.342   3.053  1.4173 -0.2469 -0.0865
   35MOL   H60932637   0.128   0.022   3.213 -1.4121 -0.3732 -0.2563
   35MOL   H61032638   0.251   7.823   3.316  1.6337 -0.3322 -0.6719
   35MOL   H61132639   0.235   7.608   2.934 -0.9372  0.2375  0.2547
   35MOL   H61232640   0.141   7.816   2.835 -1.6959  2.2489  0.7629
   35MOL   O61332641   0.400   7.480   3.411  0.3795 -0.2004 -0.0776
   35MOL   C61432642   0.540   7.507   3.427  0.3465 -0.0876  0.2137
   35MOL   C61532643   0.573   7.468   3.574 -0.5373  0.4336  0.0694
   35MOL   C61632644   0.509   7.568   3.666 -0.5230 -0.2839  0.2610
   35MOL   C61732645   0.554   7.540   3.809 -0.4873 -0.4516 -0.3742
   35MOL   C61832646   0.487   7.627   3.918 -0.1167  0.7080  0.6335
   35MOL   C61932647   0.333   7.596   3.943  0.3105  0.5639  0.1579
   35MOL   C62032648   0.276   7.704   4.031 -0.4058 -0.1454  1.1118
   35MOL   C62132649   0.323   7.699   4.178  0.1397 -0.3942 -0.3406
   35MOL   C62232650   0.247   7.804   4.262  0.2119  0.9247 -0.4220
   35MOL   C62332651   0.313   7.808   4.403  0.2436 -0.5832 -0.3787
   35MOL   O62432652   0.296   7.679   4.464  0.1183 -0.3145 -0.4553
   35MOL   C62532653   0.403   7.593   4.479 -0.5094 -0.2283  0.3585
   35MOL   O62632654   0.518   7.629   4.470 -0.0626  1.0168 -0.3862
   35MOL   C62732655   0.363   7.455   4.519 -0.0223 -0.2198  0.4401
   35MOL   C62832656   0.456   7.355   4.531  0.3861 -0.0435 -0.3806
   35MOL   C62932657   0.423   7.221   4.537 -0.0472  0.1541  0.6520
   35MOL   C63032658   0.286   7.184   4.551 -0.4213 -0.4461 -0.1806
   35MOL   C63132659   0.250   7.041   4.581  0.4231 -1.1538 -0.4259
   35MOL   O63232660   0.137   6.998   4.580  0.8707 -0.2521 -0.0472
   35MOL   O63332661   0.358   6.965   4.616  0.8057  0.1056  0.5186
   35MOL   C63432662   0.189   7.287   4.560  0.5769 -0.2201  0.4589
   35MOL   C63532663   0.226   7.417   4.537  0.1237 -0.2938 -0.6014
   35MOL   H63632664   0.587   7.444   3.352  1.2696  1.6009 -0.6325
   35MOL   H63732665   0.567   7.610   3.405 -0.1681 -0.0268 -0.1257
   35MOL   H63832666   0.681   7.468   3.586 -0.5577 -0.1378  0.2543
   35MOL   H63932667   0.530   7.368   3.585  0.4351 -0.4208 -3.2516
   35MOL   H64032668   0.529   7.667   3.623  0.8906 -0.1891  1.1460
   35MOL   H64132669   0.402   7.546   3.659 -0.5892  0.6117 -2.1715
   35MOL   H64232670   0.660   7.564   3.818 -0.9521  2.3484 -1.6013
   35MOL   H64332671   0.559   7.438   3.847  2.0765  0.5512  2.1707
   35MOL   H64432672   0.542   7.623   4.013  1.4941 -0.0444 -0.3164
   35MOL   H64532673   0.504   7.727   3.880  0.8136  0.8125  1.3190
   35MOL   H64632674   0.282   7.609   3.847  0.5947  3.8990  0.3845
   35MOL   H64732675   0.316   7.497   3.986 -1.2057  1.0832  0.7912
   35MOL   H64832676   0.300   7.806   3.999  2.9042 -1.9294 -2.5327
   35MOL   H64932677   0.168   7.695   4.034 -0.4601 -0.9058 -1.8431
   35MOL   H65032678   0.316   7.603   4.229 -3.2969  0.7050  1.3999
   35MOL   H65132679   0.430   7.723   4.180 -0.3137  1.7128 -0.3755
   35MOL   H65232680   0.140   7.785   4.262 -0.1674  2.8494 -1.0675
   35MOL   H65332681   0.256   7.907   4.227 -2.5368  0.7407 -1.8734
   35MOL   H65432682   0.268   7.878   4.472  1.7085  1.3035 -1.2983
   35MOL   H65532683   0.418   7.838   4.392  0.7817 -1.7976  1.2438
   35MOL   H65632684   0.562   7.375   4.525  0.6131 -1.2562 -0.4625
   35MOL   H65732685   0.501   7.146   4.527  0.3545  0.9003 -2.2091
   35MOL   H65832686   0.090   7.257   4.592  1.6762 -1.5910  2.6807
   35MOL   H65932687   0.153   7.497   4.541 -0.7948 -1.1654  0.2570
   35MOL   O66032688   0.323   6.828   4.666  0.4082 -0.0446 -0.5995
   35MOL   C66132689   0.295   6.834   4.806  0.3303  0.1288  0.6230
   35MOL   C66232690   0.416   6.875   4.899 -0.1234  0.6462  0.1680
   35MOL   C66332691   0.389   6.923   5.043  0.5077 -0.8082  0.2108
   35MOL   C66432692   0.406   7.070   5.064  0.1928  0.7294 -0.3464
   35MOL   C66532693   0.296   7.155   5.002 -0.2722 -0.0305  0.6448
   35MOL   C66632694   0.319   7.302   5.020  0.0238 -0.3298  0.1855
   35MOL   C66732695   0.439   7.357   4.938  0.1694 -0.0762 -0.3377
   35MOL   C66832696   0.414   7.513   4.927 -0.0569 -1.0056 -0.1756
   35MOL   C66932697   0.538   7.586   4.871  0.0463 -0.4675  0.4121
   35MOL   C67032698   0.506   7.730   4.869 -0.4507 -0.5306 -0.3030
   35MOL   O67132699   0.616   7.812   4.834 -0.3290  0.4414 -0.0497
   35MOL   C67232700   0.593   7.936   4.806  0.7892  0.0735 -0.3811
   35MOL   O67332701   0.480   0.008   4.796  0.1312  0.3262 -0.2760
   35MOL   C67432702   0.719   0.035   4.792 -0.6134  0.0826  0.1875
   35MOL   C67532703   0.710   0.164   4.735 -0.0021 -0.3398  1.0574
   35MOL   C67632704   0.822   0.246   4.724  0.5780 -0.2071  0.3857
   35MOL   C67732705   0.945   0.196   4.766 -0.0045  0.5736  0.3975
   35MOL   C67832706   1.066   0.279   4.750  0.2067 -0.2805 -0.0236
   35MOL   O67932707   1.176   0.238   4.768 -0.3036  0.1877 -0.2009
   35MOL   O68032708   1.042   0.408   4.703 -0.2272  0.1271 -0.8187
   35MOL   C68132709   0.957   0.068   4.819  0.4559  0.7229  0.2754
   35MOL   C68232710   0.844   7.964   4.838  0.5946 -0.1800 -0.1124
   35MOL   H68332711   0.213   6.904   4.819 -1.0722 -1.5372  1.0108
   35MOL   H68432712   0.265   6.736   4.843 -1.2734  0.0351 -0.8779
   35MOL   H68532713   0.462   6.960   4.849 -1.7517  1.5404  0.1579
   35MOL   H68632714   0.495   6.800   4.896  0.0082  0.7343  1.2262
   35MOL   H68732715   0.291   6.892   5.080 -0.2844  2.2696  0.8325
   35MOL   H68832716   0.469   6.878   5.102  0.9001 -0.2901  0.0766
   35MOL   H68932717   0.506   7.094   5.026  0.8321 -0.2456  0.7112
   35MOL   H69032718   0.429   7.094   5.168  0.9513  0.0770 -0.3543
   35MOL   H69132719   0.272   7.128   4.899 -1.4070 -1.2593  1.2336
   35MOL   H69232720   0.199   7.134   5.046 -2.0700  0.8727 -2.7206
   35MOL   H69332721   0.230   7.361   4.998  0.4576  0.1358 -0.3252
   35MOL   H69432722   0.348   7.315   5.125 -0.6594  0.4931  0.2837
   35MOL   H69532723   0.528   7.337   4.997 -2.7219 -0.6997  4.0370
   35MOL   H69632724   0.456   7.312   4.840 -0.8099 -0.9003 -0.1411
   35MOL   H69732725   0.338   7.543   4.854  1.3199  0.8932 -0.8709
   35MOL   H69832726   0.385   7.557   5.023  0.0803  0.4897 -0.7974
   35MOL   H69932727   0.554   7.541   4.773  0.8671  0.4117  0.1386
   35MOL   H70032728   0.622   7.555   4.932  0.0874  0.6644  0.9530
   35MOL   H70132729   0.479   7.752   4.972  0.2702  1.0780 -0.4494
   35MOL   H70232730   0.419   7.752   4.808  1.8267  0.4436 -3.3473
   35MOL   H70332731   0.616   0.203   4.701  1.4530  1.8923 -0.5240
   35MOL   H70432732   0.826   0.344   4.679  0.5918 -1.0663 -1.5382
   35MOL   H70532733   1.047   0.033   4.868  0.8277  1.2297 -0.0376
   35MOL   H70632734   0.855   7.872   4.893  0.1852 -0.4271 -0.4399
   35MOL   O70732735   1.164   0.490   4.691 -0.7820  0.0659 -0.1440
   35MOL   C70832736   1.202   0.550   4.811  0.5201  0.2145  0.4455
   35MOL   C70932737   1.341   0.610   4.789 -0.2111 -0.1084 -0.8919
   35MOL   C71032738   1.387   0.711   4.892 -0.1330 -0.0289  0.0473
   35MOL   C71132739   1.533   0.755   4.889  0.2892 -0.6592 -0.0706
   35MOL   C71232740   1.575   0.846   5.001  0.3345 -0.0900 -0.2820
   35MOL   C71332741   1.719   0.882   4.953  0.9662  0.5900 -0.7237
   35MOL   C71432742   1.811   0.950   5.060  0.2427 -0.8391 -0.1591
   35MOL   C71532743   1.960   0.958   5.016 -0.2948 -0.1018  0.1429
   35MOL   C71632744   1.992   1.063   4.905 -0.2785 -0.1121 -0.0114
   35MOL   C71732745   2.146   1.096   4.886 -0.8015 -0.8190  0.7043
   35MOL   O71832746   2.214   0.976   4.853 -0.1035  0.9142  0.6372
   35MOL   C71932747   2.311   0.923   4.944 -0.6926 -0.0642 -0.4506
   35MOL   O72032748   2.340   0.977   5.053  0.3311 -0.1255  0.4141
   35MOL   C72132749   2.374   0.799   4.895 -0.4935  0.6034  0.4087
   35MOL   C72232750   2.334   0.736   4.774  0.4440 -0.0818  0.4962
   35MOL   C72332751   2.405   0.629   4.728  0.2320  0.1103  0.4141
   35MOL   C72432752   2.518   0.575   4.800 -0.2728  0.6203 -0.3337
   35MOL   C72532753   2.602   0.461   4.744  0.3608 -0.0199 -0.6648
   35MOL   O72632754   2.691   0.405   4.807 -0.0570  0.1288 -0.0530
   35MOL   O72732755   2.567   0.432   4.621 -0.0968  0.6032 -0.0907
   35MOL   C72832756   2.550   0.629   4.922 -0.5213 -0.2463  0.6330
   35MOL   C72932757   2.475   0.738   4.972  0.0605  1.1046  0.1332
   35MOL   H73032758   1.129   0.628   4.829  1.8191  1.0275  2.3115
   35MOL   H73132759   1.194   0.481   4.895  0.1425  0.0580  0.2817
   35MOL   H73232760   1.344   0.652   4.689  0.9554  1.2046 -0.3175
   35MOL   H73332761   1.411   0.527   4.797 -4.3053 -3.5530  1.9192
   35MOL   H73432762   1.313   0.791   4.877  1.1255  1.3724  1.1137
   35MOL   H73532763   1.360   0.657   4.983 -1.7967  2.2547  0.9733
   35MOL   H73632764   1.555   0.801   4.793  0.9295  0.5836  0.6580
   35MOL   H73732765   1.597   0.667   4.883  0.7918 -0.2626 -0.5349
   35MOL   H73832766   1.509   0.933   5.004 -2.1232 -1.8861 -0.0030
   35MOL   H73932767   1.575   0.799   5.099 -0.8511  0.7583  0.1394
   35MOL   H74032768   1.769   0.787   4.931 -0.1365  0.3900 -2.3968
   35MOL   H74132769   1.716   0.936   4.859 -2.7845 -1.2295 -1.7147
   35MOL   H74232770   1.768   1.046   5.090  3.2271  0.2234  0.8190
   35MOL   H74332771   1.806   0.902   5.158  0.7685  2.3920  1.5317
   35MOL   H74432772   2.025   0.973   5.102 -0.8738 -0.2447  0.6063
   35MOL   H74532773   2.003   0.860   4.992 -0.9862 -0.6283  1.0280
   35MOL   H74632774   1.935   1.155   4.917 -0.1527  0.2012 -1.6635
   35MOL   H74732775   1.947   1.030   4.811  0.0616  0.1658 -0.2693
   35MOL   H74832776   2.185   1.134   4.981 -0.5121  0.8687 -0.0819
   35MOL   H74932777   2.174   1.173   4.815 -1.1729 -0.4632  0.9413
   35MOL   H75032778   2.266   0.783   4.704 -0.1952  0.8394  1.7054
   35MOL   H75132779   2.370   0.582   4.637  1.2104 -1.9087  1.0559
   35MOL   H75232780   2.625   0.587   4.987 -1.1330  0.1793  1.6234
   35MOL   H75332781   2.500   0.781   5.068 -0.7935  0.6091  0.5929
   35MOL   O75432782   2.656   0.327   4.559  0.2354  0.1211 -0.2765
   35MOL   C75532783   2.756   0.391   4.486 -0.3262  0.1097  0.0124
   35MOL   C75632784   2.848   0.281   4.430  0.6191  0.7123  0.9151
   35MOL   C75732785   2.954   0.336   4.331 -0.2087  0.1047  0.0899
   35MOL   C75832786   3.047   0.236   4.268 -0.2920 -0.6251 -0.2015
   35MOL   C75932787   3.198   0.283   4.240 -0.1792 -0.4860 -0.5846
   35MOL   C76032788   3.222   0.396   4.139  0.1899 -0.4033 -0.0969
   35MOL   C76132789   3.367   0.436   4.126 -0.1071  0.1662 -0.1671
   35MOL   C76232790   3.412   0.494   3.995  0.2892  0.6742 -0.2919
   35MOL   C76332791   3.564   0.519   3.987 -0.0417 -0.3330 -0.0071
   35MOL   C76432792   3.619   0.560   3.851  0.2435  0.4070 -0.1101
   35MOL   O76532793   3.758   0.592   3.853  0.8739 -0.6421 -0.0646
   35MOL   C76632794   3.806   0.723   3.845  0.0629 -0.4762  0.3428
   35MOL   O76732795   3.735   0.823   3.828  0.6522  0.5054 -0.1887
   35MOL   C76832796   3.955   0.719   3.860 -0.4888  0.5983 -0.6427
   35MOL   C76932797   4.022   0.612   3.930 -0.7529  0.1471 -0.0054
   35MOL   C77032798   4.160   0.619   3.963  0.0189 -0.5078 -0.6378
   35MOL   C77132799   4.233   0.734   3.924  0.0067 -0.7225  0.2929
   35MOL   C77232800   4.372   0.758   3.962  0.4004  0.5139 -0.9854
   35MOL   O77332801   4.447   0.839   3.913  0.2651  0.1614 -0.4244
   35MOL   O77432802   4.402   0.686   4.076  0.5993  0.1971 -0.2697
   35MOL   C77532803   4.170   0.833   3.848  0.3634  0.1079 -0.0752
   35MOL   C77632804   4.032   0.825   3.818 -0.3032  0.4203  0.0030
   35MOL   H77732805   2.714   0.458   4.410  0.8449  0.1273 -0.6408
   35MOL   H77832806   2.812   0.455   4.555 -0.3604 -0.5316  0.6394
   35MOL   H77932807   2.785   0.199   4.396 -0.5252  1.9187  0.0859
   35MOL   H78032808   2.902   0.245   4.518  2.6944  2.0893  0.2653
   35MOL   H78132809   2.902   0.397   4.257 -0.3695 -1.6050 -1.2443
   35MOL   H78232810   3.010   0.414   4.381  0.5841 -0.0994 -0.4674
   35MOL   H78332811   3.001   0.206   4.174 -0.0319 -0.7069 -0.3053
   35MOL   H78432812   3.073   0.141   4.315 -0.4387 -0.3825  0.3803
   35MOL   H78532813   3.228   0.333   4.332 -0.7512 -0.7860 -0.2300
   35MOL   H78632814   3.274   0.205   4.239  0.4859  0.1260  0.9779
   35MOL   H78732815   3.190   0.348   4.046  3.9982 -2.9103 -0.2590
   35MOL   H78832816   3.157   0.481   4.156 -0.1811 -0.3178 -1.8429
   35MOL   H78932817   3.383   0.498   4.215  1.4319 -2.3716  1.3748
   35MOL   H79032818   3.431   0.349   4.140 -3.1401 -2.0568  0.3148
   35MOL   H79132819   3.371   0.426   3.921 -2.0402 -0.8846  2.3083
   35MOL   H79232820   3.368   0.588   3.961 -1.5130  0.6870  1.9107
   35MOL   H79332821   3.610   0.427   4.023 -0.0418 -0.4537 -0.3064
   35MOL   H79432822   3.585   0.592   4.065 -1.0704 -0.4894  0.4191
   35MOL   H79532823   3.567   0.639   3.797  2.2668  1.6466 -0.2858
   35MOL   H79632824   3.605   0.476   3.784  0.0535 -1.0255  1.6672
   35MOL   H79732825   3.964   0.528   3.965  2.4907 -1.3667  2.0646
   35MOL   H79832826   4.205   0.534   4.013 -0.7582 -0.1898  0.6534
   35MOL   H79932827   4.229   0.920   3.825  0.7822  0.0481  0.7156
   35MOL   H80032828   3.988   0.900   3.755 -0.2757  0.9804  0.6512
   35MOL   O80132829   4.539   0.711   4.135  0.4235 -0.1602 -0.3789
   35MOL   C80232830   4.534   0.785   4.254 -0.1401 -0.0135  0.8898
   35MOL   C80332831   4.677   0.795   4.313 -0.5672  0.4054 -0.4076
   35MOL   C80432832   4.682   0.794   4.466  0.1875 -0.2481  0.2841
   35MOL   C80532833   4.595   0.907   4.543  0.7905  0.3028 -0.5022
   35MOL   C80632834   4.640   1.048   4.510  0.3751  1.1862 -0.7338
   35MOL   C80732835   4.788   1.076   4.518  0.2224  0.3928  0.1440
   35MOL   C80832836   4.818   1.226   4.530  0.4472  0.0295  0.1110
   35MOL   C80932837   4.968   1.258   4.538  0.9576 -0.0745  0.6783
   35MOL   C81032838   5.001   1.405   4.574  0.7292  0.2361 -0.2574
   35MOL   C81132839   5.149   1.448   4.547 -0.8535 -0.0531 -0.8189
   35MOL   O81232840   5.190   1.419   4.421 -0.1774  0.1355  0.2168
   35MOL   C81332841   5.217   1.513   4.329 -0.0646  0.0040  0.2414
   35MOL   O81432842   5.191   1.632   4.349 -0.0453 -0.5756 -0.4621
   35MOL   C81532843   5.265   1.452   4.198  0.5812 -0.1236 -0.3202
   35MOL   C81632844   5.298   1.314   4.181  0.1083  0.4393  0.6766
   35MOL   C81732845   5.353   1.267   4.058 -0.2354 -0.2209 -0.0607
   35MOL   C81832846   5.385   1.353   3.951 -0.2294  0.2066  0.4266
   35MOL   C81932847   5.444   1.307   3.826  0.1560  0.4966 -0.0704
   35MOL   O82032848   5.443   1.367   3.728  0.6583 -0.5709  0.3246
   35MOL   O82132849   5.488   1.176   3.832 -0.1251  0.4592 -0.3449
   35MOL   C82232850   5.358   1.490   3.971 -0.0922 -0.6032  0.3282
   35MOL   C82332851   5.286   1.535   4.084 -0.0197 -0.1739  0.5308
   35MOL   H82432852   4.491   0.884   4.243 -0.2785 -0.0838  0.7952
   35MOL   H82532853   4.475   0.713   4.311  0.6834 -1.0710  0.4375
   35MOL   H82632854   4.728   0.883   4.274 -1.5270  0.9150 -0.5194
   35MOL   H82732855   4.736   0.709   4.283 -0.6809  0.3033 -0.3369
   35MOL   H82832856   4.641   0.698   4.495  1.5695 -1.1450 -0.6626
   35MOL   H82932857   4.789   0.792   4.491  0.0988  1.3360  0.8832
   35MOL   H83032858   4.604   0.889   4.650 -2.4914 -1.1134 -0.4079
   35MOL   H83132859   4.490   0.891   4.518  0.2267  0.8784  1.4345
   35MOL   H83232860   4.605   1.080   4.412 -2.1121  1.4911  0.2328
   35MOL   H83332861   4.587   1.120   4.573  1.7581  2.1366 -0.6185
   35MOL   H83432862   4.842   1.025   4.597  1.7183  1.0543 -0.4451
   35MOL   H83532863   4.826   1.032   4.426  1.6380  0.0966  0.8663
   35MOL   H83632864   4.780   1.268   4.437 -0.0480 -0.3589  0.1351
   35MOL   H83732865   4.762   1.260   4.617 -0.3735 -2.9333  0.7859
   35MOL   H83832866   5.012   1.193   4.614  1.7910 -2.4133 -1.7487
   35MOL   H83932867   5.016   1.240   4.442  1.0352  1.4279  0.4267
   35MOL   H84032868   4.981   1.417   4.681  1.6176 -1.0192  0.0703
   35MOL   H84132869   4.941   1.470   4.512  1.2799 -0.0935 -1.1510
   35MOL   H84232870   5.210   1.393   4.619 -0.6356  0.1587 -0.8450
   35MOL   H84332871   5.182   1.548   4.572 -0.1191 -0.6439  0.6411
   35MOL   H84432872   5.281   1.252   4.267  1.3184 -2.6086 -1.2047
   35MOL   H84532873   5.368   1.160   4.052  1.9363 -0.0085  1.2560
   35MOL   H84632874   5.355   1.559   3.888  1.0655  0.7323  1.3568
   35MOL   H84732875   5.258   1.640   4.088 -0.7564 -0.1708 -2.6199
   35MOL   O84832876   5.576   1.133   3.711 -0.4466 -0.5260 -0.0602
   35MOL   C84932877   5.512   1.010   3.659 -0.3695 -0.5172 -0.2293
   35MOL   C85032878   5.545   0.904   3.759  0.0918  0.2108 -0.6637
   35MOL   C85132879   5.686   0.849   3.758  0.5509 -0.0466  0.0067
   35MOL   C85232880   5.701   0.750   3.869  0.0222 -0.0922 -0.1809
   35MOL   C85332881   5.848   0.702   3.900  0.1685  0.3227  0.2076
   35MOL   C85432882   5.857   0.580   3.997 -0.2787  0.1108  0.6021
   35MOL   C85532883   5.998   0.522   4.025  0.3479  0.5242  0.2495
   35MOL   C85632884   6.083   0.634   4.094 -0.3380 -0.7765  0.3018
   35MOL   C85732885   6.202   0.582   4.179  0.7125 -0.6645 -0.9213
   35MOL   C85832886   6.297   0.694   4.227 -0.0327 -0.3194 -0.3195
   35MOL   O85932887   6.394   0.634   4.312  0.5591 -0.2842 -0.0110
   35MOL   C86032888   6.519   0.609   4.276 -0.0501 -0.7754  0.5098
   35MOL   O86132889   6.563   0.639   4.163  0.4400  0.5286 -0.4768
   35MOL   C86232890   6.609   0.548   4.386 -0.2375  0.3788 -0.7862
   35MOL   C86332891   6.749   0.536   4.355 -0.6485 -0.5627 -0.0584
   35MOL   C86432892   6.843   0.502   4.461  0.4018  0.1547  0.1291
   35MOL   C86532893   6.797   0.472   4.591 -0.9297 -0.0225  0.3078
   35MOL   C86632894   6.884   0.450   4.710  1.1269 -0.1099 -0.1279
   35MOL   O86732895   6.840   0.435   4.823 -0.5616 -0.1873 -0.4896
   35MOL   O86832896   7.018   0.451   4.674  0.1017 -0.0572  0.1189
   35MOL   C86932897   6.654   0.463   4.609  0.1189  0.0851  0.4200
   35MOL   C87032898   6.564   0.503   4.512  0.4021  0.1561 -0.5273
   35MOL   H87132899   5.406   1.018   3.634 -1.0081 -0.1083  2.4305
   35MOL   H87232900   5.566   0.983   3.569 -0.2833 -0.8644 -0.0760
   35MOL   H87332901   5.481   0.820   3.734 -1.1907  0.9301  0.1504
   35MOL   H87432902   5.515   0.933   3.860  1.1921  0.2249 -0.3270
   35MOL   H87532903   5.702   0.802   3.660  0.1148  0.7747 -0.4663
   35MOL   H87632904   5.760   0.929   3.764 -0.9305  1.2394  1.2783
   35MOL   H87732905   5.630   0.673   3.838 -1.2266  0.9453  0.0651
   35MOL   H87832906   5.675   0.794   3.965 -0.2434 -2.9492  1.1073
   35MOL   H87932907   5.893   0.669   3.806  0.1545  0.6708  0.0767
   35MOL   H88032908   5.910   0.789   3.923  1.3094  0.7646 -4.0055
   35MOL   H88132909   5.817   0.623   4.089 -0.6348  1.3299 -0.1055
   35MOL   H88232910   5.784   0.502   3.978 -0.3062 -0.6301  3.5049
   35MOL   H88332911   5.989   0.438   4.094 -0.2830  1.9827  1.9860
   35MOL   H88432912   6.036   0.474   3.935  0.8102  1.2513  0.0508
   35MOL   H88532913   6.127   0.701   4.020 -0.4507 -0.6692  0.3320
   35MOL   H88632914   6.029   0.701   4.161  1.3787  0.3178  0.6309
   35MOL   H88732915   6.260   0.504   4.130 -2.4277 -1.7757 -3.0602
   35MOL   H88832916   6.171   0.527   4.268  1.3903  0.4172 -0.0081
   35MOL   H88932917   6.244   0.775   4.278 -0.2241  0.0719 -1.1314
   35MOL   H89032918   6.327   0.745   4.136 -4.4213 -0.6369 -2.0753
   35MOL   H89132919   6.779   0.552   4.252  2.7013  1.0587  1.1208
   35MOL   H89232920   6.948   0.501   4.438  0.5816  0.8201  0.9257
   35MOL   H89332921   6.625   0.426   4.707 -0.4078 -0.0587  0.2069
   35MOL   H89432922   6.458   0.508   4.532  0.1530 -1.8224 -1.2876
   35MOL   O89532923   7.104   0.462   4.789  0.3277 -0.6046 -0.1428
   35MOL   C89632924   7.142   0.595   4.800 -0.4752 -0.0163  0.6162
   35MOL   C89732925   7.227   0.611   4.927 -0.9707 -1.0688  0.1172
   35MOL   C89832926   7.242   0.762   4.966 -0.3359 -0.0790  0.1697
   35MOL   C89932927   7.330   0.781   5.091  0.6242 -0.0916 -1.1011
   35MOL   C90032928   7.336   0.926   5.138  0.1015 -0.1519  0.4596
   35MOL   C90132929   7.396   0.939   5.276 -0.3388  0.9982  0.8835
   35MOL   C90232930   7.383   1.089   5.324 -0.1239  0.1540 -0.0770
   35MOL   C90332931   7.405   1.101   5.474  0.3799 -0.9534 -0.6803
   35MOL   C90432932   7.420   1.254   5.520  0.4500  0.0386 -0.0870
   35MOL   C90532933   7.392   1.267   5.667 -0.1536 -0.4125 -0.2359
   35MOL   O90632934   7.383   1.400   5.714 -0.5948  0.1775 -0.3018
   35MOL   C90732935   7.358   1.422   5.843 -0.5666  0.2677 -0.1909
   35MOL   O90832936   7.353   1.337   5.939  0.2829 -0.2432 -0.4364
   35MOL   C90932937   7.344   1.565   5.878 -0.4962  0.7942 -0.2573
   35MOL   C91032938   7.364   1.665   5.782  0.9804 -0.2131 -0.2903
   35MOL   C91132939   7.332   1.795   5.802  0.4288 -0.6881 -0.1643
   35MOL   C91232940   7.264   1.837   5.918 -0.2584  0.1557 -0.0728
   35MOL   C91332941   7.213   1.973   5.929 -0.5065  0.2783  0.1169
   35MOL   O91432942   7.227   2.061   5.844  0.0656  0.0075  0.2810
   35MOL   O91532943   7.142   2.002   6.038  0.1781  0.0482 -0.2384
   35MOL   C91632944   7.247   1.736   6.016 -0.0454  0.2708  0.3468
   35MOL   C91732945   7.290   1.603   6.001  0.4045  0.1319 -0.2272
   35MOL   H91832946   7.200   0.636   4.717  0.7703  2.0590  2.4358
   35MOL   H91932947   7.054   0.659   4.810 -0.8371 -0.1601 -1.4803
   35MOL   H92032948   7.324   0.569   4.900 -0.6300  0.8963 -1.9108
   35MOL   H92132949   7.184   0.559   5.012 -5.4532 -1.9134 -2.5515
   35MOL   H92232950   7.285   0.818   4.883 -1.8391  1.2966  0.3105
   35MOL   H92332951   7.154   0.820   4.992 -1.5546 -1.2888 -1.2014
   35MOL   H92432952   7.431   0.745   5.073  1.4168  2.7915 -2.7190
   35MOL   H92532953   7.287   0.732   5.178  1.0950  0.7137 -0.4133
   35MOL   H92632954   7.394   0.987   5.069 -1.8667  2.7155  1.2952
   35MOL   H92732955   7.242   0.980   5.141 -0.3572 -0.9612  1.1272
   35MOL   H92832956   7.349   0.874   5.350 -0.1475  0.9424  0.9562
   35MOL   H92932957   7.495   0.895   5.281 -1.1785 -0.9128  1.4066
   35MOL   H93032958   7.465   1.140   5.273  0.2405 -1.4948 -1.1926
   35MOL   H93132959   7.286   1.128   5.297  0.4251  1.9161  0.4539
   35MOL   H93232960   7.314   1.062   5.519 -2.0284  3.5010 -1.3570
   35MOL   H93332961   7.485   1.039   5.513 -1.2511 -2.0752  0.9502
   35MOL   H93432962   7.348   1.316   5.467  0.5649  0.5253  0.3261
   35MOL   H93532963   7.516   1.296   5.490  0.9905 -1.3256 -0.3459
   35MOL   H93632964   7.473   1.217   5.720  0.0557  0.2591  0.0874
   35MOL   H93732965   7.306   1.208   5.696  2.6902 -3.9628  1.4105
   35MOL   H93832966   7.412   1.637   5.689 -1.3870 -2.7874 -0.7932
   35MOL   H93932967   7.353   1.867   5.724  0.3113 -2.1063 -1.5151
   35MOL   H94032968   7.199   1.768   6.108 -1.8305  2.3159 -1.2387
   35MOL   H94132969   7.260   1.534   6.078 -2.3728 -0.6307 -1.9228
   35MOL   H94232970   7.129   2.094   6.056 -2.1313 -0.3777  0.4526
   36MOL     O132971   4.407   6.732   4.612  0.4893  0.4530  0.4860
   36MOL     C232972   4.451   6.629   4.705 -0.3425  0.4035  0.0007
   36MOL     C332973   4.412   6.490   4.655 -0.0958  0.9630  0.0104
   36MOL     C432974   4.464   6.448   4.517 -0.7629  0.2737 -0.4872
   36MOL     C532975   4.441   6.306   4.471 -0.0477 -0.4711  0.3506
   36MOL     C632976   4.512   6.300   4.334 -0.1613  0.5553 -0.3487
   36MOL     C732977   4.491   6.168   4.250 -0.0018 -0.5051  0.6414
   36MOL     C832978   4.572   6.173   4.112  0.2863  0.5480 -0.7042
   36MOL     C932979   4.551   6.062   4.015  0.7024 -0.1396 -0.6291
   36MOL    C1032980   4.620   6.100   3.881  0.2939 -0.6240 -0.3696
   36MOL    C1132981   4.646   5.978   3.793  0.6303  0.1656 -0.4016
   36MOL    O1232982   4.681   6.008   3.658 -0.3864 -0.8864  0.1805
   36MOL    C1332983   4.597   6.027   3.550  0.4788 -0.2401  0.8885
   36MOL    O1432984   4.480   6.060   3.561  0.5053  0.1305 -0.4305
   36MOL    C1532985   4.668   6.010   3.417  0.3096 -0.0633  0.3440
   36MOL    C1632986   4.594   6.030   3.296  0.3340 -0.0549 -0.4716
   36MOL    C1732987   4.661   6.019   3.174  0.4446 -0.2174  0.2422
   36MOL    C1832988   4.794   5.979   3.170 -0.6736 -0.4788  0.6175
   36MOL    C1932989   4.851   5.974   3.033  0.0779 -0.3686  0.0759
   36MOL    O2032990   4.825   6.067   2.952 -0.2267  0.3865  0.3187
   36MOL    O2132991   4.936   5.865   3.020 -0.5051  0.0935 -0.4932
   36MOL    C2232992   4.866   5.957   3.286  0.0744 -0.1535  0.0133
   36MOL    C2332993   4.802   5.962   3.409  0.6302  0.7967 -0.6232
   36MOL    H2432994   4.558   6.641   4.719 -0.0158 -0.3551 -1.7248
   36MOL    H2532995   4.405   6.649   4.802 -2.4868 -0.6282 -0.7590
   36MOL    H2632996   4.305   6.488   4.637  0.0205 -0.1538 -0.6607
   36MOL    H2732997   4.424   6.419   4.737 -1.8044  1.9617  1.1625
   36MOL    H2832998   4.421   6.513   4.442 -2.3146 -1.1810 -0.9045
   36MOL    H2932999   4.571   6.468   4.525 -0.6979 -0.3841  0.4903
   36MOL    H3033000   4.333   6.289   4.465  0.2431 -2.4548  0.2295
   36MOL    H3133001   4.477   6.239   4.550 -1.3666  0.4574  1.7752
   36MOL    H3233002   4.480   6.381   4.268 -0.5227  2.6123  2.2653
   36MOL    H3333003   4.616   6.328   4.349 -0.0151 -0.6449  0.9634
   36MOL    H3433004   4.514   6.082   4.313  0.1081 -1.4544 -0.6635
   36MOL    H3533005   4.386   6.146   4.231 -0.1148  1.4198 -1.0733
   36MOL    H3633006   4.564   6.275   4.074  2.6513  0.3712 -1.7965
   36MOL    H3733007   4.676   6.174   4.142  0.4284  0.3495 -1.1714
   36MOL    H3833008   4.575   5.959   4.041  0.3650  0.1103  0.6714
   36MOL    H3933009   4.446   6.071   3.985 -0.2007 -0.6610  2.2929
   36MOL    H4033010   4.705   6.160   3.914  0.9367 -1.1792 -0.9924
   36MOL    H4133011   4.564   6.180   3.833 -0.8556  0.3089  2.4099
   36MOL    H4233012   4.556   5.916   3.783  0.8742 -0.3749  0.6535
   36MOL    H4333013   4.712   5.914   3.851 -1.3002 -1.5028  0.0466
   36MOL    H4433014   4.488   6.044   3.310  0.4750  1.1017 -0.4968
   36MOL    H4533015   4.610   6.034   3.079  0.9329  1.0591  0.1737
   36MOL    H4633016   4.972   5.934   3.281 -0.6849 -3.8852 -0.9893
   36MOL    H4733017   4.851   5.947   3.504  2.5067  0.0941 -1.6517
   36MOL    H4833018   4.463   6.738   4.536  0.1652  1.5872  0.3327
   36MOL    O4933019   5.025   5.862   2.887 -0.1821 -0.4964  0.3615
   36MOL    C5033020   4.966   5.774   2.808 -0.2784 -0.3727 -0.1252
   36MOL    C5133021   5.039   5.771   2.676 -0.1680  0.0760 -0.2621
   36MOL    C5233022   5.051   5.900   2.601 -0.3757  0.9004 -0.5035
   36MOL    C5333023   4.922   5.964   2.554  0.0057  0.1429  0.3735
   36MOL    C5433024   4.937   6.108   2.518 -0.0579  0.5061 -0.5217
   36MOL    C5533025   4.803   6.181   2.488 -0.2636  0.7141  0.5687
   36MOL    C5633026   4.747   6.264   2.611 -0.4404  0.5695  0.4532
   36MOL    C5733027   4.606   6.316   2.597 -0.2000  0.1246 -0.3398
   36MOL    C5833028   4.568   6.420   2.701  0.2532 -0.0692  0.7704
   36MOL    C5933029   4.436   6.493   2.665 -0.5111 -0.4961 -0.2306
   36MOL    O6033030   4.450   6.589   2.558 -0.5412 -0.1517  0.0633
   36MOL    C6133031   4.337   6.619   2.493 -0.5732  0.2662  0.1711
   36MOL    O6233032   4.237   6.547   2.492 -0.0402 -0.0390  0.3050
   36MOL    C6333033   4.344   6.742   2.408  0.5889  0.0402 -0.3082
   36MOL    C6433034   4.230   6.778   2.332 -0.4595  0.3499  0.1422
   36MOL    C6533035   4.235   6.890   2.245  0.2322 -0.4906 -0.7725
   36MOL    C6633036   4.356   6.959   2.227 -0.2419  0.0908  0.3903
   36MOL    C6733037   4.356   7.082   2.135 -0.0317 -0.1214 -0.5676
   36MOL    O6833038   4.258   7.156   2.111 -0.2905 -0.0238 -0.2786
   36MOL    O6933039   4.475   7.103   2.066  0.0009  0.0316 -0.1132
   36MOL    C7033040   4.475   6.928   2.301  0.3590  0.2959  0.1937
   36MOL    C7133041   4.462   6.817   2.388 -0.0737 -0.5276 -0.7392
   36MOL    H7233042   4.967   5.673   2.850  1.5843  0.0999  1.0397
   36MOL    H7333043   4.861   5.799   2.797  0.8706  3.5277 -3.7352
   36MOL    H7433044   4.989   5.701   2.609  0.9995 -1.6140  0.6045
   36MOL    H7533045   5.138   5.726   2.682  0.3063  1.1162 -0.2432
   36MOL    H7633046   5.107   5.970   2.663  1.9262 -2.0909  0.8768
   36MOL    H7733047   5.108   5.872   2.513 -1.0242  1.2623 -1.0449
   36MOL    H7833048   4.845   5.953   2.631 -0.3005 -0.4287 -0.0137
   36MOL    H7933049   4.891   5.907   2.466  1.2427  0.7057 -0.4476
   36MOL    H8033050   5.002   6.159   2.590  1.3377 -0.2180 -1.2563
   36MOL    H8133051   4.998   6.111   2.428  0.8209 -0.1915  0.0421
   36MOL    H8233052   4.823   6.257   2.411 -1.6787 -0.6549 -1.1966
   36MOL    H8333053   4.725   6.123   2.439  0.6531  1.0535 -1.3765
   36MOL    H8433054   4.755   6.200   2.699 -0.2247  1.8215  1.3484
   36MOL    H8533055   4.819   6.345   2.624 -0.3728  0.6156 -0.1661
   36MOL    H8633056   4.610   6.368   2.501 -3.0682  1.2115  0.0675
   36MOL    H8733057   4.525   6.244   2.582 -0.6998  0.4858  0.5996
   36MOL    H8833058   4.650   6.492   2.704  1.1935 -1.1868  2.1995
   36MOL    H8933059   4.564   6.384   2.803 -1.5095  0.1720  0.8094
   36MOL    H9033060   4.404   6.542   2.757  0.6717 -0.6339  0.2718
   36MOL    H9133061   4.360   6.419   2.639 -1.1483  1.2867 -3.6329
   36MOL    H9233062   4.149   6.707   2.332 -0.9511  0.8940  1.3420
   36MOL    H9333063   4.146   6.916   2.191 -0.2344 -0.0934  0.1796
   36MOL    H9433064   4.566   6.985   2.292  0.5150  0.3230  1.8812
   36MOL    H9533065   4.547   6.782   2.445  1.4567 -0.1401 -2.7113
   36MOL    O9633066   4.455   7.205   1.959 -0.4491 -0.7173  0.0019
   36MOL    C9733067   4.568   7.289   1.960 -0.7030  0.0773  0.1134
   36MOL    C9833068   4.592   7.377   2.086  1.3789 -0.6342  0.4560
   36MOL    C9933069   4.473   7.466   2.113  0.7684  0.0566 -0.5048
   36MOL   C10033070   4.485   7.551   2.240 -0.8517  0.0644 -0.0343
   36MOL   C10133071   4.466   7.465   2.365 -0.0357 -0.2723 -0.3730
   36MOL   C10233072   4.329   7.408   2.381 -0.0120 -0.6408 -0.1506
   36MOL   C10333073   4.332   7.313   2.500  0.3881 -0.4656  0.2385
   36MOL   C10433074   4.192   7.262   2.548 -0.0617  0.5016 -0.3433
   36MOL   C10533075   4.139   7.143   2.464 -0.3996 -0.1272  0.3269
   36MOL   C10633076   3.986   7.143   2.468 -0.5568 -0.5969  0.2236
   36MOL   O10733077   3.937   7.177   2.598  0.7758  0.0131  0.0883
   36MOL   C10833078   3.931   7.092   2.705 -0.0470  0.1771 -0.2748
   36MOL   O10933079   3.983   6.978   2.699  0.1449  0.9522 -0.5947
   36MOL   C11033080   3.882   7.156   2.829  0.3638  1.3123  0.1175
   36MOL   C11133081   3.894   7.088   2.947  0.3767  0.2570 -0.7022
   36MOL   C11233082   3.860   7.149   3.069 -0.3062 -0.1043 -0.7209
   36MOL   C11333083   3.825   7.284   3.073  0.1807  0.0563 -0.0589
   36MOL   C11433084   3.783   7.350   3.199 -0.4871  0.5687  0.5936
   36MOL   O11533085   3.736   7.460   3.203  0.0507 -0.0737  0.3499
   36MOL   O11633086   3.821   7.274   3.311 -0.1535  0.1041 -0.0599
   36MOL   C11733087   3.808   7.355   2.956 -0.2772  0.0526  0.6566
   36MOL   C11833088   3.835   7.288   2.837  0.0041  0.0670 -0.0400
   36MOL   H11933089   4.654   7.227   1.934 -1.7536 -0.4564 -2.1751
   36MOL   H12033090   4.552   7.355   1.875 -1.7597 -1.2170 -0.7096
   36MOL   H12133091   4.685   7.432   2.077  1.3453 -0.1186  3.0059
   36MOL   H12233092   4.590   7.304   2.167 -2.0691 -3.3995 -1.9509
   36MOL   H12333093   4.461   7.543   2.036 -3.2488  1.1507  1.0984
   36MOL   H12433094   4.381   7.408   2.114 -0.4719  1.9728 -0.5256
   36MOL   H12533095   4.413   7.632   2.232  0.5985  1.3807  0.0213
   36MOL   H12633096   4.586   7.589   2.253 -0.1442 -1.9234  0.4732
   36MOL   H12733097   4.537   7.383   2.369 -0.9545 -0.9851  1.2112
   36MOL   H12833098   4.485   7.530   2.450 -1.8815  1.4850 -1.2525
   36MOL   H12933099   4.261   7.489   2.408  2.1595 -0.0675  4.1236
   36MOL   H13033100   4.285   7.358   2.295  2.3138 -0.7887 -1.2945
   36MOL   H13133101   4.391   7.223   2.485  1.0748 -0.0787  0.6001
   36MOL   H13233102   4.375   7.366   2.584  1.4628 -3.0101  1.3373
   36MOL   H13333103   4.202   7.232   2.652  0.1489 -2.2164 -1.1179
   36MOL   H13433104   4.120   7.342   2.529  0.1032 -0.2422 -4.5609
   36MOL   H13533105   4.175   7.046   2.497 -2.4504 -0.6144  1.1709
   36MOL   H13633106   4.172   7.150   2.360 -0.5098  0.4941  0.3289
   36MOL   H13733107   3.940   7.049   2.437 -3.3516  0.8701 -0.3012
   36MOL   H13833108   3.945   7.217   2.400 -0.7736  0.6371  1.6689
   36MOL   H13933109   3.912   6.981   2.950  3.0999  0.7019  0.7283
   36MOL   H14033110   3.860   7.087   3.157  0.5289 -0.9557 -1.3159
   36MOL   H14133111   3.776   7.458   2.952  0.1568  0.1338 -0.9473
   36MOL   H14233112   3.831   7.348   2.747  1.2516 -1.1958 -0.9549
   36MOL   O14333113   3.808   7.344   3.442 -0.4580 -0.1748 -0.4172
   36MOL   C14433114   3.687   7.298   3.512  0.6469 -0.8247  0.1404
   36MOL   C14533115   3.706   7.334   3.658  0.8238 -0.4849 -0.1380
   36MOL   C14633116   3.571   7.352   3.725  0.4271  0.6313 -0.4714
   36MOL   C14733117   3.563   7.351   3.874  0.0856  0.0858 -0.5323
   36MOL   C14833118   3.559   7.208   3.922 -0.2275 -0.6514 -0.1780
   36MOL   C14933119   3.542   7.193   4.079  0.8847 -0.2163 -0.3614
   36MOL   C15033120   3.510   7.046   4.117  0.6572  0.2198 -0.4128
   36MOL   C15133121   3.501   7.009   4.267 -0.8770  0.0539 -0.0961
   36MOL   C15233122   3.415   6.884   4.279  0.7987 -0.1450 -0.3880
   36MOL   C15333123   3.408   6.830   4.429 -0.0184 -0.2733 -0.1121
   36MOL   O15433124   3.340   6.920   4.514  0.2321  0.5745 -0.1604
   36MOL   C15533125   3.398   6.996   4.612  0.6948  0.3511  0.4449
   36MOL   O15633126   3.520   6.991   4.638  0.5152 -0.5837 -0.1189
   36MOL   C15733127   3.292   7.078   4.681 -0.9933 -0.1975 -0.4622
   36MOL   C15833128   3.157   7.078   4.645 -0.6719 -0.4984  0.1876
   36MOL   C15933129   3.061   7.134   4.732  0.2515 -0.3698  0.1251
   36MOL   C16033130   3.105   7.218   4.840 -0.6947 -0.2595 -0.6442
   36MOL   C16133131   3.016   7.305   4.926 -0.2813 -0.3331 -0.1847
   36MOL   O16233132   3.065   7.387   5.004  0.6405  0.3720  0.1380
   36MOL   O16333133   2.894   7.271   4.909  0.3215 -0.6824 -0.5281
   36MOL   C16433134   3.246   7.229   4.870  0.0516 -0.0587 -0.2269
   36MOL   C16533135   3.342   7.152   4.792 -0.1878  0.0853  0.4982
   36MOL   H16633136   3.594   7.347   3.485  1.1067 -0.4779 -0.8480
   36MOL   H16733137   3.673   7.190   3.501  1.5821 -0.9554  0.1731
   36MOL   H16833138   3.766   7.425   3.664 -0.5119  0.3755  0.2194
   36MOL   H16933139   3.772   7.268   3.714 -0.0303  0.5790  2.1532
   36MOL   H17033140   3.540   7.451   3.690 -0.0359  0.3738 -0.7967
   36MOL   H17133141   3.495   7.287   3.680  1.2493 -0.4479 -0.3099
   36MOL   H17233142   3.469   7.397   3.906  0.0343 -2.8546  4.1434
   36MOL   H17333143   3.640   7.414   3.920  0.7436 -2.4901  2.0551
   36MOL   H17433144   3.479   7.156   3.869 -0.6456 -0.1256 -0.0721
   36MOL   H17533145   3.652   7.160   3.892  0.6147  0.1536  1.1086
   36MOL   H17633146   3.622   7.233   4.141 -0.0908 -0.0105  0.7890
   36MOL   H17733147   3.460   7.255   4.116 -1.6276 -2.2188 -2.3525
   36MOL   H17833148   3.420   7.025   4.060  1.7739 -1.0175 -1.7714
   36MOL   H17933149   3.587   6.982   4.073 -0.5040  0.5445 -2.9918
   36MOL   H18033150   3.597   6.991   4.316 -1.1326 -1.1806 -0.0475
   36MOL   H18133151   3.458   7.091   4.325 -0.5521  0.7478 -0.8217
   36MOL   H18233152   3.462   6.815   4.208 -3.3063 -1.9088 -1.5549
   36MOL   H18333153   3.315   6.891   4.237  1.6415  0.2045 -2.4142
   36MOL   H18433154   3.510   6.811   4.461  0.3044 -0.3145 -1.1228
   36MOL   H18533155   3.349   6.738   4.435  1.6054 -1.4126 -1.2309
   36MOL   H18633156   3.124   7.005   4.573 -1.4246 -0.6921  0.7277
   36MOL   H18733157   2.959   7.112   4.705  0.6752 -1.2815 -0.7610
   36MOL   H18833158   3.286   7.286   4.952  2.8935  1.0486 -2.3036
   36MOL   H18933159   3.447   7.159   4.818 -0.4656  2.4439  1.1708
   36MOL   O19033160   2.801   7.344   5.005 -1.2022  0.6646  0.1194
   36MOL   C19133161   2.766   7.472   4.951  0.0269 -0.1193 -0.3363
   36MOL   C19233162   2.689   7.561   5.051 -0.2268  0.1049  0.8404
   36MOL   C19333163   2.770   7.591   5.168 -0.2149 -0.1554 -0.3550
   36MOL   C19433164   2.897   7.673   5.132  0.1558 -0.1162  0.1726
   36MOL   C19533165   2.983   7.701   5.254  0.2640  0.0120 -0.1701
   36MOL   C19633166   3.119   7.758   5.224 -0.6385 -0.2036  0.0909
   36MOL   C19733167   3.213   7.650   5.185  0.7112  0.1536 -0.0138
   36MOL   C19833168   3.350   7.703   5.124 -0.0271  0.2943  0.5068
   36MOL   C19933169   3.431   7.584   5.057 -0.7536 -0.0767 -0.1018
   36MOL   C20033170   3.570   7.621   4.999 -0.1739 -0.2354 -0.3451
   36MOL   O20133171   3.569   7.635   4.859 -0.1499 -0.0836  0.2068
   36MOL   C20233172   3.609   7.750   4.799  0.8730 -0.4853  0.0284
   36MOL   O20333173   3.641   7.850   4.863  0.0977  0.1001 -0.4268
   36MOL   C20433174   3.611   7.734   4.654  0.3309 -0.9754 -1.0824
   36MOL   C20533175   3.645   7.839   4.567 -0.5429 -0.0767  0.0656
   36MOL   C20633176   3.641   7.830   4.428  0.0078 -0.5896  0.0213
   36MOL   C20733177   3.599   7.707   4.367  0.2624 -1.1107  0.5482
   36MOL   C20833178   3.596   7.683   4.225  0.1944  0.2103 -0.4783
   36MOL   O20933179   3.548   7.585   4.175  0.2706  0.3488  0.1964
   36MOL   O21033180   3.670   7.777   4.158 -0.1260 -0.1184  0.8240
   36MOL   C21133181   3.548   7.611   4.454 -0.6913  0.2961 -0.6391
   36MOL   C21233182   3.551   7.621   4.593  0.6591  0.5050 -0.0257
   36MOL   H21333183   2.859   7.515   4.913  0.1690 -0.2228 -0.1072
   36MOL   H21433184   2.706   7.444   4.864  1.9811 -3.0776 -0.8131
   36MOL   H21533185   2.600   7.511   5.089 -0.4887 -0.8736 -0.9781
   36MOL   H21633186   2.654   7.651   5.000 -1.2455 -0.3243  0.7757
   36MOL   H21733187   2.710   7.656   5.231 -0.0188 -1.3682  1.1175
   36MOL   H21833188   2.781   7.494   5.216  2.6399 -0.3396 -1.2718
   36MOL   H21933189   2.873   7.761   5.072 -0.3412  0.0193  0.5668
   36MOL   H22033190   2.959   7.603   5.076  3.3294  1.8410  1.1286
   36MOL   H22133191   2.921   7.777   5.301  0.8510  1.6760 -2.0308
   36MOL   H22233192   2.982   7.611   5.317  1.0515  1.4632  2.0034
   36MOL   H22333193   3.115   7.836   5.148 -1.8461 -0.6111 -0.2909
   36MOL   H22433194   3.152   7.800   5.319 -0.4318  1.7815 -0.8324
   36MOL   H22533195   3.234   7.595   5.276  3.9135  0.1800 -0.6732
   36MOL   H22633196   3.158   7.597   5.107  0.1899 -0.1563  0.5634
   36MOL   H22733197   3.332   7.794   5.067 -0.7107 -0.1143  0.0742
   36MOL   H22833198   3.401   7.741   5.213 -0.0801  0.3607  0.5098
   36MOL   H22933199   3.353   7.552   4.987  0.4806 -0.0968 -1.5118
   36MOL   H23033200   3.444   7.498   5.123  2.4011 -0.5040 -1.2212
   36MOL   H23133201   3.633   7.532   5.005  0.8104  0.6535  4.6120
   36MOL   H23233202   3.616   7.703   5.054  1.9092 -0.7625 -1.2425
   36MOL   H23333203   3.687   7.926   4.615 -0.4259  0.6561 -1.3273
   36MOL   H23433204   3.677   7.917   4.374  0.3516 -0.2229  0.8296
   36MOL   H23533205   3.491   7.526   4.418 -1.3100  0.2171  0.4901
   36MOL   H23633206   3.519   7.532   4.644 -1.0780 -1.4805 -4.3558
   36MOL   O23733207   3.684   7.765   4.017 -0.1477  0.6988 -0.2245
   36MOL   C23833208   3.798   7.686   3.986 -0.0782  0.4667  0.1316
   36MOL   C23933209   3.830   7.707   3.841 -0.0501  0.6892  0.4505
   36MOL   C24033210   3.941   7.620   3.777  0.1029 -0.8803 -0.0061
   36MOL   C24133211   3.987   7.666   3.636  0.1265  0.4457  0.6257
   36MOL   C24233212   4.081   7.786   3.632 -0.3772  0.3052  0.3620
   36MOL   C24333213   4.095   7.855   3.495 -0.6018  0.5126 -0.2168
   36MOL   C24433214   4.176   7.775   3.389  0.2132  0.7658  0.1136
   36MOL   C24533215   4.216   7.857   3.259 -0.4890  0.4421 -0.7275
   36MOL   C24633216   4.293   7.781   3.154  0.1316 -0.0840 -0.1615
   36MOL   C24733217   4.360   7.868   3.046 -0.2713  0.2677 -0.7230
   36MOL   O24833218   4.474   7.933   3.103 -0.1861  0.1190 -0.0881
   36MOL   C24933219   4.563   0.017   3.024  0.0536  0.5238  0.3809
   36MOL   O25033220   4.555   0.028   2.904 -0.1602  0.3162 -0.1730
   36MOL   C25133221   4.679   0.077   3.106 -0.0882 -0.0352  0.0157
   36MOL   C25233222   4.685   0.066   3.250 -0.9617 -0.4150 -0.5538
   36MOL   C25333223   4.784   0.139   3.326 -0.2550  0.8353  0.4816
   36MOL   C25433224   4.881   0.209   3.249 -0.4176 -0.0294 -0.6351
   36MOL   C25533225   4.991   0.284   3.313 -0.1946 -0.4163  0.8042
   36MOL   O25633226   5.050   0.382   3.262 -0.0914 -0.2149  0.5920
   36MOL   O25733227   5.026   0.235   3.432  0.0520  0.5137  0.7126
   36MOL   C25833228   4.872   0.224   3.108  0.9108  0.6396  0.5229
   36MOL   C25933229   4.773   0.155   3.037 -0.3706 -0.2467  0.3278
   36MOL   H26033230   3.880   7.718   4.050 -0.4306  0.7465  0.4475
   36MOL   H26133231   3.771   7.584   4.014  3.1948 -1.3195 -2.7101
   36MOL   H26233232   3.858   7.811   3.830 -1.9128  1.0865 -0.7840
   36MOL   H26333233   3.739   7.695   3.781 -0.8211 -1.1492  1.9238
   36MOL   H26433234   4.029   7.615   3.841  0.1521  0.7782  0.0810
   36MOL   H26533235   3.925   7.512   3.773  0.5369 -0.8859 -2.0749
   36MOL   H26633236   3.898   7.693   3.579  1.1444  0.7343 -0.8753
   36MOL   H26733237   4.019   7.578   3.580 -0.4281  0.1422  0.7833
   36MOL   H26833238   4.051   7.850   3.715 -0.9950 -0.1794  0.5131
   36MOL   H26933239   4.182   7.755   3.662 -1.3773 -0.8261  2.6364
   36MOL   H27033240   3.997   7.893   3.465 -0.9014 -0.0741 -0.0049
   36MOL   H27133241   4.154   7.943   3.519  0.1870 -0.3161  0.9397
   36MOL   H27233242   4.274   7.745   3.427 -0.7616 -1.8330  0.6791
   36MOL   H27333243   4.117   7.686   3.366 -1.0977  1.7008 -0.1601
   36MOL   H27433244   4.131   7.904   3.210 -1.7814 -0.0233  1.0246
   36MOL   H27533245   4.290   7.933   3.282  2.3038 -1.8112 -1.8915
   36MOL   H27633246   4.229   7.717   3.094 -0.6225 -1.0924  1.6609
   36MOL   H27733247   4.358   7.706   3.198 -2.2752 -2.6943 -0.9577
   36MOL   H27833248   4.290   7.942   3.008 -0.0776  1.2194  0.7123
   36MOL   H27933249   4.392   7.820   2.954  2.1658 -0.5757  0.5168
   36MOL   H28033250   4.603   0.027   3.310 -0.5123 -2.3273 -1.1892
   36MOL   H28133251   4.793   0.131   3.433  0.3899  0.3488  0.3967
   36MOL   H28233252   4.939   0.295   3.062  1.9006  0.1363  1.1688
   36MOL   H28333253   4.766   0.160   2.929  0.4412 -0.5238  0.2579
   36MOL   O28433254   5.137   0.314   3.497 -0.6458  0.3060  0.1631
   36MOL   C28533255   5.094   0.334   3.633 -0.1538 -0.0823 -0.5034
   36MOL   C28633256   5.072   0.208   3.711 -0.3427 -0.6228  0.0351
   36MOL   C28733257   5.072   0.215   3.867  0.6303 -0.2049 -0.5004
   36MOL   C28833258   5.005   0.084   3.926  0.0738 -0.2227  0.0658
   36MOL   C28933259   5.038   0.057   4.070  0.0506  0.2349 -0.7759
   36MOL   C29033260   4.943   7.938   4.144  1.0310  0.0028 -0.2062
   36MOL   C29133261   4.975   7.918   4.290  0.1438 -0.2043  0.4242
   36MOL   C29233262   4.909   7.803   4.360  0.1173  0.5366  0.7022
   36MOL   C29333263   4.999   7.673   4.368  0.4915 -0.5767  0.5114
   36MOL   C29433264   4.931   7.566   4.451  0.4636  0.0622 -0.5082
   36MOL   O29533265   4.905   7.621   4.579 -0.3533  0.0685 -0.0318
   36MOL   C29633266   4.822   7.559   4.665 -0.7771  0.0238  0.1127
   36MOL   O29733267   4.775   7.439   4.648 -0.1231  0.2857  0.0886
   36MOL   C29833268   4.803   7.639   4.791 -0.0657  0.1934  0.0676
   36MOL   C29933269   4.854   7.771   4.800 -0.2448  0.3421  0.1626
   36MOL   C30033270   4.868   7.832   4.922  0.0469 -0.1446 -0.2997
   36MOL   C30133271   4.810   7.769   5.040  0.0171  0.7766  0.3322
   36MOL   C30233272   4.819   7.850   5.169  0.4234 -0.2480 -0.4074
   36MOL   O30333273   4.884   7.956   5.188 -0.1866  0.6559  0.3851
   36MOL   O30433274   4.734   7.797   5.262  0.0465  0.1327  0.0204
   36MOL   C30533275   4.745   7.646   5.028 -0.5116 -0.3586 -0.0535
   36MOL   C30633276   4.734   7.582   4.899  0.3370 -0.3422 -0.1965
   36MOL   H30733277   5.180   0.382   3.681 -0.6142 -0.5678  0.8305
   36MOL   H30833278   5.022   0.415   3.622  1.0726  0.9045 -1.5361
   36MOL   H30933279   5.146   0.136   3.676  0.1647  0.2218 -0.6334
   36MOL   H31033280   4.975   0.175   3.672 -1.8169  2.6406  0.7547
   36MOL   H31133281   5.167   0.236   3.915  0.7114 -0.3006 -0.6200
   36MOL   H31233282   5.011   0.303   3.889  2.4181  0.6427  1.2258
   36MOL   H31333283   5.052   7.976   3.877 -1.5447 -1.8993  1.4113
   36MOL   H31433284   4.898   0.092   3.905 -0.1773  1.2836  1.8451
   36MOL   H31533285   5.139   0.021   4.084  0.4316  1.5342 -0.0704
   36MOL   H31633286   5.025   0.153   4.120  0.8217 -0.6408  1.1412
   36MOL   H31733287   4.837   7.958   4.126  1.3695  1.5062 -0.5410
   36MOL   H31833288   4.948   7.839   4.100  0.4323  0.4861 -1.3809
   36MOL   H31933289   5.082   7.924   4.308  0.1071  0.5376  0.4069
   36MOL   H32033290   4.934   0.027   4.341  2.2677  0.7312  0.5792
   36MOL   H32133291   4.887   7.840   4.459  2.5295  1.2373  1.0138
   36MOL   H32233292   4.816   7.792   4.304  0.5669  3.2451 -0.6624
   36MOL   H32333293   5.095   7.699   4.412 -0.5053  0.4247  2.1012
   36MOL   H32433294   5.024   7.638   4.267 -3.7596  2.5356 -1.7841
   36MOL   H32533295   5.004   7.487   4.464 -0.3225 -0.3624  1.5649
   36MOL   H32633296   4.840   7.531   4.402 -0.3545  0.7928  0.4571
   36MOL   H32733297   4.907   7.825   4.723  0.4739  2.0156  1.7832
   36MOL   H32833298   4.908   7.932   4.924  1.3101 -0.6502  0.4194
   36MOL   H32933299   4.697   7.593   5.109  0.8937 -1.1428  0.2760
   36MOL   H33033300   4.694   7.482   4.892 -0.4653 -0.0698  0.4773
   36MOL   O33133301   4.717   7.880   5.394 -0.5960 -0.8164 -0.5869
   36MOL   C33233302   4.823   7.857   5.492 -0.4804 -1.1844  0.4870
   36MOL   C33333303   4.826   7.729   5.567  0.0960 -0.2625  0.0973
   36MOL   C33433304   4.833   7.609   5.478 -0.8427  0.6890 -0.3976
   36MOL   C33533305   4.962   7.586   5.406 -0.2876  0.2768  1.1738
   36MOL   C33633306   4.956   7.449   5.336 -0.3781 -0.1825  0.1798
   36MOL   C33733307   5.078   7.419   5.241  0.4208 -0.4393 -0.3344
   36MOL   C33833308   5.092   7.274   5.206 -0.1022  0.3833  0.1029
   36MOL   C33933309   5.223   7.256   5.130 -0.1907  0.9655 -0.4827
   36MOL   C34033310   5.226   7.122   5.051 -0.3289  0.2864  0.6660
   36MOL   C34133311   5.344   7.113   4.960  0.1914  0.0679  0.3004
   36MOL   O34233312   5.460   7.121   5.044  0.1644  0.0263  0.8729
   36MOL   C34333313   5.509   7.016   5.103  0.2808  0.2221  0.1043
   36MOL   O34433314   5.477   6.902   5.084 -0.2453  0.4745 -0.1592
   36MOL   C34533315   5.619   7.054   5.197 -0.7286 -0.7739 -0.0308
   36MOL   C34633316   5.631   7.182   5.246 -0.4218 -0.2198  0.0329
   36MOL   C34733317   5.742   7.216   5.328  0.1493  0.6378 -0.4124
   36MOL   C34833318   5.835   7.119   5.369 -0.7150 -0.3297 -0.4651
   36MOL   C34933319   5.950   7.146   5.461 -0.3120  0.1323  0.5260
   36MOL   O35033320   6.039   7.062   5.484 -0.0637  0.0916  0.5209
   36MOL   O35133321   5.946   7.264   5.521 -0.0104 -0.6051  0.2553
   36MOL   C35233322   5.823   6.989   5.316  0.3071  0.3175  0.1696
   36MOL   C35333323   5.711   6.957   5.240 -0.4324  0.2857  0.7849
   36MOL   H35433324   4.917   7.877   5.439 -0.9822  0.0025  0.0198
   36MOL   H35533325   4.812   7.946   5.555 -0.3669 -0.9002  0.1123
   36MOL   H35633326   4.732   7.718   5.621  1.0565  0.9104  2.0901
   36MOL   H35733327   4.907   7.726   5.640 -1.2483  1.3970  1.7139
   36MOL   H35833328   4.805   7.522   5.537 -1.8873  0.6016 -1.0108
   36MOL   H35933329   4.749   7.615   5.409 -0.0267  0.6877 -1.3875
   36MOL   H36033330   5.045   7.581   5.476  0.0900 -1.9470  0.6263
   36MOL   H36133331   4.990   7.666   5.338  0.8934 -0.5512  0.6675
   36MOL   H36233332   4.931   7.377   5.414 -0.1711  0.0105  0.4209
   36MOL   H36333333   4.873   7.451   5.264 -0.6167 -1.5568  0.3994
   36MOL   H36433334   5.070   7.477   5.149 -0.2323 -2.7232 -1.7718
   36MOL   H36533335   5.163   7.457   5.297  1.0347 -1.3657 -0.6346
   36MOL   H36633336   5.082   7.218   5.299  0.1892  1.8346  1.0323
   36MOL   H36733337   5.010   7.246   5.141 -2.3127  2.0839  2.0606
   36MOL   H36833338   5.233   7.336   5.057 -2.2393  2.6797  1.0795
   36MOL   H36933339   5.305   7.266   5.201 -0.5563 -0.0673  0.1005
   36MOL   H37033340   5.140   7.133   4.986 -1.7384  0.1897  2.4719
   36MOL   H37133341   5.221   7.033   5.114  1.2824 -0.0825  0.3010
   36MOL   H37233342   5.332   7.196   4.892 -0.5328  0.7813  1.2763
   36MOL   H37333343   5.345   7.016   4.910  1.0629 -0.4243  1.2580
   36MOL   H37433344   5.563   7.262   5.222  1.0521  0.5278 -1.8126
   36MOL   H37533345   5.746   7.314   5.371 -2.3666  0.6897 -0.2197
   36MOL   H37633346   5.900   6.916   5.331  0.4463  0.1015 -1.5375
   36MOL   H37733347   5.709   6.862   5.189  1.0337  1.5216 -1.6303
   36MOL   O37833348   6.054   7.276   5.621 -0.5886 -0.5117  0.6716
   36MOL   C37933349   6.135   7.377   5.578 -0.3854 -0.0698  0.7094
   36MOL   C38033350   6.234   7.406   5.694 -0.6760  0.3071  0.0826
   36MOL   C38133351   6.360   7.496   5.658  0.0316  0.2637 -0.2658
   36MOL   C38233352   6.452   7.512   5.785  0.9532 -0.0808 -0.1438
   36MOL   C38333353   6.573   7.609   5.773  0.4394  0.7690 -0.2032
   36MOL   C38433354   6.650   7.640   5.905 -0.5488 -0.0020 -0.0902
   36MOL   C38533355   6.738   7.761   5.870 -0.1881 -0.6672  0.6808
   36MOL   C38633356   6.817   7.809   5.992 -0.0035  0.4980 -0.9962
   36MOL   C38733357   6.736   7.872   6.103 -0.1840 -0.0071 -0.1422
   36MOL   C38833358   6.682   0.029   6.072 -0.0551 -0.1552  0.3664
   36MOL   O38933359   6.563   0.001   5.993 -0.1302 -0.0682 -0.2015
   36MOL   C39033360   6.460   0.079   5.997  0.9868  0.0570  0.2774
   36MOL   O39133361   6.462   0.196   6.034 -0.0878 -0.1313  0.4387
   36MOL   C39233362   6.334   0.009   5.959  0.1710  0.8939  0.3261
   36MOL   C39333363   6.318   7.847   5.960  0.3076  0.1223 -0.4619
   36MOL   C39433364   6.204   7.783   5.908  0.1899  0.1753 -0.1927
   36MOL   C39533365   6.094   7.858   5.864  1.1041 -0.5169  0.3391
   36MOL   C39633366   5.969   7.791   5.806 -1.1322  0.2431 -0.7511
   36MOL   O39733367   5.863   7.853   5.792  0.4765  0.1027  0.4270
   36MOL   O39833368   5.988   7.670   5.768  1.1574 -0.2908 -0.4405
   36MOL   C39933369   6.102   0.024   5.869 -0.0939 -0.1267  0.0130
   36MOL   C40033370   6.224   0.082   5.916 -0.1489  0.3423 -0.5950
   36MOL   H40133371   6.183   7.352   5.484 -0.5707 -0.7680  0.7984
   36MOL   H40233372   6.063   7.458   5.564  2.4344  2.4651  0.3462
   36MOL   H40333373   6.263   7.308   5.729 -0.1534 -0.0068 -1.1887
   36MOL   H40433374   6.174   7.454   5.771 -1.3031  0.2358 -0.3593
   36MOL   H40533375   6.416   7.443   5.580  1.5203  2.7142 -0.9120
   36MOL   H40633376   6.325   7.594   5.627  0.1440  1.0550  2.0614
   36MOL   H40733377   6.481   7.425   5.844 -1.8982 -0.8807  0.1556
   36MOL   H40833378   6.386   7.553   5.861  1.3508  0.8753 -0.3128
   36MOL   H40933379   6.628   7.559   5.694 -1.2063  0.5779 -1.2416
   36MOL   H41033380   6.544   7.700   5.720 -1.0957  0.3376 -0.1332
   36MOL   H41133381   6.578   7.658   5.985 -0.8132 -0.2730 -0.2714
   36MOL   H41233382   6.710   7.553   5.932  0.0695  0.4912  0.1625
   36MOL   H41333383   6.800   7.732   5.785 -0.1456  3.2361 -0.7140
   36MOL   H41433384   6.671   7.835   5.827 -0.2227 -0.6454  0.7725
   36MOL   H41533385   6.879   7.730   6.033 -0.4566  0.0445 -1.1771
   36MOL   H41633386   6.891   7.883   5.963  0.3912  0.5717  0.1860
   36MOL   H41733387   6.811   7.888   6.181  0.8408  0.2012 -1.1485
   36MOL   H41833388   6.654   7.809   6.135  0.5534  0.0183  1.8248
   36MOL   H41933389   6.748   0.081   6.002  0.2648  1.0232  1.5312
   36MOL   H42033390   6.664   0.082   6.165  3.1153  0.8136  0.4776
   36MOL   H42133391   6.398   7.782   5.993 -0.2356  0.0176  0.6660
   36MOL   H42233392   6.200   7.675   5.899  1.1561  0.1159  0.0262
   36MOL   H42333393   6.018   0.082   5.834  0.7343  1.4232  0.5467
   36MOL   H42433394   6.233   0.190   5.912  2.0780  0.2563  1.2187
   36MOL   O42533395   5.862   7.615   5.720 -0.1898 -0.3323 -0.1723
   36MOL   C42633396   5.828   7.502   5.806 -0.5470  0.3829  0.3046
   36MOL   C42733397   5.710   7.428   5.747  0.0050  0.3372  0.6212
   36MOL   C42833398   5.669   7.288   5.806 -0.0299  0.5886  0.1722
   36MOL   C42933399   5.635   7.296   5.961 -0.4247  0.3467 -0.1683
   36MOL   C43033400   5.477   7.286   5.977 -0.1665  0.5222  0.0427
   36MOL   C43133401   5.389   7.385   5.912  0.2103 -0.3651  0.8381
   36MOL   C43233402   5.244   7.370   5.958 -0.0085  0.3163  0.1275
   36MOL   C43333403   5.146   7.463   5.892  0.2903 -0.5486  0.4076
   36MOL   C43433404   5.019   7.487   5.978  0.5209 -0.1936 -0.1665
   36MOL   C43533405   4.908   7.530   5.883 -0.0478  0.2280 -0.0331
   36MOL   O43633406   4.804   7.610   5.948  0.0389 -0.0941  0.4258
   36MOL   C43733407   4.679   7.613   5.887 -0.2856  0.1836  0.5022
   36MOL   O43833408   4.638   7.546   5.791 -0.0240 -0.0985  0.1182
   36MOL   C43933409   4.598   7.718   5.951  0.6067  0.3698  0.4191
   36MOL   C44033410   4.634   7.761   6.083  0.1032  0.1189  0.6228
   36MOL   C44133411   4.552   7.848   6.161  0.6384  0.5444  0.0981
   36MOL   C44233412   4.439   7.905   6.094 -0.3482  0.0079  0.4034
   36MOL   C44333413   4.347   0.021   6.160 -0.9247  0.1890  0.2261
   36MOL   O44433414   4.383   0.079   6.264  0.1823  0.0809 -0.2792
   36MOL   O44533415   4.232   0.029   6.099  0.1267 -0.5482 -0.1460
   36MOL   C44633416   4.412   7.867   5.959  0.2555 -0.5863  0.5062
   36MOL   C44733417   4.488   7.778   5.886 -0.1907  0.0667  0.0851
   36MOL   H44833418   5.916   7.439   5.815  0.0929  1.4547  1.8191
   36MOL   H44933419   5.817   7.522   5.913  0.9406  0.3464  0.4799
   36MOL   H45033420   5.738   7.410   5.643 -3.5483  0.9852 -0.5014
   36MOL   H45133421   5.617   7.484   5.737 -0.6243 -0.4666  1.8981
   36MOL   H45233422   5.587   7.249   5.746 -1.5270  1.2696  1.7313
   36MOL   H45333423   5.756   7.224   5.797 -0.5797 -0.4512  2.1042
   36MOL   H45433424   5.671   7.389   6.005  0.5611 -0.1598  0.1163
   36MOL   H45533425   5.684   7.210   6.008  0.0209  0.1117 -1.0407
   36MOL   H45633426   5.439   7.185   5.959 -1.0277  0.7034  0.8172
   36MOL   H45733427   5.454   7.303   6.082  1.6215 -0.0037  0.5301
   36MOL   H45833428   5.428   7.484   5.937  1.2647 -0.1441 -1.5942
   36MOL   H45933429   5.398   7.376   5.804  0.0032  1.1149  0.6893
   36MOL   H46033430   5.215   7.271   5.922  1.7516 -0.4705  0.8671
   36MOL   H46133431   5.235   7.378   6.066  0.6847 -0.9183  0.2734
   36MOL   H46233432   5.198   7.555   5.866 -0.5502 -0.6298 -1.7697
   36MOL   H46333433   5.120   7.426   5.793  1.5719  0.1637 -0.2071
   36MOL   H46433434   5.019   7.559   6.060 -0.4274 -1.2169  0.7442
   36MOL   H46533435   4.995   7.394   6.028  1.6082 -0.4392 -0.0814
   36MOL   H46633436   4.876   7.429   5.857  1.9196 -0.5502  0.4417
   36MOL   H46733437   4.952   7.584   5.798 -0.1492  1.9904  1.0216
   36MOL   H46833438   4.714   7.712   6.137  0.1278  0.4103  0.8500
   36MOL   H46933439   4.565   7.851   6.268 -2.1952  1.3988  0.4641
   36MOL   H47033440   4.327   7.906   5.906  0.2266 -1.2926  0.0335
   36MOL   H47133441   4.467   7.753   5.783  1.6308 -1.5677  0.0778
   36MOL   O47233442   4.132   0.119   6.164 -0.5548 -0.2373  0.2597
   36MOL   C47333443   4.061   0.045   6.258 -0.0311  0.8034 -0.1126
   36MOL   C47433444   3.974   7.905   6.199  0.5127  0.1588 -0.6927
   36MOL   C47533445   4.037   7.769   6.174  0.0146 -0.3095 -0.0989
   36MOL   C47633446   3.958   7.676   6.083  0.3487  0.3076 -0.2135
   36MOL   C47733447   4.012   7.534   6.062 -0.3224 -0.6656  0.0322
   36MOL   C47833448   3.900   7.438   6.022 -0.4789 -0.1750  0.1460
   36MOL   C47933449   3.945   7.292   6.006  0.5164  0.1835  0.0716
   36MOL   C48033450   3.956   7.222   6.137 -0.2395 -0.1138 -0.4780
   36MOL   C48133451   4.081   7.128   6.155  0.3751 -0.3109  0.8994
   36MOL   C48233452   4.055   7.030   6.266  0.0131  0.5799  1.0047
   36MOL   O48333453   4.174   6.954   6.299 -0.3260 -0.2404 -0.6731
   36MOL   C48433454   4.176   6.892   6.423 -0.5625  0.9168 -0.9092
   36MOL   O48533455   4.093   6.916   6.510  0.4739 -0.1528  0.3386
   36MOL   C48633456   4.291   6.796   6.439 -0.1730 -0.1434 -0.3959
   36MOL   C48733457   4.414   6.832   6.374  0.1537  0.1302 -0.3608
   36MOL   C48833458   4.528   6.746   6.378 -0.4719 -0.0353  0.5090
   36MOL   C48933459   4.518   6.628   6.452 -0.0932  0.0746  0.6421
   36MOL   C49033460   4.634   6.538   6.478 -0.4044  0.4107 -0.9699
   36MOL   O49133461   4.625   6.425   6.529  0.6758  0.1789 -0.1869
   36MOL   O49233462   4.748   6.585   6.426  0.1394  0.4823 -0.2267
   36MOL   C49333463   4.395   6.592   6.506 -0.5263  0.5348 -0.4678
   36MOL   C49433464   4.285   6.678   6.514  0.2802  0.0845  0.2009
   36MOL   H49533465   4.125   0.010   6.338  0.0798  0.9608 -0.1333
   36MOL   H49633466   3.989   0.112   6.304  1.4337  2.3213  0.0264
   36MOL   H49733467   3.912   7.937   6.116 -1.1750  0.8210  0.7845
   36MOL   H49833468   3.897   7.883   6.274  0.4112  1.0801 -0.5212
   36MOL   H49933469   4.127   7.790   6.118 -0.0395  2.0320  0.6297
   36MOL   H50033470   4.068   7.720   6.266  0.6014 -1.7277 -1.0316
   36MOL   H50133471   3.961   7.725   5.986 -1.9431  2.2433  0.6259
   36MOL   H50233472   3.853   7.679   6.110  1.2471  1.3922  3.5931
   36MOL   H50333473   4.092   7.534   5.988 -0.7371  1.4160 -0.4465
   36MOL   H50433474   4.058   7.498   6.154  1.6289  1.5439 -0.0241
   36MOL   H50533475   3.818   7.440   6.093 -0.9797  0.0775 -0.4413
   36MOL   H50633476   3.850   7.470   5.930 -1.0323 -0.0334  0.4946
   36MOL   H50733477   3.857   7.248   5.960  0.4914 -1.4712  1.6520
   36MOL   H50833478   4.035   7.282   5.945  0.2415 -0.2502 -0.2658
   36MOL   H50933479   3.962   7.304   6.209 -1.6911 -0.1228 -0.3316
   36MOL   H51033480   3.864   7.165   6.147 -1.4535  1.8955 -0.0804
   36MOL   H51133481   4.176   7.177   6.179  0.2723 -0.0916  0.8619
   36MOL   H51233482   4.097   7.081   6.058 -3.6496 -1.6102  0.7718
   36MOL   H51333483   3.964   6.972   6.248  0.3413  0.0998  0.8801
   36MOL   H51433484   4.026   7.087   6.354 -2.2601  1.6074 -0.3784
   36MOL   H51533485   4.425   6.923   6.317 -0.0864  1.3310  1.4697
   36MOL   H51633486   4.620   6.787   6.338 -2.2064  1.0183 -2.5531
   36MOL   H51733487   4.385   6.493   6.550  0.9362  0.7250  0.3348
   36MOL   H51833488   4.199   6.664   6.578 -1.1246 -2.2059 -2.1195
   36MOL   O51933489   4.878   6.504   6.456 -0.1394  0.1373  0.1103
   36MOL   C52033490   4.943   6.572   6.566  0.3278  0.1270 -0.0282
   36MOL   C52133491   4.971   6.725   6.530 -0.3673  0.7288  0.4713
   36MOL   C52233492   5.018   6.805   6.659 -0.1915  0.1313 -0.4838
   36MOL   C52333493   5.069   6.945   6.618 -0.8327  0.4775 -0.7669
   36MOL   C52433494   5.129   7.024   6.728 -0.0249 -0.7002 -0.0947
   36MOL   C52533495   5.195   7.159   6.686  0.5119  0.3487 -0.3282
   36MOL   C52633496   5.296   7.207   6.793  0.3779  0.0792  0.2428
   36MOL   C52733497   5.237   7.278   6.913  0.6197 -1.0495 -0.5324
   36MOL   C52833498   5.339   7.295   7.027 -0.7750  0.0022  0.2854
   36MOL   C52933499   5.291   7.366   7.153  0.0893  0.2461  0.4446
   36MOL   O53033500   5.379   7.369   7.264  0.0358  0.3370 -0.0730
   36MOL   C53133501   5.391   7.260   7.339 -0.1749  0.0568  0.2178
   36MOL   O53233502   5.333   7.152   7.324  0.2908  0.0186  0.7518
   36MOL   C53333503   5.490   7.283   7.444  0.3618  0.2259 -0.0857
   36MOL   C53433504   5.531   7.409   7.482 -0.5147  0.1627 -0.0975
   36MOL   C53533505   5.622   7.426   7.590  0.1542 -0.5814  0.4925
   36MOL   C53633506   5.675   7.316   7.658 -0.7212 -0.5962  0.2064
   36MOL   C53733507   5.780   7.331   7.765  0.0531  0.1815  0.4707
   36MOL   O53833508   5.819   7.437   7.814  0.0454 -0.1492 -0.0931
   36MOL   O53933509   5.816   7.208   7.806  0.2675  0.0775  0.2905
   36MOL   C54033510   5.631   7.187   7.619 -0.0755 -0.3917  0.6557
   36MOL   C54133511   5.544   7.173   7.509  0.1117  0.7698  0.1544
   36MOL   H54233512   4.871   6.575   6.648  1.3595  1.5117  0.8556
   36MOL   H54333513   5.026   6.509   6.598 -2.8311 -3.4928  1.5334
   36MOL   H54433514   4.885   6.784   6.498 -1.5152 -0.7449  0.8244
   36MOL   H54533515   5.038   6.720   6.444 -0.3067  1.9133  0.4389
   36MOL   H54633516   4.939   6.827   6.731 -0.2169 -1.4286 -0.0167
   36MOL   H54733517   5.099   6.758   6.714  0.7063 -0.0912 -1.9834
   36MOL   H54833518   4.986   7.000   6.573 -1.5985  0.9805  1.1897
   36MOL   H54933519   5.143   6.943   6.538  0.7500 -0.7587  0.6892
   36MOL   H55033520   5.050   7.036   6.802  0.6691 -1.3058  0.7465
   36MOL   H55133521   5.205   6.964   6.777  0.1691  0.2676  0.8208
   36MOL   H55233522   5.256   7.142   6.597 -0.3314 -2.4264 -0.3988
   36MOL   H55333523   5.123   7.239   6.670 -1.3395 -0.9767  1.2563
   36MOL   H55433524   5.363   7.126   6.824 -1.0909 -0.7420  1.3395
   36MOL   H55533525   5.361   7.282   6.749 -1.7298  0.6188 -2.0252
   36MOL   H55633526   5.205   7.378   6.884 -0.5820 -0.2509  3.2018
   36MOL   H55733527   5.155   7.222   6.958 -0.8929  0.8099 -0.9091
   36MOL   H55833528   5.424   7.354   6.990 -1.1814 -1.6404 -3.4804
   36MOL   H55933529   5.376   7.196   7.053  1.5606  1.3032  2.0389
   36MOL   H56033530   5.190   7.336   7.181 -0.5786  2.0318  0.0450
   36MOL   H56133531   5.282   7.470   7.120 -0.1252  0.0209 -0.2221
   36MOL   H56233532   5.486   7.497   7.438 -0.7418 -1.2282 -2.7906
   36MOL   H56333533   5.644   7.526   7.623  0.2155 -0.5676  0.4082
   36MOL   H56433534   5.666   7.098   7.669 -1.7109 -1.7828 -0.6056
   36MOL   H56533535   5.511   7.077   7.472 -2.3186  1.3345  0.7610
   36MOL   O56633536   5.876   7.206   7.942 -0.1003 -0.3482 -0.4287
   36MOL   C56733537   5.774   7.159   0.047 -0.0251  0.1626  0.9260
   36MOL   C56833538   5.832   7.137   0.187  0.2019  0.6033 -0.3566
   36MOL   C56933539   5.736   7.078   0.297 -0.5017 -0.1200  0.3072
   36MOL   C57033540   5.810   7.018   0.414 -0.1206 -0.2529 -0.1628
   36MOL   C57133541   5.725   6.956   0.529 -0.4871 -0.3643  0.8097
   36MOL   C57233542   5.814   6.906   0.645  0.1087  0.0228  0.2147
   36MOL   C57333543   5.721   6.862   0.756  0.0579  1.4523  0.0214
   36MOL   C57433544   5.798   6.830   0.879 -0.3146 -0.4624 -0.5236
   36MOL   C57533545   5.711   6.802   1.011 -0.3257  0.2528 -0.0505
   36MOL   C57633546   5.797   6.803   1.143 -0.0626 -0.6590  0.5610
   36MOL   O57733547   5.839   6.943   1.162  0.8328 -0.0679 -0.7582
   36MOL   C57833548   5.873   7.002   1.277  0.1826 -0.0409  0.2301
   36MOL   O57933549   5.901   6.936   1.377  0.3483 -0.4310 -0.2977
   36MOL   C58033550   5.889   7.150   1.265  0.5324  0.4163 -0.1562
   36MOL   C58133551   5.891   7.218   1.148  0.1059  0.0921  0.0559
   36MOL   C58233552   5.891   7.361   1.150 -0.0152  0.0377 -0.1114
   36MOL   C58333553   5.888   7.423   1.277  1.2681  0.2731  0.1027
   36MOL   C58433554   5.887   7.575   1.279 -0.2965  0.1739  0.0218
   36MOL   O58533555   5.884   7.647   1.383  0.5889 -0.4342 -0.5761
   36MOL   O58633556   5.889   7.635   1.158  0.2582  0.5977  0.2995
   36MOL   C58733557   5.887   7.352   1.401 -0.8117 -0.1988  0.2032
   36MOL   C58833558   5.895   7.215   1.392  0.1488 -0.3875 -0.4141
   36MOL   H58933559   5.701   7.240   0.049 -1.3165 -0.9695  0.1606
   36MOL   H59033560   5.725   7.071   0.007 -1.8615  2.0885 -1.2558
   36MOL   H59133561   5.884   7.227   0.219 -1.4526  1.6958 -0.7031
   36MOL   H59233562   5.920   7.073   0.173  0.8509  1.3951  0.0995
   36MOL   H59333563   5.672   7.158   0.334 -0.1333  1.0080 -1.4656
   36MOL   H59433564   5.669   7.010   0.244  0.1055 -0.1938 -0.3682
   36MOL   H59533565   5.869   7.099   0.456 -0.9641 -0.5978  1.7722
   36MOL   H59633566   5.873   6.938   0.376  0.9647  0.8489 -0.7205
   36MOL   H59733567   5.650   7.027   0.563  0.8490  1.5084 -0.0523
   36MOL   H59833568   5.670   6.873   0.484 -0.6707 -0.2185  0.7651
   36MOL   H59933569   5.882   6.828   0.613 -1.2019 -0.7712 -0.6410
   36MOL   H60033570   5.889   6.981   0.674 -0.4569  0.9185 -0.5957
   36MOL   H60133571   5.659   6.946   0.787  0.6540  1.2343  1.8878
   36MOL   H60233572   5.663   6.775   0.725 -0.7094  1.2491  1.9630
   36MOL   H60333573   5.860   6.742   0.863 -1.7383 -2.0558  2.3016
   36MOL   H60433574   5.867   6.914   0.886  1.7496 -2.1930  0.6729
   36MOL   H60533575   5.660   6.707   1.002 -0.0516  0.2140 -1.1750
   36MOL   H60633576   5.637   6.882   1.019 -1.9747 -1.1842 -0.7456
   36MOL   H60733577   5.877   6.729   1.139  1.2722  0.7629  0.4876
   36MOL   H60833578   5.742   6.761   1.227  0.2014 -0.2590  0.9407
   36MOL   H60933579   5.879   7.165   1.055 -0.5035  1.2757 -0.5469
   36MOL   H61033580   5.878   7.411   1.055 -0.4995 -2.3588 -1.3464
   36MOL   H61133581   5.878   7.407   1.493  1.3042  0.2236  0.1692
   36MOL   H61233582   5.890   7.169   1.490 -1.1229  1.7235  0.5662
   36MOL   O61333583   5.849   7.782   1.160 -0.2956  0.0023  0.1261
   36MOL   C61433584   5.711   7.792   1.142 -0.2786 -0.2042 -0.4187
   36MOL   C61533585   5.683   7.938   1.149 -0.2532 -0.5779  0.2441
   36MOL   C61633586   5.563   0.010   1.068  0.3834  0.0185  0.0174
   36MOL   C61733587   5.435   0.007   1.151 -0.7422 -0.1175 -0.2214
   36MOL   C61833588   5.301   0.013   1.072  0.2392 -0.6954  0.3268
   36MOL   C61933589   5.183   0.051   1.170 -0.7629  0.3115  0.3411
   36MOL   C62033590   5.148   7.900   1.256  0.8260 -0.1085 -0.8881
   36MOL   C62133591   5.055   7.941   1.372  0.3335 -0.1952  0.1568
   36MOL   C62233592   4.989   7.816   1.441 -0.4062 -0.7274  0.3673
   36MOL   C62333593   4.909   7.854   1.568  0.0195  0.1625  0.4681
   36MOL   O62433594   4.814   7.949   1.523 -0.5614  0.1785  0.0433
   36MOL   C62533595   4.684   7.929   1.525 -0.0859 -0.2326 -0.2602
   36MOL   O62633596   4.626   7.830   1.576 -0.2934  0.2075 -0.2582
   36MOL   C62733597   4.602   0.062   1.477  0.0752  0.3125 -0.5631
   36MOL   C62833598   4.662   0.147   1.380  0.6089 -1.1804  0.4887
   36MOL   C62933599   4.591   0.257   1.331 -0.2238 -0.4745  0.1626
   36MOL   C63033600   4.452   0.271   1.372  0.5525  0.3284 -0.1801
   36MOL   C63133601   4.383   0.384   1.307 -1.0681  0.1681  0.8170
   36MOL   O63233602   4.436   0.456   1.218  0.3537  0.4071  0.7463
   36MOL   O63333603   4.261   0.408   1.357 -0.7178 -0.0211  0.6795
   36MOL   C63433604   4.386   0.186   1.459  1.1863  0.0511 -0.2284
   36MOL   C63533605   4.470   0.089   1.515 -0.0072  0.4217  0.5844
   36MOL   H63633606   5.683   7.739   1.051  1.3758 -1.6789 -0.0890
   36MOL   H63733607   5.659   7.741   1.224  0.4272 -0.3680 -0.0687
   36MOL   H63833608   5.768   0.005   1.098  0.3181 -0.3201  1.3860
   36MOL   H63933609   5.682   0.008   1.247 -0.5340  1.5471 -0.7726
   36MOL   H64033610   5.581   0.116   1.049 -0.0164  0.1476  0.3544
   36MOL   H64133611   5.554   7.947   0.967  1.3947  0.0358 -0.0881
   36MOL   H64233612   5.444   0.083   1.229  2.7512  0.8031 -1.4334
   36MOL   H64333613   5.434   7.895   1.213 -0.9550 -1.2332 -1.8287
   36MOL   H64433614   5.315   0.095   1.001  0.5027  1.2665  2.5513
   36MOL   H64533615   5.284   7.901   1.013  1.8162 -0.9852  0.3004
   36MOL   H64633616   5.229   0.125   1.235  0.4396  0.1150 -0.2515
   36MOL   H64733617   5.099   0.073   1.105 -0.7071 -2.1606 -0.6584
   36MOL   H64833618   5.109   7.825   1.187 -0.0611  1.0804 -1.6961
   36MOL   H64933619   5.237   7.862   1.306  0.2218 -1.0229 -0.4894
   36MOL   H65033620   5.120   0.018   1.439  1.7868 -0.2970 -1.1221
   36MOL   H65133621   4.980   0.030   1.330 -0.8258  0.5643  3.3503
   36MOL   H65233622   5.061   7.740   1.469  0.9242 -0.4605 -2.1950
   36MOL   H65333623   4.929   7.762   1.368 -0.6661  1.3529 -1.0086
   36MOL   H65433624   4.980   7.911   1.629  0.8514 -2.1042  1.6546
   36MOL   H65533625   4.876   7.763   1.618  2.8467 -1.5090 -0.5953
   36MOL   H65633626   4.764   0.140   1.346  0.8789 -0.2968  1.1041
   36MOL   H65733627   4.642   0.331   1.271  4.0089 -1.3206  2.5320
   36MOL   H65833628   4.284   0.197   1.490  1.3974 -0.5059  0.6978
   36MOL   H65933629   4.428   0.015   1.581  0.2165 -1.0940 -0.9655
   36MOL   O66033630   4.173   0.494   1.269  0.1090 -0.1453 -0.0223
   36MOL   C66133631   4.164   0.617   1.328 -0.1051 -0.0582  0.1452
   36MOL   C66233632   4.072   0.713   1.252  0.0172  0.0548  0.5027
   36MOL   C66333633   4.124   0.748   1.108  0.1796 -0.2435 -0.3192
   36MOL   C66433634   4.021   0.824   1.026 -0.6906 -0.1398 -0.1336
   36MOL   C66533635   4.078   0.876   0.891  0.3879 -0.2609  0.6216
   36MOL   C66633636   4.148   1.013   0.889  0.5170  0.2392 -0.0637
   36MOL   C66733637   4.181   1.062   0.743  0.2681  0.1379 -0.6925
   36MOL   C66833638   4.279   0.970   0.662 -0.5099 -0.0025  0.8572
   36MOL   C66933639   4.305   1.028   0.528 -0.6830 -0.2076 -0.1270
   36MOL   C67033640   4.387   0.937   0.432  0.1243  0.5237  0.0046
   36MOL   O67133641   4.319   0.818   0.419 -0.6413  0.3404  0.5372
   36MOL   C67233642   4.369   0.717   0.340 -0.1157  0.4813 -0.6670
   36MOL   O67333643   4.466   0.737   0.263 -0.5864 -0.3861  0.2335
   36MOL   C67433644   4.286   0.600   0.341  0.4953  0.0031  0.1948
   36MOL   C67533645   4.313   0.490   0.258 -0.5768  0.1147  0.3630
   36MOL   C67633646   4.233   0.376   0.249 -0.2910 -0.1443 -0.2736
   36MOL   C67733647   4.121   0.366   0.331  0.1074  0.6404 -0.4081
   36MOL   C67833648   4.043   0.237   0.348 -0.0464  0.2930  0.0490
   36MOL   O67933649   4.072   0.134   0.290 -0.2491  0.2650 -0.1006
   36MOL   O68033650   3.940   0.249   0.434  0.7000 -0.3950 -0.3257
   36MOL   C68133651   4.088   0.478   0.408 -0.2337  0.4826  0.8011
   36MOL   C68233652   4.171   0.590   0.415  1.0601 -0.1409 -0.8935
   36MOL   H68333653   4.133   0.607   1.432  1.8620 -1.6079  0.6043
   36MOL   H68433654   4.260   0.667   1.339  0.6607 -1.5045  0.2462
   36MOL   H68533655   4.074   0.804   1.312 -1.4639  1.1556 -1.0657
   36MOL   H68633656   3.968   0.681   1.249 -0.6925  2.3540 -1.0868
   36MOL   H68733657   4.205   0.818   1.125 -0.2031  0.0609  0.3027
   36MOL   H68833658   4.160   0.659   1.056  1.0427 -0.3650  0.4776
   36MOL   H68933659   3.967   0.903   1.079  0.8300  0.9738 -0.2260
   36MOL   H69033660   3.935   0.759   1.009 -0.3840 -0.4788 -0.3771
   36MOL   H69133661   4.153   0.800   0.866 -0.1361 -1.4807  2.6688
   36MOL   H69233662   3.990   0.877   0.827 -1.1816  0.7442  2.7472
   36MOL   H69333663   4.082   1.086   0.935  0.4917  0.0392  0.2173
   36MOL   H69433664   4.240   1.006   0.947  0.4863  0.2382 -0.0146
   36MOL   H69533665   4.095   1.078   0.678  0.2139  2.8807  0.0040
   36MOL   H69633666   4.240   1.153   0.752 -0.0978  0.2399  0.9620
   36MOL   H69733667   4.372   0.964   0.718 -0.3962  0.9621  0.7838
   36MOL   H69833668   4.232   0.872   0.655 -1.6124  0.5432  0.5326
   36MOL   H69933669   4.356   1.124   0.528 -1.7848  0.4042  0.7432
   36MOL   H70033670   4.221   1.052   0.463  1.5503  1.1584 -2.5752
   36MOL   H70133671   4.488   0.925   0.471 -0.5615 -2.2597  1.0577
   36MOL   H70233672   4.385   0.996   0.341 -0.6010 -0.0963 -0.3782
   36MOL   H70333673   4.403   0.495   0.200 -0.2624 -1.3197  0.6987
   36MOL   H70433674   4.243   0.296   0.177 -2.4592  0.2937 -1.0852
   36MOL   H70533675   4.000   0.479   0.472  0.3264 -0.0268  1.5905
   36MOL   H70633676   4.137   0.670   0.480 -1.2167 -1.0497 -0.9303
   36MOL   O70733677   3.851   0.133   0.455 -0.0265  0.1342 -0.5583
   36MOL   C70833678   3.863   0.081   0.586 -0.3047  0.6041 -0.1783
   36MOL   C70933679   3.798   0.178   0.692  0.7344  0.5732 -0.2468
   36MOL   C71033680   3.762   0.108   0.827  0.1913  0.4437 -0.1251
   36MOL   C71133681   3.668   0.200   0.904  0.5380 -0.3067 -0.5211
   36MOL   C71233682   3.641   0.143   1.045 -0.2311  0.0171 -0.5594
   36MOL   C71333683   3.746   0.153   1.153 -0.4290 -0.3132 -0.3094
   36MOL   C71433684   3.750   0.042   1.254 -0.1644  0.7824 -0.0238
   36MOL   C71533685   3.636   0.052   1.348  0.2637  0.6440  0.0390
   36MOL   C71633686   3.626   7.922   1.460  0.2850  0.3625 -0.1500
   36MOL   C71733687   3.708   7.945   1.590  0.5816 -0.5949  0.7373
   36MOL   O71833688   3.677   7.851   1.688  0.2357  0.4946 -0.3381
   36MOL   C71933689   3.724   7.722   1.681 -0.0399  0.1713 -0.0501
   36MOL   O72033690   3.818   7.691   1.606 -0.0864 -0.2435 -0.1419
   36MOL   C72133691   3.665   7.628   1.781 -0.6182 -0.3037 -0.1388
   36MOL   C72233692   3.745   7.527   1.835  0.5775  0.4648  0.0025
   36MOL   C72333693   3.692   7.440   1.930 -0.2165 -0.7008 -0.2350
   36MOL   C72433694   3.554   7.445   1.967 -0.0417  0.5044 -0.3145
   36MOL   C72533695   3.498   7.353   2.072 -0.2419 -0.2881  0.1517
   36MOL   O72633696   3.404   7.384   2.138 -0.4927 -0.0520  0.1451
   36MOL   O72733697   3.549   7.228   2.067  0.2493 -0.3912  0.4038
   36MOL   C72833698   3.473   7.551   1.917 -0.0652 -0.3980 -0.1849
   36MOL   C72933699   3.531   7.641   1.820  0.5334 -0.4947 -0.1171
   36MOL   H73033700   3.813   7.962   0.582  1.7769 -0.5602  1.3195
   36MOL   H73133701   3.966   0.056   0.610  0.6951  0.4376 -4.3405
   36MOL   H73233702   3.703   0.218   0.656  1.0633  0.8880 -0.7678
   36MOL   H73333703   3.861   0.266   0.706 -3.6279  3.7106  0.7897
   36MOL   H73433704   3.718   0.014   0.795  0.7491  1.0570 -2.8407
   36MOL   H73533705   3.854   0.097   0.886  0.9733  2.8554 -0.8333
   36MOL   H73633706   3.576   0.220   0.849 -1.1971 -3.3907  1.1581
   36MOL   H73733707   3.711   0.299   0.919  0.2251 -0.2823  0.2186
   36MOL   H73833708   3.550   0.186   1.086  0.1264  0.2547 -0.0008
   36MOL   H73933709   3.614   0.038   1.028 -1.7019  0.1787  0.7287
   36MOL   H74033710   3.848   0.135   1.118 -0.0710 -1.3120  1.1782
   36MOL   H74133711   3.734   0.252   1.197 -0.6174  0.3423 -1.8065
   36MOL   H74233712   3.737   7.921   1.211 -0.7212  0.8149  0.0706
   36MOL   H74333713   3.845   0.047   1.308 -0.4981  1.2687  0.5305
   36MOL   H74433714   3.625   0.150   1.394 -1.8935  0.2306  0.4384
   36MOL   H74533715   3.543   0.039   1.292 -0.6545  0.3886  1.5991
   36MOL   H74633716   3.645   7.821   1.424 -0.3332 -0.4309  1.7008
   36MOL   H74733717   3.524   7.908   1.496 -0.3238  1.9718 -1.1674
   36MOL   H74833718   3.694   0.065   1.638 -0.9893  0.1476 -1.1946
   36MOL   H74933719   3.815   7.962   1.576  0.6260 -0.0449  1.6309
   36MOL   H75033720   3.849   7.521   1.807  0.5113 -0.7799  0.0172
   36MOL   H75133721   3.755   7.363   1.973 -0.9287 -1.4969 -0.5778
   36MOL   H75233722   3.372   7.574   1.947 -0.0696  0.5878 -0.9132
   36MOL   H75333723   3.474   7.725   1.783  0.6850  0.3677  1.5380
   36MOL   O75433724   3.483   7.128   2.151  0.4339  0.1047  0.3450
   36MOL   C75533725   3.377   7.064   2.075 -0.3092 -0.1917 -0.2890
   36MOL   C75633726   3.414   6.973   1.953  0.0382 -0.5286 -0.6013
   36MOL   C75733727   3.417   7.045   1.822  0.2688 -0.2609 -0.2282
   36MOL   C75833728   3.455   6.951   1.706  0.0129 -0.3275 -0.4591
   36MOL   C75933729   3.434   7.016   1.568 -0.3030 -0.1644 -0.0791
   36MOL   C76033730   3.561   7.052   1.495 -0.3662 -0.2500  0.4265
   36MOL   C76133731   3.656   7.147   1.572 -0.5355 -1.0010 -0.3689
   36MOL   C76233732   3.598   7.288   1.587 -0.3715  0.2260  0.3100
   36MOL   C76333733   3.577   7.371   1.457 -1.1659  0.3165 -0.3605
   36MOL   C76433734   3.497   7.492   1.472 -0.1748  0.1581  0.1605
   36MOL   O76533735   3.493   7.573   1.354 -0.0469 -0.3469 -0.1100
   36MOL   C76633736   3.414   7.680   1.336 -0.1360 -0.1438 -0.5555
   36MOL   O76733737   3.341   7.724   1.431 -0.0809 -0.1138 -0.6083
   36MOL   C76833738   3.418   7.731   1.193  0.3291  0.0297 -0.1581
   36MOL   C76933739   3.485   7.656   1.093  0.3329  0.3860  0.0315
   36MOL   C77033740   3.488   7.715   0.965  0.6919  0.2755 -0.0970
   36MOL   C77133741   3.435   7.843   0.942  0.5725 -0.7601  0.9477
   36MOL   C77233742   3.441   7.897   0.802  0.8217 -0.2448  0.6399
   36MOL   O77333743   3.380   0.012   0.755 -0.1967  0.1021  0.4790
   36MOL   O77433744   3.535   7.833   0.724  0.5581  0.2014 -0.4092
   36MOL   C77533745   3.369   7.914   1.043  0.1191  0.3681 -0.2365
   36MOL   C77633746   3.360   7.854   1.170  0.1058 -0.4139  0.1128
   36MOL   H77733747   3.313   7.002   2.138  0.7267 -0.6648  0.3052
   36MOL   H77833748   3.311   7.141   2.035 -1.8820 -0.9956  0.6912
   36MOL   H77933749   3.346   6.889   1.949 -4.8246  3.0346  1.9095
   36MOL   H78033750   3.509   6.927   1.980  0.8057  1.3727  0.0950
   36MOL   H78133751   3.320   7.092   1.805  0.7249  1.5326  1.9476
   36MOL   H78233752   3.489   7.127   1.819 -1.3368  1.1241 -2.2483
   36MOL   H78333753   3.391   6.863   1.716 -1.2298  0.6372  0.3515
   36MOL   H78433754   3.559   6.924   1.724  0.0223  0.7969  1.3102
   36MOL   H78533755   3.387   6.945   1.501  1.8578 -0.6752 -1.0935
   36MOL   H78633756   3.349   7.084   1.572  0.5166  0.9230 -0.8930
   36MOL   H78733757   3.627   6.971   1.466  0.8076  1.0825 -0.6972
   36MOL   H78833758   3.519   7.106   1.410 -1.9910  0.4438  1.6508
   36MOL   H78933759   3.666   7.096   1.668 -0.5910  0.4571  0.4240
   36MOL   H79033760   3.754   7.151   1.526 -0.6510  0.4132 -0.4937
   36MOL   H79133761   3.492   7.294   1.615  0.0279  0.5745  1.7968
   36MOL   H79233762   3.666   7.338   1.657  0.0301  2.7491 -1.7958
   36MOL   H79333763   3.526   7.313   1.380  0.5136 -0.9692 -0.5209
   36MOL   H79433764   3.673   7.393   1.411 -1.1982  0.3815 -0.3954
   36MOL   H79533765   3.526   7.550   1.560 -1.6515 -0.5492  1.1219
   36MOL   H79633766   3.394   7.467   1.497  0.7256 -2.2172  1.6105
   36MOL   H79733767   3.533   7.561   1.111 -0.6605 -0.1685 -0.2067
   36MOL   H79833768   3.537   7.651   0.893  0.9737 -0.4729  0.7581
   36MOL   H79933769   3.311   0.025   1.023  0.5291  0.9487  1.0935
   36MOL   H80033770   3.305   7.898   1.252 -0.7142 -0.2741 -0.5014
   36MOL   O80133771   3.537   7.887   0.578  0.1529  0.2393  0.0386
   36MOL   C80233772   3.495   7.781   0.498  0.4916 -0.5672  0.3478
   36MOL   C80333773   3.495   7.813   0.342  0.6965 -0.5163 -0.1166
   36MOL   C80433774   3.411   7.945   0.311 -0.2719 -0.4168  0.3169
   36MOL   C80533775   3.421   0.015   0.159  0.1839 -0.4692  0.1605
   36MOL   C80633776   3.307   0.118   0.121 -0.0015  0.6189 -0.6680
   36MOL   C80733777   3.306   0.166   7.951  1.1772  0.0011  0.1337
   36MOL   C80833778   3.218   0.299   7.937 -0.2316  0.4726  0.3663
   36MOL   C80933779   3.209   0.339   7.792 -0.9192 -0.2932 -0.1867
   36MOL   C81033780   3.100   0.448   7.763 -0.0782 -0.1042 -0.2326
   36MOL   C81133781   3.125   0.604   7.778  0.3785  0.2496  0.2204
   36MOL   O81233782   3.162   0.635   7.913  0.1304  0.4641  0.2675
   36MOL   C81333783   3.072   0.688   0.024  0.2385  0.1431 -0.2166
   36MOL   O81433784   2.962   0.730   7.963  0.5302  0.5803 -0.2471
   36MOL   C81533785   3.121   0.697   0.159  0.3274  0.4958 -0.1278
   36MOL   C81633786   3.039   0.759   0.255  0.3105 -0.4450 -0.3802
   36MOL   C81733787   3.066   0.759   0.393 -0.2144  0.2218  0.1657
   36MOL   C81833788   3.188   0.707   0.436 -0.6538  0.2719 -0.0380
   36MOL   C81933789   3.227   0.711   0.583  0.1697  0.1418 -0.2712
   36MOL   O82033790   3.329   0.660   0.621  0.2891  0.6766  0.7721
   36MOL   O82133791   3.147   0.786   0.661  0.5021  0.2599  0.0824
   36MOL   C82233792   3.271   0.648   0.339 -0.1062  0.1773  0.0681
   36MOL   C82333793   3.244   0.642   0.198  0.1259 -0.0528 -0.1183
   36MOL   H82433794   3.564   7.698   0.517 -0.9452 -1.4869  1.6020
   36MOL   H82533795   3.402   7.737   0.534  0.2986  1.2743  2.1972
   36MOL   H82633796   3.459   7.725   0.289  2.4828 -1.0760 -0.4219
   36MOL   H82733797   3.599   7.825   0.312 -0.1421  1.6141 -2.2952
   36MOL   H82833798   3.307   7.927   0.341 -0.2053 -0.9469  0.2428
   36MOL   H82933799   3.447   0.046   0.376  2.3376  0.3850 -1.9973
   36MOL   H83033800   3.424   7.911   0.087  1.9773  1.5041 -2.0632
   36MOL   H83133801   3.513   0.073   0.149 -0.3000 -0.2244 -3.2716
   36MOL   H83233802   3.206   0.077   0.134  0.2283 -0.5684 -2.4896
   36MOL   H83333803   3.308   0.189   0.204 -2.0969 -0.7886  0.6257
   36MOL   H83433804   3.407   0.188   7.916  1.0092 -0.4169 -0.6308
   36MOL   H83533805   3.268   0.089   7.883 -0.2687  0.9976 -0.2145
   36MOL   H83633806   3.116   0.280   7.972 -1.0054  0.3913 -1.8583
   36MOL   H83733807   3.256   0.378   0.023 -1.5021  1.7169 -0.3998
   36MOL   H83833808   3.294   0.394   7.750  0.2163 -0.8314  1.3729
   36MOL   H83933809   3.180   0.253   7.731 -0.9173 -1.3295  1.2586
   36MOL   H84033810   3.007   0.425   7.816 -0.1342  0.4668 -0.0769
   36MOL   H84133811   3.069   0.419   7.663  0.7277  0.9475 -0.7972
   36MOL   H84233812   3.030   0.646   7.744 -0.0338 -0.3962  0.5837
   36MOL   H84333813   3.209   0.639   7.717  1.1011  2.4614  2.4264
   36MOL   H84433814   2.947   0.803   0.220 -0.3591  0.3260  2.2309
   36MOL   H84533815   3.004   0.802   0.470 -0.5500 -1.0917  0.6504
   36MOL   H84633816   3.366   0.604   0.366  0.7832  0.2616 -2.7385
   36MOL   H84733817   3.307   0.585   0.131  1.3262 -2.2369  2.7494
   36MOL   O84833818   3.161   0.752   0.804 -0.8525  0.6208 -0.1243
   36MOL   C84933819   3.261   0.839   0.867  0.8538 -0.1167 -0.4956
   36MOL   C85033820   3.247   0.858   1.016  1.1521  0.0965 -0.6731
   36MOL   C85133821   3.286   0.734   1.097 -0.4977  0.3617  0.2299
   36MOL   C85233822   3.242   0.750   1.243  0.3436  0.2778  0.0359
   36MOL   C85333823   3.221   0.616   1.306 -0.4374 -0.0472 -0.5230
   36MOL   C85433824   3.186   0.630   1.451  0.3768 -0.5253  0.6678
   36MOL   C85533825   3.193   0.495   1.533 -0.5000 -0.2814  0.3209
   36MOL   C85633826   3.106   0.496   1.657  0.4615  0.6122 -0.4141
   36MOL   C85733827   3.094   0.357   1.721 -0.5315  0.0706 -0.2687
   36MOL   C85833828   2.990   0.358   1.836 -0.1178 -0.2580  0.1770
   36MOL   O85933829   2.987   0.235   1.898 -0.1640  0.7252  0.3043
   36MOL   C86033830   2.894   0.210   1.984 -0.1579  0.9013 -0.3320
   36MOL   O86133831   2.800   0.284   1.997  0.5067 -0.7733 -0.3197
   36MOL   C86233832   2.914   0.078   2.055 -0.5477 -0.0434 -0.6665
   36MOL   C86333833   2.831   0.046   2.163  0.6709  0.3582  0.0452
   36MOL   C86433834   2.863   7.908   2.239  0.4583  0.4187  0.3540
   36MOL   C86533835   2.957   7.807   2.194 -0.3732 -0.2148  0.0292
   36MOL   C86633836   2.982   7.685   2.271  0.2750  0.2964 -0.1265
   36MOL   O86733837   3.072   7.603   2.244 -0.3891 -0.0890 -0.2079
   36MOL   O86833838   2.900   7.685   2.383 -0.1988 -0.0437  0.7123
   36MOL   C86933839   3.032   7.833   2.071 -0.0215  0.2919 -0.5378
   36MOL   C87033840   3.012   7.962   2.008  0.2075 -0.4823 -0.2012
   36MOL   H87133841   3.363   0.808   0.844  1.2778  0.2572  0.8278
   36MOL   H87233842   3.261   0.932   0.810 -2.1896 -1.9681 -3.6880
   36MOL   H87333843   3.145   0.894   1.028  2.2330  2.6901  1.2580
   36MOL   H87433844   3.317   0.934   1.051 -2.1679  1.4062  3.5248
   36MOL   H87533845   3.232   0.650   1.053 -0.5442 -0.1157  1.1866
   36MOL   H87633846   3.393   0.715   1.100 -0.6630 -0.5194  0.7762
   36MOL   H87733847   3.152   0.811   1.249 -0.6701 -1.1231 -0.8031
   36MOL   H87833848   3.321   0.796   1.302  1.6998 -4.1418  1.8395
   36MOL   H87933849   3.137   0.565   1.259  0.0463 -0.8699 -0.4870
   36MOL   H88033850   3.304   0.547   1.300 -0.7245 -0.5948  1.6410
   36MOL   H88133851   3.258   0.698   1.497  1.4143  0.1669 -1.8834
   36MOL   H88233852   3.090   0.676   1.474  0.4166  0.1929 -0.5654
   36MOL   H88333853   3.162   0.421   1.459  0.2654  1.1244 -1.4439
   36MOL   H88433854   3.298   0.474   1.556 -0.4133 -0.7905 -0.5026
   36MOL   H88533855   3.138   0.576   1.724 -1.7657  0.1860  1.2431
   36MOL   H88633856   3.008   0.536   1.632 -0.0292  0.5922  1.3793
   36MOL   H88733857   3.190   0.330   1.765 -0.7213  0.6870  0.5443
   36MOL   H88833858   3.073   0.281   1.646  0.8246 -0.7246  0.1362
   36MOL   H88933859   2.895   0.394   1.798  0.5734  3.5318  1.7781
   36MOL   H89033860   3.004   0.434   1.913  1.5414 -1.6406  1.2814
   36MOL   H89133861   2.762   0.122   2.199  0.0199 -0.0356 -0.3603
   36MOL   H89233862   2.810   7.891   2.331 -0.0839  0.6583  0.0879
   36MOL   H89333863   3.109   7.764   2.039  0.5875  1.0218 -0.6745
   36MOL   H89433864   3.068   0.005   1.918 -0.2304  0.6601 -0.2199
   36MOL   O89533865   2.942   7.575   2.471 -0.0467 -0.1501  0.1014
   36MOL   C89633866   2.979   7.636   2.600 -0.7156 -0.7768 -0.5941
   36MOL   C89733867   3.062   7.533   2.683  0.2787 -0.0705  0.0007
   36MOL   C89833868   3.019   7.389   2.679 -0.2204 -0.2457 -0.7835
   36MOL   C89933869   2.888   7.360   2.765  0.3709 -0.1254  0.9890
   36MOL   C90033870   2.871   7.200   2.781  0.7498 -0.0389  0.0864
   36MOL   C90133871   2.723   7.165   2.810 -0.2417 -0.0503  0.4298
   36MOL   C90233872   2.663   7.219   2.945  0.0694  0.9142 -0.6379
   36MOL   C90333873   2.727   7.140   3.065  0.2453  0.4783 -0.3744
   36MOL   C90433874   2.699   7.208   3.200  0.1720 -0.5271 -0.3867
   36MOL   C90533875   2.760   7.119   3.313 -0.1626 -0.3998  0.2456
   36MOL   O90633876   2.713   7.179   3.436  0.3895 -0.0555  0.3129
   36MOL   C90733877   2.689   7.096   3.542  0.9034 -0.3085  0.0203
   36MOL   O90833878   2.676   6.979   3.522  0.0221  0.0636 -0.4509
   36MOL   C90933879   2.688   7.159   3.676 -0.9435 -0.3488  0.9019
   36MOL   C91033880   2.700   7.298   3.689 -0.1071  0.2727  0.5838
   36MOL   C91133881   2.694   7.364   3.817  0.0208  0.7025 -0.5485
   36MOL   C91233882   2.679   7.287   3.935 -0.0894  0.1407  0.4115
   36MOL   C91333883   2.688   7.347   4.071  0.2017  0.6461 -0.3061
   36MOL   O91433884   2.666   7.283   4.175 -0.4604  0.4032 -0.0144
   36MOL   O91533885   2.728   7.476   4.067 -0.1601  0.2872 -0.3364
   36MOL   C91633886   2.678   7.145   3.921  0.2467  0.0611 -0.0650
   36MOL   C91733887   2.686   7.084   3.796 -0.0186 -0.1077 -0.5952
   36MOL   H91833888   3.023   7.735   2.590 -2.9307  0.3420  0.4248
   36MOL   H91933889   2.882   7.657   2.645 -0.6890 -1.0006 -0.4279
   36MOL   H92033890   3.076   7.565   2.786 -1.1767 -1.7353  0.7244
   36MOL   H92133891   3.165   7.536   2.648  0.8441 -0.0056  1.6068
   36MOL   H92233892   3.006   7.344   2.581  1.8152  1.7676 -2.0047
   36MOL   H92333893   3.096   7.327   2.724 -2.7869 -1.1208  2.7242
   36MOL   H92433894   2.798   7.408   2.725  1.1308  0.2426 -0.2902
   36MOL   H92533895   2.888   7.402   2.865 -0.3417  0.0328  0.9299
   36MOL   H92633896   2.907   7.154   2.689  2.3642  2.1897 -0.4549
   36MOL   H92733897   2.945   7.165   2.853  1.2050 -0.7396 -0.7149
   36MOL   H92833898   2.650   7.192   2.733  1.1569  0.1983 -0.8372
   36MOL   H92933899   2.715   7.056   2.812  1.8163 -0.2100  1.0298
   36MOL   H93033900   2.689   7.324   2.962  1.1214  0.4896  0.4757
   36MOL   H93133901   2.554   7.220   2.946  0.0274 -1.1984  1.6941
   36MOL   H93233902   2.686   7.039   3.066  1.3649  0.0204  1.0801
   36MOL   H93333903   2.833   7.137   3.042 -0.1767 -2.1255 -2.1115
   36MOL   H93433904   2.590   7.218   3.198  0.0794 -1.2953  0.6880
   36MOL   H93533905   2.738   7.310   3.190 -0.3419 -0.0010  2.5341
   36MOL   H93633906   2.868   7.106   3.312  0.1810  2.1640 -1.2848
   36MOL   H93733907   2.720   7.019   3.298  1.3075 -0.5570 -2.9153
   36MOL   H93833908   2.714   7.360   3.601  3.9359 -1.9220 -0.4554
   36MOL   H93933909   2.684   7.470   3.805 -0.1031  0.5978 -1.3750
   36MOL   H94033910   2.682   7.081   4.008 -2.4596 -0.4723 -0.2773
   36MOL   H94133911   2.681   6.977   3.781 -1.9902 -0.4134  1.9635
   36MOL   H94233912   2.760   7.488   4.155  0.5603 -0.3227 -0.5104
   37MOL     O133913   3.322   2.319   0.127 -0.3479 -0.1246 -0.0143
   37MOL     C233914   3.189   2.257   0.148  0.2910  0.0060 -0.1627
   37MOL     C333915   3.116   2.309   0.269  0.3590  0.1216  0.4049
   37MOL     C433916   2.969   2.253   0.279 -0.6508  0.0968  0.4224
   37MOL     C533917   2.879   2.330   0.369 -0.1398 -0.0359 -0.2940
   37MOL     C633918   2.888   2.300   0.517 -0.6774  0.4599  1.1502
   37MOL     C733919   2.795   2.389   0.600  0.2191 -0.6324  0.6364
   37MOL     C833920   2.821   2.380   0.744  0.4458 -0.0881 -0.0532
   37MOL     C933921   2.708   2.445   0.821 -0.1729  0.2793 -0.4213
   37MOL    C1033922   2.697   2.399   0.966 -0.7855 -0.3602 -0.1508
   37MOL    C1133923   2.589   2.472   1.040 -0.5369  0.0610 -0.1003
   37MOL    O1233924   2.571   2.421   1.171 -0.1774  0.0974  0.2883
   37MOL    C1333925   2.469   2.463   1.244  0.0987 -0.5320  0.7551
   37MOL    O1433926   2.399   2.558   1.206  0.6750  0.0600 -0.1203
   37MOL    C1533927   2.462   2.393   1.373  0.2312  0.4244  0.7544
   37MOL    C1633928   2.346   2.410   1.450 -0.3008 -0.2855  0.0901
   37MOL    C1733929   2.319   2.328   1.561 -0.0090 -0.0805  0.1086
   37MOL    C1833930   2.425   2.259   1.623 -0.0656 -0.0384 -0.1189
   37MOL    C1933931   2.408   2.185   1.748 -0.1398 -0.0653  0.1856
   37MOL    O2033932   2.476   2.090   1.777 -0.2223 -0.2857  0.1726
   37MOL    O2133933   2.310   2.242   1.823 -0.0472  0.5737 -0.3414
   37MOL    C2233934   2.548   2.249   1.553  0.1540 -0.0064  0.2776
   37MOL    C2333935   2.563   2.317   1.431 -0.2207 -0.2764  0.0005
   37MOL    H2433936   3.125   2.261   0.059 -0.8486 -0.1721  0.6355
   37MOL    H2533937   3.203   2.150   0.159 -0.9359 -0.1086  0.3942
   37MOL    H2633938   3.116   2.417   0.253  0.2034  0.0606 -0.0167
   37MOL    H2733939   3.188   2.288   0.348 -0.9036  1.7254  2.0470
   37MOL    H2833940   2.930   2.262   0.178 -0.8574  0.2016  0.5121
   37MOL    H2933941   2.964   2.149   0.311 -0.8153 -0.3594 -1.0551
   37MOL    H3033942   2.774   2.320   0.341 -0.2367 -1.2584  0.4794
   37MOL    H3133943   2.890   2.437   0.349  0.5927 -0.1871 -0.7013
   37MOL    H3233944   2.872   2.193   0.530  2.2436 -0.4956 -2.3026
   37MOL    H3333945   2.993   2.312   0.545  0.3203 -0.7235 -1.8281
   37MOL    H3433946   2.796   2.491   0.563  0.4462 -0.5736  0.8050
   37MOL    H3533947   2.702   2.339   0.573  0.6035 -0.7323 -0.5418
   37MOL    H3633948   2.837   2.276   0.774  2.2727 -0.2144 -1.3720
   37MOL    H3733949   2.920   2.420   0.765  0.9263 -0.9228 -0.6827
   37MOL    H3833950   2.704   2.553   0.806  2.0348  0.0884 -2.7194
   37MOL    H3933951   2.615   2.405   0.779  0.3087 -0.0887 -1.1439
   37MOL    H4033952   2.791   2.420   1.016  0.1233 -2.3107 -0.9391
   37MOL    H4133953   2.671   2.293   0.962 -0.4589 -0.4282 -0.6081
   37MOL    H4233954   2.499   2.446   0.984 -0.0750 -1.0838 -0.3346
   37MOL    H4333955   2.604   2.579   1.038 -0.1414  0.1168  3.1014
   37MOL    H4433956   2.264   2.462   1.403 -1.8165 -1.3756  1.4717
   37MOL    H4533957   2.223   2.335   1.608  0.0632 -0.1226  0.2621
   37MOL    H4633958   2.635   2.206   1.600  1.8951  3.9504  0.8350
   37MOL    H4733959   2.656   2.315   1.376  0.1905 -2.1092  0.7039
   37MOL    H4833960   3.395   2.288   0.177  0.4128  2.8446  0.7822
   37MOL    O4933961   2.293   2.176   1.959 -0.6906  0.4697 -0.3069
   37MOL    C5033962   2.164   2.115   1.957 -0.0678  0.7630  0.2880
   37MOL    C5133963   2.053   2.215   1.991  0.2687  0.3545  0.3906
   37MOL    C5233964   2.028   2.329   1.899 -0.7616  0.4386 -0.2805
   37MOL    C5333965   1.949   2.302   1.766  0.2411 -0.4544  0.0088
   37MOL    C5433966   1.832   2.203   1.771  0.8819  0.4412  0.2116
   37MOL    C5533967   1.754   2.184   1.642 -1.2400  0.2765  0.2242
   37MOL    C5633968   1.601   2.151   1.656  0.6590  0.4827 -0.4581
   37MOL    C5733969   1.515   2.198   1.538  0.5937  0.1469  0.4354
   37MOL    C5833970   1.508   2.102   1.413  0.5239  0.3982 -0.1383
   37MOL    C5933971   1.637   2.072   1.342  0.1892 -0.1639  0.7341
   37MOL    O6033972   1.705   2.196   1.308 -0.1654 -0.0763 -0.5494
   37MOL    C6133973   1.828   2.179   1.240 -0.5622 -0.8368 -0.5219
   37MOL    O6233974   1.889   2.075   1.218 -0.1359  0.0515  0.6892
   37MOL    C6333975   1.890   2.308   1.199  1.0882 -0.0828 -0.1018
   37MOL    C6433976   1.969   2.314   1.082  0.0867  0.4747 -0.5617
   37MOL    C6533977   2.030   2.433   1.051 -0.3494  0.0347 -0.6243
   37MOL    C6633978   2.029   2.553   1.130 -0.3572  0.3725  0.2064
   37MOL    C6733979   2.098   2.680   1.088 -0.1120  0.4345  0.7945
   37MOL    O6833980   2.139   2.696   0.973 -0.1529 -0.3220 -0.2147
   37MOL    O6933981   2.095   2.772   1.191  0.6117  0.4164 -0.0626
   37MOL    C7033982   1.958   2.543   1.252 -0.3193 -0.3507  0.0130
   37MOL    C7133983   1.890   2.422   1.284 -0.1626 -0.3753  0.0469
   37MOL    H7233984   2.138   2.075   1.859  1.2522  0.9466 -0.1506
   37MOL    H7333985   2.155   2.037   2.033 -0.0594 -0.3344 -0.8066
   37MOL    H7433986   2.070   2.254   2.091  0.4532 -1.8509  1.2522
   37MOL    H7533987   1.958   2.163   2.004 -0.7664  2.0860 -0.1574
   37MOL    H7633988   1.977   2.409   1.953 -0.1929  1.1130 -0.7439
   37MOL    H7733989   2.119   2.385   1.883 -0.2674 -0.0385  0.8531
   37MOL    H7833990   2.020   2.268   1.691 -0.1971 -1.0384 -0.1523
   37MOL    H7933991   1.917   2.397   1.723 -0.9422 -1.5151 -1.4893
   37MOL    H8033992   1.860   2.102   1.804 -0.5082 -0.4325 -1.1950
   37MOL    H8133993   1.771   2.248   1.850 -0.1946 -1.6042  0.5981
   37MOL    H8233994   1.766   2.276   1.585  3.1721 -0.6372 -0.4966
   37MOL    H8333995   1.815   2.127   1.571 -0.4791  0.3738  0.7890
   37MOL    H8433996   1.589   2.045   1.679 -4.4196  0.7539 -1.3396
   37MOL    H8533997   1.559   2.203   1.741 -0.8406  0.1544 -0.9861
   37MOL    H8633998   1.414   2.207   1.578 -0.0199  0.3936 -1.1267
   37MOL    H8733999   1.541   2.297   1.500 -2.8700  0.6866 -0.7343
   37MOL    H8834000   1.443   2.146   1.337  0.3880 -1.4616 -1.1411
   37MOL    H8934001   1.460   2.008   1.441  0.3522  0.4138 -0.3779
   37MOL    H9034002   1.613   2.009   1.256 -0.0761  1.9220 -0.7337
   37MOL    H9134003   1.703   2.008   1.400  0.3307  0.5126  1.3234
   37MOL    H9234004   1.976   2.220   1.029 -2.6088 -0.6190  0.9579
   37MOL    H9334005   2.076   2.447   0.954 -1.0307 -0.0140 -0.9612
   37MOL    H9434006   1.946   2.622   1.325 -2.7881 -1.1178  0.4857
   37MOL    H9534007   1.825   2.420   1.371 -1.2878  0.5227 -0.7512
   37MOL    O9634008   2.179   2.895   1.161 -0.4999 -0.2044 -0.0755
   37MOL    C9734009   2.318   2.874   1.194 -0.0672 -0.2051 -0.2419
   37MOL    C9834010   2.400   2.999   1.143  0.0611 -0.2465  0.3766
   37MOL    C9934011   2.408   2.999   0.987  0.3192  0.1445  0.0754
   37MOL   C10034012   2.460   3.133   0.932  0.4029 -0.4709  0.6529
   37MOL   C10134013   2.357   3.244   0.914 -0.9600  0.1278  0.3756
   37MOL   C10234014   2.428   3.370   0.858 -0.1592 -0.3832  0.4243
   37MOL   C10334015   2.358   3.505   0.864  0.3288 -0.1403 -0.7706
   37MOL   C10434016   2.442   3.613   0.795  0.1000 -0.0181 -0.1161
   37MOL   C10534017   2.398   3.753   0.823  0.0647 -0.9874 -0.0097
   37MOL   C10634018   2.465   3.857   0.735  0.3875  0.1097  0.0182
   37MOL   O10734019   2.605   3.872   0.759  0.2341 -0.1774 -0.3661
   37MOL   C10834020   2.653   3.967   0.840  0.2551  0.2835 -1.0783
   37MOL   O10934021   2.586   4.063   0.883  0.1997 -0.9490  0.4878
   37MOL   C11034022   2.797   3.951   0.871 -0.6244  0.2834 -0.3429
   37MOL   C11134023   2.878   3.835   0.831  0.1307  0.2131  0.0219
   37MOL   C11234024   3.013   3.827   0.871  0.3162  0.1969  0.0314
   37MOL   C11334025   3.068   3.930   0.944 -0.2267 -0.3154 -0.0347
   37MOL   C11434026   3.218   3.918   0.978  0.1967 -0.3032  0.8343
   37MOL   O11534027   3.288   3.818   0.979 -0.2153 -0.0498  0.2350
   37MOL   O11634028   3.274   4.040   1.008 -0.3212  0.0260  0.8733
   37MOL   C11734029   2.988   4.040   0.985 -0.3710 -0.4858  0.2446
   37MOL   C11834030   2.849   4.049   0.958  0.4809  0.3541  0.0465
   37MOL   H11934031   2.320   2.860   1.302  1.5343  2.6461  0.1473
   37MOL   H12034032   2.354   2.784   1.144 -0.0219  0.1098 -0.7815
   37MOL   H12134033   2.499   2.997   1.189 -0.1290  3.4500  1.1573
   37MOL   H12234034   2.356   3.089   1.186 -1.2286  0.0612 -1.5345
   37MOL   H12334035   2.475   2.918   0.959  0.1162  1.0247 -3.2248
   37MOL   H12434036   2.314   2.971   0.938  0.5163  0.3218 -0.4042
   37MOL   H12534037   2.504   3.116   0.833 -0.9249  1.1539 -0.2433
   37MOL   H12634038   2.540   3.184   0.985  0.4149  0.1869  0.0142
   37MOL   H12734039   2.268   3.215   0.857  0.3311 -0.2910 -1.4794
   37MOL   H12834040   2.333   3.260   1.019  0.3117  0.2103  0.6530
   37MOL   H12934041   2.528   3.375   0.901  1.6128  0.7940 -3.6657
   37MOL   H13034042   2.432   3.340   0.754  2.6194  2.8200 -0.4774
   37MOL   H13134043   2.261   3.490   0.816  1.1938 -1.7420 -2.0797
   37MOL   H13234044   2.340   3.546   0.963  1.2253  0.0444 -0.6831
   37MOL   H13334045   2.546   3.597   0.827 -0.5115  0.9770  2.5008
   37MOL   H13434046   2.427   3.593   0.689 -1.9094  0.2266  0.1028
   37MOL   H13534047   2.410   3.777   0.928  3.0235 -1.8244 -0.1232
   37MOL   H13634048   2.293   3.777   0.807  0.2036 -0.2593  0.1343
   37MOL   H13734049   2.423   3.956   0.751  1.1866  0.0796  2.4280
   37MOL   H13834050   2.452   3.835   0.629  0.0862 -1.5933  0.3950
   37MOL   H13934051   2.828   3.755   0.779  0.1449 -0.4018  0.9342
   37MOL   H14034052   3.074   3.741   0.846  0.9963  1.0019 -1.1073
   37MOL   H14134053   3.034   4.115   1.048  1.3153  1.2469 -2.9432
   37MOL   H14234054   2.781   4.123   0.998  0.9002  0.7279  0.0711
   37MOL   O14334055   3.423   4.048   1.007 -0.0297  0.0585 -0.3750
   37MOL   C14434056   3.473   4.041   1.139  0.2817 -0.5561 -0.3601
   37MOL   C14534057   3.617   4.001   1.145 -0.1832 -0.2216  0.0410
   37MOL   C14634058   3.644   3.857   1.117  0.1319  0.2346 -0.0045
   37MOL   C14734059   3.791   3.818   1.112 -0.1345 -0.5606 -0.3323
   37MOL   C14834060   3.841   3.767   1.246  0.3839 -0.5254 -0.1961
   37MOL   C14934061   3.992   3.778   1.243  0.3136 -0.0158  0.3128
   37MOL   C15034062   4.069   3.706   1.353  0.1040 -0.4401 -0.1021
   37MOL   C15134063   4.057   3.773   1.491 -0.2260  0.2852 -0.2562
   37MOL   C15234064   4.106   3.680   1.604  0.2152  0.0442  0.3139
   37MOL   C15334065   4.258   3.681   1.614  0.3355  0.0575  0.0054
   37MOL   O15434066   4.296   3.809   1.667 -0.4454  0.0087  0.1609
   37MOL   C15534067   4.421   3.854   1.630  0.2842  0.1516  0.0476
   37MOL   O15634068   4.497   3.797   1.557  0.0683  0.3096 -0.2083
   37MOL   C15734069   4.445   3.991   1.690  0.2895  0.1392 -0.8403
   37MOL   C15834070   4.530   4.077   1.623 -0.6523 -0.3030  0.2725
   37MOL   C15934071   4.560   4.203   1.680 -1.1915  0.3448  0.1458
   37MOL   C16034072   4.501   4.246   1.801  0.8468  0.0854 -0.8136
   37MOL   C16134073   4.521   4.380   1.859 -0.3436  0.0621  0.2517
   37MOL   O16234074   4.442   4.429   1.938 -0.2275  0.4548  0.0305
   37MOL   O16334075   4.627   4.442   1.816 -0.0834  0.3424  0.4767
   37MOL   C16434076   4.420   4.156   1.871 -0.8068 -0.1508 -0.1005
   37MOL   C16534077   4.393   4.029   1.816  0.2793  0.5371  0.2798
   37MOL   H16634078   3.466   4.143   1.175  1.6067 -0.5577 -0.0514
   37MOL   H16734079   3.418   3.977   1.208  2.4443 -0.5708  1.4200
   37MOL   H16834080   3.658   4.017   1.245  1.1857  1.1874 -0.7285
   37MOL   H16934081   3.670   4.055   1.066 -2.4020 -1.5018 -2.4271
   37MOL   H17034082   3.591   3.794   1.189  1.4169 -0.5078  0.2965
   37MOL   H17134083   3.589   3.835   1.025  1.5148 -1.5533 -0.4292
   37MOL   H17234084   3.844   3.903   1.068 -1.1659  0.7704  0.9334
   37MOL   H17334085   3.795   3.739   1.037 -1.0164  0.0075 -0.9843
   37MOL   H17434086   3.811   3.822   1.336  0.7942 -0.9525  0.2074
   37MOL   H17534087   3.811   3.662   1.258 -2.4621 -0.0315 -2.4761
   37MOL   H17634088   4.032   3.734   1.152  2.2774 -1.7391  1.9654
   37MOL   H17734089   4.020   3.883   1.235  0.0177 -0.0505 -1.2910
   37MOL   H17834090   4.022   3.607   1.347 -2.3800  0.7966 -2.2693
   37MOL   H17934091   4.177   3.698   1.342  0.2253  0.4746  0.4179
   37MOL   H18034092   4.111   3.868   1.495  0.6033 -0.2343  1.2543
   37MOL   H18134093   3.954   3.800   1.512 -0.6579 -2.2348  1.0434
   37MOL   H18234094   4.063   3.581   1.587  0.8751 -0.1841 -0.0731
   37MOL   H18334095   4.071   3.720   1.699  1.1336  2.0773 -0.1768
   37MOL   H18434096   4.307   3.663   1.519 -0.1143 -3.4596  0.3706
   37MOL   H18534097   4.293   3.602   1.681  1.3501 -0.9754 -1.7031
   37MOL   H18634098   4.583   4.046   1.534  0.9093  1.2012  0.6665
   37MOL   H18734099   4.636   4.266   1.636  0.2303 -1.6387 -0.3208
   37MOL   H18834100   4.383   4.178   1.970  2.1601 -0.7029  1.1945
   37MOL   H18934101   4.328   3.958   1.865 -0.0181  0.1898 -0.5978
   37MOL   O19034102   4.671   4.567   1.889  0.1271  0.4805  0.1778
   37MOL   C19134103   4.619   4.683   1.827 -0.3903 -0.1469 -0.0121
   37MOL   C19234104   4.707   4.807   1.856 -0.0786 -0.4861  0.4786
   37MOL   C19334105   4.851   4.790   1.809  0.4040  0.2899  0.0060
   37MOL   C19434106   4.943   4.900   1.859  0.2807  0.5307 -0.2362
   37MOL   C19534107   4.961   4.912   2.011 -0.4347 -0.1693 -0.1966
   37MOL   C19634108   5.027   4.799   2.088  0.1506  0.5260 -0.0282
   37MOL   C19734109   4.913   4.717   2.151  0.2766  0.1508  0.3601
   37MOL   C19834110   4.981   4.589   2.212  0.4658  0.1217 -0.3609
   37MOL   C19934111   4.934   4.460   2.154  0.1515 -0.5973 -0.5236
   37MOL   C20034112   5.024   4.344   2.192 -0.4048  0.2523 -0.8217
   37MOL   O20134113   4.962   4.225   2.141  0.1613 -0.4684 -0.4619
   37MOL   C20234114   4.993   4.103   2.181  0.5643  0.1311  0.1002
   37MOL   O20334115   5.072   4.077   2.269 -0.3653  0.0228 -0.0821
   37MOL   C20434116   4.911   3.992   2.120  0.1994  0.4684 -0.2917
   37MOL   C20534117   4.806   4.019   2.027 -1.0017 -0.0802  0.3522
   37MOL   C20634118   4.727   3.914   1.987 -0.4636 -0.2142 -0.4681
   37MOL   C20734119   4.734   3.786   2.043 -0.6420  0.3217  0.2399
   37MOL   C20834120   4.632   3.684   2.005 -0.4128 -0.1304 -0.1550
   37MOL   O20934121   4.638   3.564   2.027 -0.4798  0.2724 -0.4314
   37MOL   O21034122   4.519   3.745   1.961 -0.5999  0.2807  0.0773
   37MOL   C21134123   4.843   3.763   2.127  0.3230  0.4696 -0.0319
   37MOL   C21234124   4.924   3.863   2.168 -0.3328  0.3480 -0.0973
   37MOL   H21334125   4.596   4.676   1.721 -1.9070  0.9223  0.2495
   37MOL   H21434126   4.519   4.703   1.864 -0.8417 -0.1619 -1.2068
   37MOL   H21534127   4.697   4.825   1.963  3.1960  0.4879  0.6630
   37MOL   H21634128   4.666   4.893   1.803  1.9649  0.2593  0.0907
   37MOL   H21734129   4.886   4.692   1.843  2.1545 -0.2831 -3.2136
   37MOL   H21834130   4.841   4.793   1.700 -1.3290 -0.6456  0.1228
   37MOL   H21934131   4.895   4.994   1.832 -1.0409  0.9570  3.3490
   37MOL   H22034132   5.043   4.887   1.817  1.2180  2.3764  1.3613
   37MOL   H22134133   5.021   5.003   2.013  1.6738 -1.4681 -1.0968
   37MOL   H22234134   4.864   4.935   2.054  0.2435 -0.6929  1.6326
   37MOL   H22334135   5.074   4.725   2.023  1.6890  1.7534 -0.3393
   37MOL   H22434136   5.096   4.834   2.164  1.8002  2.2804 -2.2333
   37MOL   H22534137   4.855   4.772   2.225 -2.2364 -1.7969 -0.1051
   37MOL   H22634138   4.839   4.684   2.078 -2.8392  0.7922  3.1064
   37MOL   H22734139   5.089   4.592   2.201  0.2983 -0.0021 -2.1646
   37MOL   H22834140   4.964   4.589   2.320 -2.5312 -0.1778 -0.7938
   37MOL   H22934141   4.932   4.461   2.045 -2.1240  1.3426 -0.5013
   37MOL   H23034142   4.832   4.435   2.183 -0.4562  1.3387 -0.8947
   37MOL   H23134143   5.033   4.343   2.301 -0.7246  1.0216 -0.7829
   37MOL   H23234144   5.120   4.354   2.143  0.7858  0.8002  1.5374
   37MOL   H23334145   4.788   4.120   1.995  0.6262  0.8013  2.0748
   37MOL   H23434146   4.653   3.935   1.911 -1.6500 -3.3037 -0.2516
   37MOL   H23534147   4.864   3.668   2.174 -2.4615 -0.6502 -0.9367
   37MOL   H23634148   4.999   3.848   2.245 -0.9611 -3.5606 -0.1129
   37MOL   O23734149   4.400   3.654   1.959  0.3415  0.1623 -0.7059
   37MOL   C23834150   4.321   3.680   2.072 -0.1007 -0.4225 -0.4817
   37MOL   C23934151   4.218   3.568   2.087 -0.1223 -0.7657  0.1307
   37MOL   C24034152   4.121   3.557   1.967 -0.6954  0.1304  0.6967
   37MOL   C24134153   3.998   3.470   1.996 -0.1975  0.3818  0.0716
   37MOL   C24234154   3.929   3.449   1.864 -0.4251 -1.0236  0.2163
   37MOL   C24334155   3.821   3.555   1.844  0.0955 -0.1759  0.1275
   37MOL   C24434156   3.761   3.539   1.705 -0.6684  0.0067 -0.1365
   37MOL   C24534157   3.656   3.645   1.671 -0.0900 -0.1922 -0.0861
   37MOL   C24634158   3.582   3.609   1.541 -0.3316  0.4605  0.1368
   37MOL   C24734159   3.488   3.725   1.490  0.3753 -0.1098 -0.1397
   37MOL   O24834160   3.539   3.850   1.524 -0.1682  0.0704  0.9115
   37MOL   C24934161   3.464   3.962   1.494  0.5697  0.2773 -0.3834
   37MOL   O25034162   3.353   3.951   1.444 -0.3429  0.2601 -0.5754
   37MOL   C25134163   3.527   4.089   1.533  0.7542  0.8342 -0.5002
   37MOL   C25234164   3.669   4.102   1.530  0.3068 -0.6409 -0.4044
   37MOL   C25334165   3.733   4.218   1.570  0.3803  0.4913  0.1527
   37MOL   C25434166   3.653   4.326   1.623 -0.3448  0.3336  0.1618
   37MOL   C25534167   3.722   4.444   1.675 -0.0551 -0.2223 -0.0280
   37MOL   O25634168   3.844   4.466   1.671 -0.7289  0.1388  0.0401
   37MOL   O25734169   3.634   4.526   1.742  0.2086  0.6002  0.3437
   37MOL   C25834170   3.512   4.330   1.597 -0.4933  1.2346  0.0611
   37MOL   C25934171   3.449   4.208   1.555  0.3016  0.5078 -0.1306
   37MOL   H26034172   4.383   3.688   2.161 -0.4670 -0.9028 -0.1809
   37MOL   H26134173   4.269   3.773   2.048 -0.4321 -0.3076  0.6488
   37MOL   H26234174   4.159   3.584   2.178 -0.1195  2.4840 -0.3699
   37MOL   H26334175   4.277   3.477   2.096  2.0149  0.6459  0.7145
   37MOL   H26434176   4.087   3.659   1.948 -2.5052 -0.1886  2.1499
   37MOL   H26534177   4.176   3.525   1.878  0.0758 -0.9489  1.5573
   37MOL   H26634178   3.929   3.495   2.076 -0.4718  0.2918 -0.1374
   37MOL   H26734179   4.034   3.369   2.020 -0.2348  0.1281 -0.9370
   37MOL   H26834180   3.994   3.445   1.777 -0.9758 -2.0857 -0.1564
   37MOL   H26934181   3.886   3.349   1.863 -0.0771 -1.1581 -1.7633
   37MOL   H27034182   3.741   3.546   1.917 -2.1476  2.0534 -1.9507
   37MOL   H27134183   3.858   3.657   1.858  1.2948 -0.3147 -1.8733
   37MOL   H27234184   3.833   3.534   1.624 -0.5138  0.3819 -0.0244
   37MOL   H27334185   3.710   3.443   1.701 -0.0227 -0.2947 -1.1293
   37MOL   H27434186   3.588   3.647   1.757  0.4264  1.8565  0.3167
   37MOL   H27534187   3.696   3.747   1.668  1.0699 -0.5796  1.5840
   37MOL   H27634188   3.538   3.512   1.562  0.8896 -0.1170  0.1061
   37MOL   H27734189   3.659   3.596   1.465 -0.5425 -0.5872  0.0877
   37MOL   H27834190   3.392   3.718   1.542 -0.1532  2.1152 -0.7428
   37MOL   H27934191   3.466   3.708   1.385 -0.4105 -0.9261  0.1448
   37MOL   H28034192   3.741   4.024   1.508  0.5767 -0.5334  0.0773
   37MOL   H28134193   3.841   4.228   1.575  0.3180  0.6375  1.5725
   37MOL   H28234194   3.452   4.417   1.617 -0.6888  1.0942  0.0933
   37MOL   H28334195   3.341   4.208   1.542  0.1544  0.2849  1.0267
   37MOL   O28434196   3.697   4.644   1.798  0.3924  0.5374  0.0644
   37MOL   C28534197   3.659   4.663   1.931  0.3449  0.8809  0.0906
   37MOL   C28634198   3.512   4.703   1.937  0.1149  0.1567  0.4988
   37MOL   C28734199   3.459   4.759   2.067 -0.5305 -1.2195  0.0239
   37MOL   C28834200   3.297   4.778   2.057 -0.5228 -0.4948 -0.4802
   37MOL   C28934201   3.235   4.832   2.192  0.1875 -0.3503 -0.1082
   37MOL   C29034202   3.080   4.823   2.215  0.2612  0.7336 -0.2611
   37MOL   C29134203   3.038   4.884   2.353 -0.1925  0.1941 -0.4677
   37MOL   C29234204   3.029   5.038   2.356  0.6287  0.3195 -0.2664
   37MOL   C29334205   2.989   5.105   2.487  0.7941 -0.4447  0.3215
   37MOL   C29434206   2.998   5.253   2.473  0.2917 -0.0526  0.3664
   37MOL   O29534207   2.955   5.313   2.596  0.0171 -0.0539  0.0782
   37MOL   C29634208   2.980   5.451   2.610  0.0117 -0.3297 -0.1009
   37MOL   O29734209   3.073   5.512   2.559  0.2153  0.9768 -0.3140
   37MOL   C29834210   2.877   5.517   2.707 -0.5038 -0.2187  0.5700
   37MOL   C29934211   2.784   5.435   2.768  0.1554 -0.2076 -0.3106
   37MOL   C30034212   2.679   5.498   2.844  0.6026 -0.5531 -0.5920
   37MOL   C30134213   2.662   5.638   2.841  0.3090  0.5564  0.1903
   37MOL   C30234214   2.545   5.706   2.910  0.7167  0.0528  0.1278
   37MOL   O30334215   2.541   5.827   2.930 -0.0384  0.1944  0.0841
   37MOL   O30434216   2.451   5.618   2.946  0.4811  0.1378 -0.4955
   37MOL   C30534217   2.767   5.716   2.793  0.4558  0.4489  0.5965
   37MOL   C30634218   2.873   5.654   2.722  0.0058 -0.3214 -0.0480
   37MOL   H30734219   3.678   4.578   1.997  1.1049  0.3486 -0.8065
   37MOL   H30834220   3.718   4.748   1.967  1.8271 -0.7271  1.5591
   37MOL   H30934221   3.444   4.622   1.913  1.0435 -0.5060  0.0779
   37MOL   H31034222   3.496   4.773   1.855 -0.4249 -0.5041  0.0330
   37MOL   H31134223   3.491   4.699   2.153 -2.7998  0.1047  1.8722
   37MOL   H31234224   3.502   4.857   2.083  1.9077 -2.3663  0.6721
   37MOL   H31334225   3.253   4.679   2.047  1.2835 -1.2778 -0.8598
   37MOL   H31434226   3.265   4.830   1.967 -0.7076 -1.1579 -0.7984
   37MOL   H31534227   3.279   4.765   2.266  1.0077 -0.8879 -1.0544
   37MOL   H31634228   3.272   4.933   2.208  1.2484 -0.8961  1.0203
   37MOL   H31734229   3.029   4.873   2.132  1.6271 -0.2634 -1.7331
   37MOL   H31834230   3.048   4.719   2.210 -0.6129  0.9915 -0.0813
   37MOL   H31934231   2.938   4.844   2.372  0.5311 -0.8763  1.1982
   37MOL   H32034232   3.090   4.835   2.436  0.9137 -0.6014 -1.6070
   37MOL   H32134233   3.126   5.083   2.335  1.2256 -1.2803 -1.0191
   37MOL   H32234234   2.969   5.069   2.270  1.2726  1.2473 -0.3824
   37MOL   H32334235   3.052   5.071   2.570 -0.6899 -0.8628  1.2874
   37MOL   H32434236   2.888   5.073   2.509 -0.0121  1.2535 -0.8170
   37MOL   H32534237   2.934   5.288   2.392  0.9525 -0.5379 -0.3724
   37MOL   H32634238   3.099   5.288   2.451  0.7283 -1.5847 -0.0971
   37MOL   H32734239   2.793   5.328   2.764  0.3949 -0.2191  0.4442
   37MOL   H32834240   2.611   5.433   2.897  1.6709 -1.0172  0.2141
   37MOL   H32934241   2.755   5.823   2.787  1.2809  0.4888 -0.5256
   37MOL   H33034242   2.950   5.704   2.666 -2.0754  1.9711 -0.9121
   37MOL   O33134243   2.333   5.676   3.012 -0.8307  0.2205  0.0507
   37MOL   C33234244   2.347   5.661   3.154  0.2313 -0.4499  0.0160
   37MOL   C33334245   2.247   5.747   3.231 -0.2958 -0.1592  0.0830
   37MOL   C33434246   2.108   5.678   3.247  0.4131 -0.6784 -0.5361
   37MOL   C33534247   2.010   5.775   3.315 -0.2251  0.4894 -0.0560
   37MOL   C33634248   1.865   5.726   3.324  0.2147 -0.2093  0.8545
   37MOL   C33734249   1.784   5.780   3.203 -0.4193 -0.0331  0.9700
   37MOL   C33834250   1.635   5.763   3.213  0.0322 -0.2177 -0.3417
   37MOL   C33934251   1.553   5.839   3.107 -0.2068  0.8017 -0.4629
   37MOL   C34034252   1.402   5.835   3.118  0.3777  0.7684 -0.5342
   37MOL   C34134253   1.334   5.937   3.213  0.1806 -0.1674 -0.1025
   37MOL   O34234254   1.192   5.925   3.208  0.2169 -0.5707 -0.1269
   37MOL   C34334255   1.122   6.012   3.292  0.0073 -0.0633  0.8238
   37MOL   O34434256   1.174   6.110   3.354 -0.2717 -0.2377  0.3377
   37MOL   C34534257   0.981   5.971   3.300  0.3400  1.0481 -0.3240
   37MOL   C34634258   0.898   6.036   3.384  0.3710  0.2159 -0.5677
   37MOL   C34734259   0.759   6.011   3.382  0.1495  0.0304  0.4665
   37MOL   C34834260   0.709   5.892   3.322  0.2035 -0.0528 -0.2071
   37MOL   C34934261   0.567   5.851   3.342  0.6149 -0.9828  0.3119
   37MOL   O35034262   0.485   5.932   3.396 -0.1036  0.7883  0.8480
   37MOL   O35134263   0.542   5.724   3.317 -0.5923  0.1022 -0.3553
   37MOL   C35234264   0.796   5.810   3.243 -0.1765 -0.2970  0.2676
   37MOL   C35334265   0.928   5.854   3.230  0.0016 -0.1365  0.1058
   37MOL   H35434266   2.345   5.556   3.184 -0.5497 -0.2326  0.7385
   37MOL   H35534267   2.449   5.686   3.182  0.3813 -0.1864 -0.7586
   37MOL   H35634268   2.229   5.839   3.175  1.7480  1.3801  1.8323
   37MOL   H35734269   2.278   5.784   3.329  1.2147  1.0930 -0.8448
   37MOL   H35834270   2.070   5.656   3.147 -0.3778 -2.0847  0.0547
   37MOL   H35934271   2.114   5.585   3.304  0.3770 -0.5595 -0.3415
   37MOL   H36034272   2.015   5.876   3.274  0.3853  0.3964 -0.2149
   37MOL   H36134273   2.049   5.781   3.416 -0.0541 -1.8003  0.0550
   37MOL   H36234274   1.868   5.617   3.325 -1.3658 -0.2888 -0.3851
   37MOL   H36334275   1.823   5.766   3.416 -1.8427  0.3634 -0.2929
   37MOL   H36434276   1.804   5.887   3.198  0.2841 -0.2381 -1.3179
   37MOL   H36534277   1.809   5.730   3.109 -1.7181  0.2325  0.4656
   37MOL   H36634278   1.612   5.656   3.210 -1.3911  0.1258 -2.1335
   37MOL   H36734279   1.610   5.796   3.314  1.3325  2.1447 -0.7588
   37MOL   H36834280   1.574   5.946   3.113  0.7304  0.6761 -1.4320
   37MOL   H36934281   1.585   5.809   3.008  0.3260  2.6361 -0.8698
   37MOL   H37034282   1.380   5.734   3.153 -1.1495  1.4489  0.4970
   37MOL   H37134283   1.354   5.848   3.021  1.2249 -1.3891 -1.2813
   37MOL   H37234284   1.366   6.036   3.183  0.4443 -0.3558 -0.4458
   37MOL   H37334285   1.353   5.916   3.319  3.2039  2.1833 -0.1174
   37MOL   H37434286   0.933   6.126   3.431 -0.3634 -0.0534  0.5187
   37MOL   H37534287   0.706   6.076   3.449 -1.2833 -0.7870  0.1516
   37MOL   H37634288   0.775   5.723   3.182  1.8232 -1.8603  1.7445
   37MOL   H37734289   0.987   5.796   3.161  2.3566  2.1930  0.0519
   37MOL   O37834290   0.403   5.686   3.349  0.0854 -0.2192 -0.7892
   37MOL   C37934291   0.328   5.676   3.234 -0.1319 -0.1704  0.4716
   37MOL   C38034292   0.183   5.638   3.263  0.3494 -0.0845 -0.1345
   37MOL   C38134293   0.135   5.739   3.376 -0.5955  0.4452 -0.0232
   37MOL   C38234294   7.964   5.727   3.388  0.0638  0.0423 -0.1967
   37MOL   C38334295   7.903   5.814   3.494 -0.7597  0.0257  0.7058
   37MOL   C38434296   7.776   5.753   3.561  0.1993 -0.1027 -0.1592
   37MOL   C38534297   7.731   5.830   3.687  0.2349  0.5060 -0.0209
   37MOL   C38634298   7.586   5.793   3.727 -0.2276  0.0922  0.4317
   37MOL   C38734299   7.524   5.888   3.828 -0.4251 -0.2920 -0.6248
   37MOL   C38834300   7.379   5.844   3.876  0.0160 -0.4773  0.5245
   37MOL   O38934301   7.289   5.946   3.854 -0.1156 -0.1065 -0.1128
   37MOL   C39034302   7.159   5.930   3.839 -0.3248 -0.7125  0.0985
   37MOL   O39134303   7.109   5.817   3.840 -0.2911  0.3959  0.0533
   37MOL   C39234304   7.086   6.050   3.814 -0.1784  1.1217  0.3348
   37MOL   C39334305   6.945   6.043   3.799 -0.1491  0.6137  1.1297
   37MOL   C39434306   6.871   6.154   3.759  0.3579 -0.0733  0.0576
   37MOL   C39534307   6.933   6.278   3.739 -0.6447  0.0036 -0.1222
   37MOL   C39634308   6.844   6.388   3.690  0.1962  0.8557 -0.0254
   37MOL   O39734309   6.721   6.382   3.700 -0.7166  0.3727  0.3273
   37MOL   O39834310   6.910   6.492   3.639 -0.0742 -0.0876  0.0724
   37MOL   C39934311   7.072   6.293   3.775  0.1881 -0.6361  0.1084
   37MOL   C40034312   7.149   6.175   3.806 -0.5182 -0.4773 -0.1394
   37MOL   H40134313   0.326   5.773   3.184 -0.7569 -0.7087 -0.5671
   37MOL   H40234314   0.377   5.606   3.166 -1.9123  2.2874 -3.4971
   37MOL   H40334315   0.176   5.535   3.299 -1.0717  0.3297  0.8245
   37MOL   H40434316   0.134   5.648   3.166  0.1334 -1.0282 -0.1290
   37MOL   H40534317   0.193   5.707   3.463  0.5910 -0.7999 -1.2528
   37MOL   H40634318   0.167   5.843   3.361  0.1951  0.3423  0.8818
   37MOL   H40734319   7.942   5.621   3.399  1.8981 -0.3072  0.2632
   37MOL   H40834320   7.917   5.766   3.298 -1.1001  0.1999  0.4611
   37MOL   H40934321   7.970   5.827   3.579  1.1323 -1.7197 -0.4924
   37MOL   H41034322   7.880   5.913   3.455  0.5097 -0.2447 -0.7737
   37MOL   H41134323   7.697   5.752   3.485 -1.6802 -1.0894  1.7470
   37MOL   H41234324   7.785   5.647   3.585 -0.5826 -0.0315  0.4545
   37MOL   H41334325   7.792   5.813   3.776  0.4657 -1.9285 -0.6341
   37MOL   H41434326   7.730   5.936   3.659 -0.6197 -0.2087 -2.7653
   37MOL   H41534327   7.526   5.811   3.637  0.1646 -1.8668 -0.2464
   37MOL   H41634328   7.567   5.692   3.765  0.4773  0.6183  2.2230
   37MOL   H41734329   7.553   5.989   3.801 -1.3246  0.3637  0.8017
   37MOL   H41834330   7.580   5.867   3.919 -1.5106 -0.3042  0.0521
   37MOL   H41934331   7.378   5.834   3.984 -0.5112 -1.0384  0.4710
   37MOL   H42034332   7.354   5.749   3.828  0.0104  0.1405 -0.7050
   37MOL   H42134333   6.902   5.944   3.809  0.2993  0.1205 -1.4281
   37MOL   H42234334   6.764   6.145   3.744 -0.4050  1.4094  3.9918
   37MOL   H42334335   7.125   6.388   3.777 -0.3950 -0.2928 -0.3414
   37MOL   H42434336   7.251   6.178   3.840 -0.8965  1.4536  0.9271
   37MOL   O42534337   6.823   6.612   3.607 -0.1573  0.6705 -0.3263
   37MOL   C42634338   6.883   6.728   3.657  0.1518  0.3065  0.8289
   37MOL   C42734339   6.822   6.846   3.578  0.1510 -0.7010 -0.2176
   37MOL   C42834340   6.904   6.972   3.605  0.0591  0.1563 -0.3580
   37MOL   C42934341   6.850   7.102   3.552 -0.5006  0.4675  0.7158
   37MOL   C43034342   6.927   7.229   3.603 -0.2595  0.2350  0.0246
   37MOL   C43134343   7.075   7.241   3.563  0.7208  0.3175 -0.1672
   37MOL   C43234344   7.137   7.375   3.597 -0.5350 -0.0888 -0.0653
   37MOL   C43334345   7.276   7.386   3.532 -0.2148 -0.3089  0.3323
   37MOL   C43434346   7.350   7.508   3.597  0.0297 -0.6073  0.0830
   37MOL   C43534347   7.493   7.522   3.550 -0.1129  0.0274  0.1137
   37MOL   O43634348   7.507   7.569   3.415 -0.0281  0.5415  0.2481
   37MOL   C43734349   7.506   7.486   3.312 -0.0982  0.4546  0.3646
   37MOL   O43834350   7.538   7.369   3.325  0.0254 -0.3886 -0.1394
   37MOL   C43934351   7.483   7.556   3.183 -0.2561 -0.3640  0.4177
   37MOL   C44034352   7.452   7.475   3.068  0.1100  0.4359 -0.0867
   37MOL   C44134353   7.427   7.532   2.941  0.2426  0.4856  0.4285
   37MOL   C44234354   7.443   7.671   2.926  0.2942  0.1341  0.8054
   37MOL   C44334355   7.429   7.733   2.785  0.3663 -0.6496  0.7880
   37MOL   O44434356   7.402   7.670   2.685 -0.1686  0.7450 -0.0718
   37MOL   O44534357   7.439   7.866   2.785 -0.2427  0.2942  0.3587
   37MOL   C44634358   7.477   7.745   3.036  0.1498 -0.1426 -0.5923
   37MOL   C44734359   7.503   7.689   3.162 -0.1256 -0.4373 -0.5981
   37MOL   H44834360   6.888   6.741   3.765  0.2044  3.0358  0.5328
   37MOL   H44934361   6.988   6.729   3.627  0.2886 -1.6617  1.1985
   37MOL   H45034362   6.717   6.864   3.603  0.3081  0.1424 -0.1557
   37MOL   H45134363   6.825   6.833   3.469  0.0159 -0.4098 -0.2597
   37MOL   H45234364   6.907   6.977   3.714  1.7079  0.3415 -0.3931
   37MOL   H45334365   7.007   6.953   3.573 -0.1111  0.6943 -1.2384
   37MOL   H45434366   6.745   7.105   3.582 -2.0533 -2.2225 -4.0143
   37MOL   H45534367   6.853   7.099   3.443  2.1418  0.9783  0.7428
   37MOL   H45634368   6.869   7.311   3.559 -0.2749  1.2004  1.7788
   37MOL   H45734369   6.919   7.259   3.708  0.6391  2.1111 -0.4126
   37MOL   H45834370   7.131   7.164   3.617 -0.9390 -0.6150  0.2675
   37MOL   H45934371   7.098   7.215   3.460 -0.5285 -0.2087 -0.3281
   37MOL   H46034372   7.066   7.449   3.561  0.8928  1.1749 -0.3763
   37MOL   H46134373   7.148   7.396   3.703 -1.3080 -1.0131  0.1982
   37MOL   H46234374   7.332   7.293   3.543 -2.5377 -2.4905 -4.5197
   37MOL   H46334375   7.269   7.413   3.426 -0.8975  1.9572  0.9329
   37MOL   H46434376   7.339   7.507   3.706  0.3869 -0.4275  0.1199
   37MOL   H46534377   7.291   7.596   3.570 -3.9300 -3.3121 -0.6048
   37MOL   H46634378   7.546   7.427   3.557  0.6773  0.4585  0.0163
   37MOL   H46734379   7.547   7.599   3.604 -0.6246  0.0114  0.6493
   37MOL   H46834380   7.440   7.368   3.076  1.1317  0.1177 -2.4939
   37MOL   H46934381   7.403   7.469   2.856  1.6646 -0.3406  0.6315
   37MOL   H47034382   7.505   7.850   3.033 -0.0130 -0.0363  1.0723
   37MOL   H47134383   7.524   7.753   3.247 -2.4211 -0.9913  0.4259
   37MOL   O47234384   7.469   7.922   2.648  0.3888  0.8792 -0.2452
   37MOL   C47334385   7.349   0.004   2.608 -0.5374 -0.1070 -0.4492
   37MOL   C47434386   7.325   0.131   2.686  0.4637 -0.2382 -0.3888
   37MOL   C47534387   7.438   0.236   2.705 -0.1308  0.1571 -0.2032
   37MOL   C47634388   7.541   0.197   2.802 -0.6562 -0.4499 -0.6776
   37MOL   C47734389   7.492   0.160   2.944 -0.0400  0.3700  0.1840
   37MOL   C47834390   7.607   0.151   3.053 -0.3504  0.0289 -0.3360
   37MOL   C47934391   7.560   0.135   3.199 -0.2363  0.3114  0.3133
   37MOL   C48034392   7.496   0.255   3.272  0.0636  0.3525 -0.1049
   37MOL   C48134393   7.593   0.373   3.303  0.0174  0.6797  0.1184
   37MOL   C48234394   7.542   0.471   3.414 -0.6672 -0.3266  0.5161
   37MOL   O48334395   7.646   0.528   3.495 -0.0774  0.2114  0.3067
   37MOL   C48434396   7.623   0.581   3.624 -0.0008 -0.2882 -0.1955
   37MOL   O48534397   7.520   0.562   3.688  0.3342  0.4874 -0.0887
   37MOL   C48634398   7.734   0.653   3.687  0.1192  0.0460  0.4503
   37MOL   C48734399   7.713   0.706   3.816 -0.2014 -0.1732 -0.3704
   37MOL   C48834400   7.824   0.766   3.887 -0.0999 -1.2764 -0.6228
   37MOL   C48934401   7.947   0.790   3.819 -0.0882 -0.0635 -0.2839
   37MOL   C49034402   0.079   0.871   3.889  0.5492  0.9808 -0.2896
   37MOL   O49134403   0.070   0.907   4.007  0.5123 -0.1191  0.1311
   37MOL   O49234404   0.183   0.894   3.799 -0.2406 -0.3231 -0.2532
   37MOL   C49334405   7.961   0.750   3.682 -0.3415  0.4092 -0.3038
   37MOL   C49434406   7.861   0.670   3.625 -0.2312 -0.0292 -0.4854
   37MOL   H49534407   7.357   0.032   2.503  1.6454  1.1009  0.0020
   37MOL   H49634408   7.268   7.909   2.611 -2.8968  2.4918  0.9103
   37MOL   H49734409   7.289   0.103   2.785 -1.9823 -0.5516 -1.3473
   37MOL   H49834410   7.237   0.173   2.639  0.5371 -0.3155 -0.5945
   37MOL   H49934411   7.471   0.267   2.606  0.2529  2.1110  0.5112
   37MOL   H50034412   7.401   0.331   2.743 -1.9235 -0.4857 -0.2799
   37MOL   H50134413   7.611   0.280   2.809  0.6473 -1.6135  0.4786
   37MOL   H50234414   7.592   0.108   2.767 -0.6906 -0.0717 -1.6961
   37MOL   H50334415   7.428   0.243   2.974 -2.1492 -0.4579 -1.8371
   37MOL   H50434416   7.427   0.074   2.955 -1.0706  1.1682  0.3854
   37MOL   H50534417   7.665   0.063   3.026 -1.8224 -1.2284  0.5169
   37MOL   H50634418   7.682   0.230   3.052  1.3089 -1.4569  2.1983
   37MOL   H50734419   7.488   0.053   3.200 -1.8097  1.6713  1.0686
   37MOL   H50834420   7.637   0.096   3.266 -0.7994 -0.0816  0.7425
   37MOL   H50934421   7.401   0.272   3.221  0.3947  0.8156 -0.5762
   37MOL   H51034422   7.465   0.215   3.369 -0.0428  0.2199 -0.1941
   37MOL   H51134423   7.628   0.423   3.213 -1.1189 -0.5394 -1.0222
   37MOL   H51234424   7.675   0.320   3.350 -2.3455 -1.8323  1.5314
   37MOL   H51334425   7.471   0.424   3.482 -0.3443 -1.2353  0.2387
   37MOL   H51434426   7.484   0.553   3.372  0.8439  0.9916  0.9961
   37MOL   H51534427   7.621   0.686   3.869  1.4352  0.1599  2.7289
   37MOL   H51634428   7.825   0.804   3.988  0.8349 -0.3616 -0.9705
   37MOL   H51734429   0.073   0.766   3.626  0.2002  0.7998  0.6763
   37MOL   H51834430   7.877   0.624   3.529  0.5087  1.4236 -1.0745
   37MOL   O51934431   0.271   1.002   3.852 -0.3656 -0.1636  0.1343
   37MOL   C52034432   0.397   0.946   3.892  0.8405  0.1378 -0.3396
   37MOL   C52134433   0.388   0.915   4.037  0.0497  0.2587  0.5245
   37MOL   C52234434   0.521   0.897   4.106 -0.3542 -0.2704 -0.1469
   37MOL   C52334435   0.499   0.897   4.261  0.1950 -0.3410 -0.3527
   37MOL   C52434436   0.622   0.838   4.338  0.4994 -0.2553  0.0290
   37MOL   C52534437   0.719   0.950   4.370 -0.8318 -0.8946 -0.2039
   37MOL   C52634438   0.838   0.901   4.463  0.0363  0.5804 -0.2745
   37MOL   C52734439   0.793   0.836   4.594 -1.1888  0.2321 -0.1096
   37MOL   C52834440   0.909   0.829   4.693  0.7304  0.6458 -0.1339
   37MOL   C52934441   0.886   0.750   4.817  0.8357  0.5958  0.0916
   37MOL   O53034442   0.776   0.791   4.894  0.1317  0.2868 -0.3592
   37MOL   C53134443   0.658   0.726   4.878 -0.3581 -0.2850  0.0668
   37MOL   O53234444   0.625   0.634   4.804  0.2145 -0.5025 -0.3165
   37MOL   C53334445   0.557   0.779   4.970 -0.3896  0.9127 -0.0026
   37MOL   C53434446   0.423   0.773   4.928  0.8021 -0.4679 -0.6363
   37MOL   C53534447   0.320   0.825   5.012 -0.1211  0.1064  0.1617
   37MOL   C53634448   0.358   0.884   5.137  0.1180  0.1162 -0.8658
   37MOL   C53734449   0.256   0.941   5.230  0.2615  0.3873 -0.2200
   37MOL   O53834450   0.136   0.940   5.207 -0.0166 -0.0080  0.2091
   37MOL   O53934451   0.304   0.986   5.344 -0.6367 -0.5067  0.1047
   37MOL   C54034452   0.495   0.898   5.172  0.9123 -0.2237  0.5325
   37MOL   C54134453   0.594   0.845   5.092  0.4102  0.6469  0.1111
   37MOL   H54234454   0.419   0.851   3.843 -1.1967 -0.3436 -0.3952
   37MOL   H54334455   0.466   1.023   3.859 -1.3552  1.5647 -1.6975
   37MOL   H54434456   0.318   0.832   4.049 -1.8503  1.8715  0.9574
   37MOL   H54534457   0.335   1.002   4.078  0.3527  1.5901 -1.8121
   37MOL   H54634458   0.567   0.801   4.082 -3.1934 -1.2170 -2.0325
   37MOL   H54734459   0.599   0.971   4.085  0.1789  0.7757  4.8417
   37MOL   H54834460   0.416   0.829   4.284  0.3380 -0.6949 -0.8643
   37MOL   H54934461   0.469   0.995   4.296  2.3210  0.4399 -0.7078
   37MOL   H55034462   0.580   0.803   4.432  0.6630  0.3165  0.3191
   37MOL   H55134463   0.672   0.761   4.278 -0.2272 -1.1020  0.5005
   37MOL   H55234464   0.771   0.979   4.278  0.8493 -0.8167  0.7385
   37MOL   H55334465   0.665   1.038   4.405 -1.6524 -0.5483 -2.2823
   37MOL   H55434466   0.897   0.828   4.408 -0.6431  0.7706 -1.2805
   37MOL   H55534467   0.906   0.984   4.484  1.1463 -0.4064  0.0662
   37MOL   H55634468   0.718   0.899   4.642 -1.9034 -0.7754  0.1041
   37MOL   H55734469   0.757   0.735   4.573  0.0374  0.2940 -2.7160
   37MOL   H55834470   0.937   0.930   4.722 -0.5647  0.7612  0.7666
   37MOL   H55934471   1.000   0.797   4.642  0.9175  2.5478 -1.0424
   37MOL   H56034472   0.969   0.774   4.885  0.4848 -1.2347  1.2047
   37MOL   H56134473   0.878   0.643   4.796  0.1424  0.5114  0.7287
   37MOL   H56234474   0.396   0.720   4.838 -0.8087  0.6211 -0.8060
   37MOL   H56334475   0.216   0.833   4.984 -0.4409 -2.0199  0.5981
   37MOL   H56434476   0.533   0.952   5.257 -0.2587  1.3258  0.0998
   37MOL   H56534477   0.699   0.854   5.115  0.7494 -3.4237  0.5912
   37MOL   O56634478   0.206   1.056   5.428  0.2549  0.3432 -0.1863
   37MOL   C56734479   0.228   1.195   5.436  0.2898  0.5402 -0.4440
   37MOL   C56834480   0.138   1.254   5.539  0.1503  0.2402  0.3183
   37MOL   C56934481   0.030   1.353   5.488 -0.0461 -0.0766  0.5334
   37MOL   C57034482   7.926   1.418   5.595  0.1294  0.0778  0.5651
   37MOL   C57134483   7.787   1.471   5.558 -0.0037 -0.4390 -0.0215
   37MOL   C57234484   7.714   1.550   5.670 -0.7529 -0.6226  0.1327
   37MOL   C57334485   7.794   1.670   5.727  0.0345 -0.7064 -0.3911
   37MOL   C57434486   7.717   1.760   5.825 -0.1742 -0.4072  0.0504
   37MOL   C57534487   7.809   1.854   5.909  0.4630  0.4499  0.9899
   37MOL   C57634488   7.733   1.915   6.023 -0.0996 -0.4420 -0.2517
   37MOL   O57734489   7.722   1.821   6.131 -0.6391 -0.2173  0.3666
   37MOL   C57834490   7.735   1.868   6.260 -0.0862  0.3360  0.1675
   37MOL   O57934491   7.800   1.973   6.286  0.2302  0.7206  0.3033
   37MOL   C58034492   7.656   1.788   6.355  0.7484 -0.4163  0.4112
   37MOL   C58134493   7.709   1.766   6.482  0.5252 -0.0779 -0.1520
   37MOL   C58234494   7.638   1.688   6.573  0.1982 -0.2107 -0.6308
   37MOL   C58334495   7.512   1.636   6.542  0.4248  0.0902  0.1423
   37MOL   C58434496   7.434   1.571   6.654  0.3398  0.6196 -0.0649
   37MOL   O58534497   7.485   1.540   6.762  0.7971  0.5201 -0.0286
   37MOL   O58634498   7.299   1.558   6.623 -0.6353 -0.5184 -0.2509
   37MOL   C58734499   7.472   1.636   6.409  0.6126 -0.3077 -0.0203
   37MOL   C58834500   7.547   1.713   6.315 -0.2615  0.6657 -0.1961
   37MOL   H58934501   0.334   1.217   5.445  0.5353 -1.7532  2.8885
   37MOL   H59034502   0.203   1.232   5.336  1.3086  1.4442 -0.3795
   37MOL   H59134503   0.188   1.303   5.623  1.1096  0.5667 -0.4306
   37MOL   H59234504   0.080   1.170   5.577  1.7269  0.2565  2.8594
   37MOL   H59334505   0.080   1.432   5.431  2.5172 -0.8931  1.5809
   37MOL   H59434506   7.945   1.310   5.409  1.6510 -0.3079 -0.7260
   37MOL   H59534507   0.004   1.501   5.639 -1.8193  0.8400  1.6933
   37MOL   H59634508   7.904   1.362   5.686 -3.1865  1.7848  0.8890
   37MOL   H59734509   7.788   1.519   5.460 -0.0984  0.6024  0.4799
   37MOL   H59834510   7.720   1.388   5.535 -0.6948  0.2447 -0.5198
   37MOL   H59934511   7.618   1.583   5.630 -1.5350  0.5006  2.8889
   37MOL   H60034512   7.696   1.464   5.735 -0.7865 -1.5264 -1.0539
   37MOL   H60134513   7.885   1.638   5.776  0.0717 -0.5148 -0.3328
   37MOL   H60234514   7.832   1.726   5.641  1.7787  0.6989  1.2520
   37MOL   H60334515   7.637   1.818   5.779  0.6373  0.9514  0.3118
   37MOL   H60434516   7.659   1.701   5.896  0.2125 -2.8249 -1.5843
   37MOL   H60534517   7.860   1.924   5.844  0.5285 -1.0239 -0.5718
   37MOL   H60634518   7.895   1.804   5.953  0.7102 -0.8775 -0.9268
   37MOL   H60734519   7.633   1.953   6.000  0.0490  0.2545  0.2467
   37MOL   H60834520   7.787   2.005   6.052 -1.4072 -0.1380  1.3082
   37MOL   H60934521   7.793   1.826   6.516 -0.0677  0.0578  1.1002
   37MOL   H61034522   7.662   1.685   6.678 -2.4030  1.8561  0.0712
   37MOL   H61134523   7.380   1.592   6.374 -0.3172  3.7015 -2.9346
   37MOL   H61234524   7.522   1.711   6.210  1.0413  0.2365 -0.5151
   37MOL   O61334525   7.210   1.474   6.717 -0.5705 -0.4579  0.2562
   37MOL   C61434526   7.202   1.340   6.668  0.1585 -0.4197 -0.2607
   37MOL   C61534527   7.113   1.260   6.762 -0.0328  0.3609 -0.3823
   37MOL   C61634528   7.082   1.123   6.701  0.3676 -0.3221  0.3305
   37MOL   C61734529   6.987   1.032   6.777 -0.0963 -0.4140  0.0895
   37MOL   C61834530   6.842   1.064   6.780 -0.2029  0.1140 -0.2437
   37MOL   C61934531   6.769   1.092   6.653  0.4177  0.6902  0.3245
   37MOL   C62034532   6.775   1.243   6.603  0.6797  0.0762 -0.4051
   37MOL   C62134533   6.649   1.279   6.519  0.6413 -0.4590 -0.3368
   37MOL   C62234534   6.633   1.430   6.495 -0.0957  0.8884  0.1160
   37MOL   C62334535   6.525   1.479   6.406  0.1893  0.1896 -0.2576
   37MOL   O62434536   6.537   1.412   6.277 -0.0555  0.1142 -0.1831
   37MOL   C62534537   6.582   1.481   6.171  0.5204 -0.2834  0.0866
   37MOL   O62634538   6.620   1.592   6.184  0.5618  0.4336  0.2027
   37MOL   C62734539   6.583   1.401   6.049  0.5085 -0.1032  0.0972
   37MOL   C62834540   6.554   1.263   6.048  0.9864 -0.1803 -0.2543
   37MOL   C62934541   6.562   1.188   5.932  0.0929  0.2354  0.2850
   37MOL   C63034542   6.604   1.243   5.809 -0.5722 -0.3742  0.6390
   37MOL   C63134543   6.624   1.164   5.688 -0.4188 -0.0729  0.0357
   37MOL   O63234544   6.604   1.042   5.680 -0.1838 -0.4890  0.1655
   37MOL   O63334545   6.650   1.239   5.572  0.6924 -0.2997 -0.3143
   37MOL   C63434546   6.638   1.383   5.805 -0.1287  0.1047  0.4158
   37MOL   C63534547   6.625   1.460   5.928 -0.0074  0.2693 -0.1381
   37MOL   H63634548   7.147   1.340   6.574 -0.2127  0.5679 -0.0542
   37MOL   H63734549   7.297   1.293   6.647 -0.3105 -1.8538  0.7369
   37MOL   H63834550   7.019   1.311   6.783 -1.7215 -2.1946 -1.4852
   37MOL   H63934551   7.168   1.242   6.855  2.7466 -2.1863 -2.4102
   37MOL   H64034552   7.026   1.125   6.607 -0.3116 -0.1361  0.7374
   37MOL   H64134553   7.173   1.073   6.666  0.5074 -0.7470  1.2927
   37MOL   H64234554   7.019   1.028   6.881 -1.1358  1.8307  0.5184
   37MOL   H64334555   6.999   0.932   6.734  0.3615  0.1372 -1.0812
   37MOL   H64434556   6.785   0.988   6.834  1.0462 -0.3868  0.4093
   37MOL   H64534557   6.840   1.148   6.848  1.0351  0.2612 -0.3737
   37MOL   H64634558   6.797   1.030   6.568  1.8796  1.2726  0.3710
   37MOL   H64734559   6.664   1.069   6.667  0.4457  0.9780  1.0262
   37MOL   H64834560   6.776   1.313   6.687 -0.0356  0.5252 -0.7672
   37MOL   H64934561   6.865   1.268   6.546  0.1976 -1.1217 -1.7194
   37MOL   H65034562   6.639   1.221   6.427 -0.0625 -0.8874  0.0041
   37MOL   H65134563   6.564   1.250   6.581 -0.9555  1.3960 -1.5807
   37MOL   H65234564   6.729   1.460   6.453  0.5600  1.5613  2.0424
   37MOL   H65334565   6.635   1.477   6.594 -1.0854  1.3239 -0.0614
   37MOL   H65434566   6.536   1.587   6.403 -1.7855  0.3892 -1.4973
   37MOL   H65534567   6.424   1.474   6.448  0.3592 -0.1566  0.1109
   37MOL   H65634568   6.540   1.209   6.140  0.2704  1.8981  0.8854
   37MOL   H65734569   6.550   1.081   5.937  1.5193  0.1545  2.7348
   37MOL   H65834570   6.690   1.429   5.723 -1.4754 -1.4406 -1.3550
   37MOL   H65934571   6.648   1.565   5.931 -0.5737  0.4288 -1.0877
   37MOL   O66034572   6.661   1.151   5.448  0.0521  0.0438  0.3608
   37MOL   C66134573   6.795   1.155   5.404 -0.2018 -0.5879  0.0183
   37MOL   C66234574   6.803   1.056   5.291  0.0324 -0.1601 -0.4366
   37MOL   C66334575   6.955   1.020   5.265  0.5031 -0.0945  0.4406
   37MOL   C66434576   7.020   0.916   5.355  0.0457 -0.2175 -1.1883
   37MOL   C66534577   6.979   0.774   5.311 -0.4744  0.1616 -0.0240
   37MOL   C66634578   7.066   0.661   5.377 -0.3407  0.0460 -0.4337
   37MOL   C66734579   7.070   0.533   5.298  0.2599  0.3050 -0.0789
   37MOL   C66834580   6.933   0.495   5.259  0.5671 -0.1191 -0.1388
   37MOL   C66934581   6.939   0.350   5.200 -0.0604 -0.2787  0.4337
   37MOL   C67034582   6.815   0.283   5.165  0.3294 -0.0221 -0.2100
   37MOL   O67134583   6.827   0.199   5.048 -0.2080 -0.0614  0.2502
   37MOL   C67234584   6.845   0.069   5.057 -0.6816 -0.7649 -0.0140
   37MOL   O67334585   6.855   0.000   5.160  0.3343  0.2259  0.1453
   37MOL   C67434586   6.857   0.004   4.924 -0.3591 -0.1313  0.2457
   37MOL   C67534587   6.919   0.067   4.813 -0.9244 -0.8585 -0.1837
   37MOL   C67634588   6.925   7.977   4.689 -0.7411  0.3211 -0.1391
   37MOL   C67734589   6.885   7.835   4.675 -0.4460 -0.4754  0.4541
   37MOL   C67834590   6.881   7.770   4.542 -0.6105  0.5446 -0.2792
   37MOL   O67934591   6.894   7.829   4.435 -0.2159 -0.2144  0.0394
   37MOL   O68034592   6.861   7.633   4.550  0.7575  0.1568  0.6160
   37MOL   C68134593   6.832   7.776   4.790  0.6406 -0.2164 -0.4602
   37MOL   C68234594   6.817   7.849   4.912 -0.2823  0.4295 -0.1113
   37MOL   H68334595   6.818   1.257   5.375 -0.2953 -0.4292  0.4885
   37MOL   H68434596   6.861   1.123   5.485  0.3503 -0.1962 -0.2752
   37MOL   H68534597   6.757   1.094   5.200 -1.4530 -0.6178  0.0969
   37MOL   H68634598   6.760   0.959   5.316  0.3571  0.0845  1.1433
   37MOL   H68734599   6.970   1.019   5.157  0.2004  5.0052  0.2384
   37MOL   H68834600   7.007   1.111   5.295 -1.8175  2.5085 -2.9452
   37MOL   H68934601   7.005   0.942   5.460  2.8686 -1.6136 -0.3967
   37MOL   H69034602   7.127   0.933   5.343  0.3302 -0.3029  1.0508
   37MOL   H69134603   6.871   0.757   5.312 -0.4841  0.3105  1.4976
   37MOL   H69234604   6.999   0.778   5.203  0.4267 -0.5716  0.1077
   37MOL   H69334605   7.170   0.696   5.383 -0.3560  0.1905 -0.9580
   37MOL   H69434606   7.037   0.642   5.480 -1.0718  2.0478 -0.2501
   37MOL   H69534607   7.133   0.547   5.210 -0.8337  0.6986 -0.8189
   37MOL   H69634608   7.107   0.454   5.363 -1.4375  0.5311  1.1926
   37MOL   H69734609   6.868   0.495   5.347  0.6329  0.6781 -0.0875
   37MOL   H69834610   6.887   0.567   5.192  0.0307  0.9260  1.3203
   37MOL   H69934611   6.992   0.286   5.272  0.1159  0.7899  1.2646
   37MOL   H70034612   6.997   0.353   5.108 -0.1973  0.6816  0.3729
   37MOL   H70134613   6.733   0.346   5.130 -0.5404 -0.9895  0.0656
   37MOL   H70234614   6.777   0.228   5.251 -0.1921  1.4933  0.5591
   37MOL   H70334615   6.944   0.172   4.813  0.3027 -1.1391 -0.7005
   37MOL   H70434616   6.963   0.045   4.598 -1.2016 -1.8535 -1.4687
   37MOL   H70534617   6.818   7.669   4.784  0.1741 -0.1576 -0.4715
   37MOL   H70634618   6.767   7.797   4.992 -1.8841  2.1457  0.0443
   37MOL   O70734619   6.830   7.564   4.420 -0.1803 -0.5950  0.1230
   37MOL   C70834620   6.685   7.544   4.415 -0.4921  0.5788  0.1083
   37MOL   C70934621   6.660   7.431   4.513 -0.5504 -0.1900  0.0423
   37MOL   C71034622   6.520   7.372   4.519 -0.7837 -0.1237 -0.0400
   37MOL   C71134623   6.462   7.317   4.389  0.4624  0.5168 -0.0569
   37MOL   C71234624   6.326   7.249   4.419  0.0639  0.5045 -0.5643
   37MOL   C71334625   6.243   7.173   4.308 -0.5583 -0.8464  0.1461
   37MOL   C71434626   6.105   7.124   4.355  0.2885 -0.4302  1.3163
   37MOL   C71534627   5.997   7.118   4.238  0.0051  0.4376 -0.4432
   37MOL   C71634628   5.872   7.034   4.266  0.3003  0.1608 -0.6992
   37MOL   C71734629   5.761   7.050   4.168 -1.0590 -0.9720  0.0375
   37MOL   O71834630   5.708   7.181   4.173 -0.5514 -0.2299  0.1391
   37MOL   C71934631   5.579   7.214   4.170  0.0480 -0.3765 -0.0980
   37MOL   O72034632   5.491   7.131   4.158  0.3880 -0.0774 -0.6543
   37MOL   C72134633   5.558   7.363   4.165  0.1173 -0.1447 -0.5556
   37MOL   C72234634   5.658   7.449   4.122  0.4863 -0.6418 -0.1288
   37MOL   C72334635   5.632   7.586   4.107  0.2775 -0.5253 -0.3144
   37MOL   C72434636   5.509   7.641   4.143 -0.2739 -0.6397  0.1019
   37MOL   C72534637   5.479   7.786   4.109  1.0127  0.4326 -0.2830
   37MOL   O72634638   5.368   7.838   4.102  0.4004  0.4334  0.9125
   37MOL   O72734639   5.595   7.859   4.093  0.6608  0.3876 -0.2057
   37MOL   C72834640   5.412   7.557   4.197 -0.1854  0.0127  0.5885
   37MOL   C72934641   5.438   7.421   4.212  0.2791 -0.1007  0.3988
   37MOL   H73034642   6.641   7.638   4.449 -0.4636  0.8199 -0.5046
   37MOL   H73134643   6.650   7.516   4.316 -2.2062 -0.6605  1.0484
   37MOL   H73234644   6.689   7.466   4.612 -0.5095  0.1588 -0.0908
   37MOL   H73334645   6.729   7.351   4.486 -1.2997 -0.8435  0.0608
   37MOL   H73434646   6.522   7.298   4.599  0.7270 -1.9126 -1.6852
   37MOL   H73534647   6.449   7.448   4.550  0.6150  0.5147  1.7011
   37MOL   H73634648   6.541   7.252   4.352 -0.2523 -0.3208 -0.1034
   37MOL   H73734649   6.446   7.404   4.324 -2.6733 -0.6592 -0.9447
   37MOL   H73834650   6.355   7.169   4.487 -2.3420  0.5104  0.5493
   37MOL   H73934651   6.265   7.327   4.466 -1.3584 -1.8636  1.6998
   37MOL   H74034652   6.235   7.242   4.224  1.1826 -3.3743 -2.1703
   37MOL   H74134653   6.299   7.086   4.276 -1.1791 -1.7369  1.4299
   37MOL   H74234654   6.106   7.020   4.387  1.7512 -0.5517  0.9008
   37MOL   H74334655   6.060   7.178   4.438  1.4742  1.9751  0.4486
   37MOL   H74434656   5.960   7.218   4.219 -0.3911  0.5566  0.9267
   37MOL   H74534657   6.052   7.082   4.151 -0.7930  0.7431 -1.0705
   37MOL   H74634658   5.834   7.066   4.363  0.6525 -0.4647 -0.3460
   37MOL   H74734659   5.894   6.927   4.270  1.6083  0.4908  2.3241
   37MOL   H74834660   5.686   6.972   4.181  0.0787 -1.8902  1.3707
   37MOL   H74934661   5.798   7.035   4.066 -0.6854 -1.1353  0.1933
   37MOL   H75034662   5.755   7.407   4.100 -0.7599 -2.0188 -3.3050
   37MOL   H75134663   5.708   7.652   4.068 -0.2443  0.3547  0.1236
   37MOL   H75234664   5.312   7.594   4.212  0.4426  2.0485  0.0239
   37MOL   H75334665   5.357   7.357   4.244 -1.0462  0.7946 -1.0764
   37MOL   O75434666   5.571   0.030   4.080 -0.0127  0.2934  0.0994
   37MOL   C75534667   5.549   0.059   3.939 -1.0644 -0.1838 -0.1004
   37MOL   C75634668   5.552   0.208   3.910  0.3631 -0.1304 -0.3279
   37MOL   C75734669   5.512   0.245   3.764  0.4561  0.0138  0.0054
   37MOL   C75834670   5.523   0.397   3.740  0.1839  0.0761  0.5729
   37MOL   C75934671   5.531   0.420   3.587  0.1585  0.2152  0.1142
   37MOL   C76034672   5.491   0.565   3.550  0.3106  0.6103 -0.5684
   37MOL   C76134673   5.535   0.615   3.412 -0.2236 -0.2319  0.7653
   37MOL   C76234674   5.483   0.765   3.396  0.9654 -0.6526 -0.4164
   37MOL   C76334675   5.455   0.809   3.255  0.1119 -0.4358  0.6498
   37MOL   C76434676   5.583   0.850   3.171  0.2008 -0.2553  0.1154
   37MOL   O76534677   5.677   0.740   3.147 -0.1012  0.3343 -0.3240
   37MOL   C76634678   5.766   0.742   3.043  0.0974  0.2324 -0.9309
   37MOL   O76734679   5.783   0.837   2.962 -0.0671  0.2440 -0.2048
   37MOL   C76834680   5.834   0.611   3.042 -0.1089 -0.9076  0.0068
   37MOL   C76934681   5.808   0.508   3.137 -0.2637  0.4619  0.5096
   37MOL   C77034682   5.890   0.397   3.128 -0.4751  0.1137 -0.0378
   37MOL   C77134683   5.987   0.374   3.028 -0.2009  0.6837  0.0502
   37MOL   C77234684   6.058   0.243   3.016  0.7392  0.5725  0.1535
   37MOL   O77334685   6.116   0.200   2.916  0.3816 -0.4931  0.0582
   37MOL   O77434686   6.047   0.169   3.125  0.1459 -0.6291  0.2629
   37MOL   C77534687   6.010   0.474   2.932 -0.0061  0.1621  0.4409
   37MOL   C77634688   5.936   0.593   2.942 -0.1386 -0.4373 -0.8096
   37MOL   H77734689   5.621   0.014   3.871  1.4643  1.3653  1.4470
   37MOL   H77834690   5.448   0.028   3.913 -1.5311 -0.4691  1.9258
   37MOL   H77934691   5.651   0.248   3.931  0.3714  1.1554 -2.6462
   37MOL   H78034692   5.480   0.256   3.976 -0.0762 -1.3655  0.0939
   37MOL   H78134693   5.592   0.193   3.711  1.1731 -0.5629  1.6185
   37MOL   H78234694   5.413   0.210   3.737  0.3798  1.8315 -2.2747
   37MOL   H78334695   5.611   0.443   3.784  1.0858 -0.3553 -0.7609
   37MOL   H78434696   5.430   0.435   3.782  0.8602  1.2950  0.9885
   37MOL   H78534697   5.633   0.425   3.550  0.4437  2.6286  1.1115
   37MOL   H78634698   5.483   0.342   3.528  1.0700 -0.6158  0.4714
   37MOL   H78734699   5.383   0.566   3.565  0.3779 -1.1014  0.1162
   37MOL   H78834700   5.531   0.629   3.628 -0.3910 -0.4181  0.6507
   37MOL   H78934701   5.643   0.608   3.395 -0.4001  0.3812 -0.6784
   37MOL   H79034702   5.485   0.556   3.336  0.5386  0.3301 -0.1861
   37MOL   H79134703   5.386   0.778   3.443  0.8557 -2.2562 -0.1513
   37MOL   H79234704   5.538   0.843   3.449  0.9325 -0.6356 -0.4076
   37MOL   H79334705   5.378   0.886   3.247  0.0661 -0.5846 -0.4387
   37MOL   H79434706   5.415   0.725   3.197 -0.9538  0.1840  0.4727
   37MOL   H79534707   5.635   0.931   3.223 -0.2627  0.6716 -0.8510
   37MOL   H79634708   5.545   0.898   3.081 -0.7823  0.4213  0.8759
   37MOL   H79734709   5.758   0.528   3.230  0.7264 -1.8102  1.5767
   37MOL   H79834710   5.883   0.324   3.207 -0.5489 -0.7019 -0.7873
   37MOL   H79934711   6.065   0.460   2.840  0.2514 -0.4806  0.6896
   37MOL   H80034712   5.951   0.666   2.864 -0.1706 -0.0442 -0.4478
   37MOL   O80134713   6.114   0.034   3.117 -0.1754 -0.1189 -0.7204
   37MOL   C80234714   6.017   7.911   3.078 -0.0974 -0.1927  0.7883
   37MOL   C80334715   5.902   7.901   3.169  0.3311  0.5827  0.1590
   37MOL   C80434716   5.846   7.762   3.177 -0.0871  0.5194  0.5144
   37MOL   C80534717   5.730   7.761   3.280  0.1415  0.3857 -0.5393
   37MOL   C80634718   5.643   7.633   3.278 -0.3811 -0.0525  0.3000
   37MOL   C80734719   5.523   7.641   3.381 -0.4984 -0.1127  0.3934
   37MOL   C80834720   5.410   7.531   3.355 -0.9148 -0.6442 -0.0959
   37MOL   C80934721   5.318   7.507   3.475  0.4894 -0.4616  0.0492
   37MOL   C81034722   5.229   7.383   3.447  0.2978  0.4926  0.0081
   37MOL   C81134723   5.091   7.416   3.383 -0.4033  0.1824 -0.0656
   37MOL   O81234724   4.995   7.317   3.400 -0.1149 -0.0032  0.3023
   37MOL   C81334725   4.919   7.333   3.517 -0.3595  0.4626  0.4357
   37MOL   O81434726   4.950   7.409   3.611 -0.1783  0.6127  0.1655
   37MOL   C81534727   4.797   7.244   3.523  0.0199  0.1413  0.3686
   37MOL   C81634728   4.772   7.142   3.432  0.3610  0.0280  0.5486
   37MOL   C81734729   4.660   7.054   3.448  0.2861  0.6371  0.3329
   37MOL   C81834730   4.569   7.068   3.556 -0.8049 -0.9011 -0.4167
   37MOL   C81934731   4.440   6.989   3.563 -0.4294  0.7744  0.7229
   37MOL   O82034732   4.414   6.895   3.489  0.5596 -0.3974 -0.1453
   37MOL   O82134733   4.355   7.030   3.653  0.3523  0.4899  0.2994
   37MOL   C82234734   4.594   7.172   3.647 -0.1432  0.8143  0.0280
   37MOL   C82334735   4.698   7.257   3.629 -0.6430 -0.7490 -0.3169
   37MOL   H82434736   5.972   7.925   2.980  2.0768  4.0846  0.2518
   37MOL   H82534737   6.070   7.816   3.078 -0.6061 -0.4859 -0.3503
   37MOL   H82634738   5.820   7.967   3.139  0.8626  0.8261 -0.7681
   37MOL   H82734739   5.947   7.928   3.265  2.3108  0.6521 -0.7594
   37MOL   H82834740   5.808   7.737   3.078 -1.2617 -1.4148  1.4172
   37MOL   H82934741   5.920   7.687   3.207 -0.5391  0.3372  1.1801
   37MOL   H83034742   5.666   7.846   3.258 -0.3012  0.1648 -0.1147
   37MOL   H83134743   5.759   7.783   3.383 -0.5504 -1.3314  0.0394
   37MOL   H83234744   5.604   7.630   3.177  0.3821 -0.5572  0.0237
   37MOL   H83334745   5.702   7.544   3.298 -0.4553  0.6699  4.3661
   37MOL   H83434746   5.571   7.637   3.478 -1.9447 -1.3904  1.0747
   37MOL   H83534747   5.482   7.741   3.366  0.0841  0.4694  2.5843
   37MOL   H83634748   5.357   7.545   3.261 -1.0774 -3.1077 -0.3826
   37MOL   H83734749   5.465   7.438   3.351 -1.2922 -1.0189  2.2704
   37MOL   H83834750   5.378   7.481   3.562  1.4669  1.6175  0.0139
   37MOL   H83934751   5.256   7.595   3.491  0.6233 -0.1006 -1.4128
   37MOL   H84034752   5.215   7.333   3.543 -1.0641 -0.6440 -0.7583
   37MOL   H84134753   5.275   7.306   3.384  0.2941  0.1103  0.4693
   37MOL   H84234754   5.101   7.455   3.282  1.5978  0.4720  0.2169
   37MOL   H84334755   5.060   7.503   3.440 -0.8753 -0.8106  1.2337
   37MOL   H84434756   4.837   7.119   3.348  1.1266 -2.2297  1.7104
   37MOL   H84534757   4.646   6.975   3.376 -0.6549  1.0604  0.0429
   37MOL   H84634758   4.526   7.186   3.730 -0.8097  0.1742 -0.4090
   37MOL   H84734759   4.713   7.330   3.707 -2.3941 -0.6741 -0.0274
   37MOL   O84834760   4.227   6.946   3.661  0.1288 -0.0604 -0.1466
   37MOL   C84934761   4.248   6.836   3.750 -0.0527  0.6834 -0.3261
   37MOL   C85034762   4.122   6.759   3.754 -0.3623  0.5506 -0.4238
   37MOL   C85134763   4.099   6.683   3.627  0.2024 -0.4319  0.0997
   37MOL   C85234764   4.049   6.545   3.653  0.6775  0.3119  0.4440
   37MOL   C85334765   3.989   6.482   3.521  0.9206 -0.8428  0.0079
   37MOL   C85434766   3.931   6.334   3.535  0.7108  0.3108 -0.1309
   37MOL   C85534767   4.037   6.239   3.554  0.0932  0.0057 -0.1429
   37MOL   C85634768   3.999   6.094   3.538  0.1629  0.6282 -0.8366
   37MOL   C85734769   4.121   5.998   3.549  0.6355  0.7473 -0.4168
   37MOL   C85834770   4.077   5.852   3.551  0.1506 -0.4608 -0.4724
   37MOL   O85934771   4.186   5.776   3.605 -0.1502 -0.1729 -0.2704
   37MOL   C86034772   4.293   5.754   3.523 -0.5189 -0.0453 -0.2188
   37MOL   O86134773   4.301   5.798   3.403 -0.2011  0.9379 -0.0670
   37MOL   C86234774   4.402   5.692   3.596  0.0934  0.1057 -0.3225
   37MOL   C86334775   4.383   5.652   3.734 -0.7899  0.6208  0.2877
   37MOL   C86434776   4.484   5.589   3.810  0.3134 -0.5730  0.0891
   37MOL   C86534777   4.612   5.568   3.749 -0.1007 -0.3748  0.1163
   37MOL   C86634778   4.722   5.496   3.822  0.7364 -0.6052 -0.1801
   37MOL   O86734779   4.834   5.486   3.781 -0.2722  0.0713 -0.5948
   37MOL   O86834780   4.668   5.427   3.938 -0.0134 -0.0889  0.2460
   37MOL   C86934781   4.636   5.614   3.617 -0.4693  0.7781  0.3213
   37MOL   C87034782   4.532   5.670   3.539 -0.3339 -0.1544 -0.6933
   37MOL   H87134783   4.335   6.772   3.737 -0.4380 -0.2182  1.3972
   37MOL   H87234784   4.273   6.881   3.846 -1.2872  2.1235 -0.6550
   37MOL   H87334785   4.038   6.826   3.771  0.5327  1.7423 -0.6973
   37MOL   H87434786   4.129   6.697   3.843  1.2906  0.7470 -0.3924
   37MOL   H87534787   4.028   6.744   3.571  0.3927 -0.7271 -0.4708
   37MOL   H87634788   4.191   6.678   3.568 -1.3445  0.1906 -2.4558
   37MOL   H87734789   3.977   6.545   3.734  0.8769 -0.8053  0.6307
   37MOL   H87834790   4.125   6.473   3.685  0.1384 -0.2277  0.5119
   37MOL   H87934791   3.911   6.547   3.481  2.0299  1.2573  1.1703
   37MOL   H88034792   4.058   6.475   3.437 -0.1486  0.3099 -0.9928
   37MOL   H88134793   3.860   6.334   3.618  1.7625  2.5672  0.8013
   37MOL   H88234794   3.876   6.312   3.443  3.1795  0.7477 -1.7515
   37MOL   H88334795   4.105   6.258   3.471 -0.2538  0.2205 -0.3818
   37MOL   H88434796   4.089   6.268   3.646  0.8334  2.7093 -1.3594
   37MOL   H88534797   3.925   6.066   3.613  0.6023  1.2806 -0.1617
   37MOL   H88634798   3.935   6.078   3.451  1.6523  1.2252 -2.0600
   37MOL   H88734799   4.157   6.027   3.648  0.1962  3.4513 -1.0197
   37MOL   H88834800   4.201   6.030   3.482  0.2725  2.5079 -0.0348
   37MOL   H88934801   4.056   5.806   3.454  1.6133 -0.4901 -0.7874
   37MOL   H89034802   3.993   5.845   3.620  0.3817  0.9967 -0.0374
   37MOL   H89134803   4.294   5.683   3.787 -0.0922  0.6981  1.4396
   37MOL   H89234804   4.464   5.572   3.915  3.5327  0.7509  0.9929
   37MOL   H89334805   4.738   5.608   3.584 -0.3736 -1.5834  0.9493
   37MOL   H89434806   4.540   5.702   3.436 -1.7657 -1.2230 -1.1635
   37MOL   O89534807   4.756   5.321   3.984 -0.7157  0.5441  0.5574
   37MOL   C89634808   4.764   5.326   4.121  0.2021 -0.0791  0.7243
   37MOL   C89734809   4.884   5.247   4.169 -0.2404  0.2610 -0.2163
   37MOL   C89834810   5.016   5.322   4.175 -0.2003  0.0467 -0.0155
   37MOL   C89934811   5.080   5.360   4.038  0.6108  0.3707  0.9249
   37MOL   C90034812   5.222   5.421   4.051 -0.3190  0.1100  0.3335
   37MOL   C90134813   5.281   5.460   3.917  0.3538 -0.7722  0.1781
   37MOL   C90234814   5.418   5.510   3.941 -0.2783 -0.6737 -0.5374
   37MOL   C90334815   5.485   5.613   3.847 -0.1396  0.9892  0.0524
   37MOL   C90434816   5.595   5.693   3.912 -0.1170 -0.0281 -0.0815
   37MOL   C90534817   5.726   5.615   3.906 -0.8990 -0.2774  0.3061
   37MOL   O90634818   5.825   5.686   3.979 -0.2134 -0.3452  0.1588
   37MOL   C90734819   5.920   5.635   4.045  0.3112  0.1731  0.4000
   37MOL   O90834820   5.942   5.516   4.040 -0.6733 -0.3824 -0.4514
   37MOL   C90934821   5.999   5.735   4.121 -0.4819  0.2265  0.1074
   37MOL   C91034822   5.961   5.869   4.128 -0.2919 -0.3793  0.2614
   37MOL   C91134823   6.044   5.961   4.197 -0.6883  0.0646 -0.3975
   37MOL   C91234824   6.167   5.922   4.251  0.1813  0.1866 -0.6094
   37MOL   C91334825   6.264   6.022   4.307  0.6067 -0.0782 -0.5269
   37MOL   O91434826   6.364   5.982   4.370  0.2181 -0.1375  0.3283
   37MOL   O91534827   6.240   6.154   4.278 -0.2789  0.2424  0.0080
   37MOL   C91634828   6.198   5.783   4.261 -0.3893  0.2536  0.3775
   37MOL   C91734829   6.114   5.692   4.194 -0.2066  0.0114 -0.4191
   37MOL   H91834830   4.762   5.429   4.155 -1.2448 -0.0483  0.5603
   37MOL   H91934831   4.672   5.278   4.154 -0.2070 -1.6438 -2.4124
   37MOL   H92034832   4.893   5.156   4.110  0.6086  0.0605  0.2174
   37MOL   H92134833   4.851   5.204   4.264  0.4441 -0.9399 -0.4986
   37MOL   H92234834   4.998   5.420   4.220 -2.3992  0.1852 -1.1243
   37MOL   H92334835   5.079   5.256   4.234  0.0268 -1.0604 -1.4667
   37MOL   H92434836   5.009   5.415   3.978  0.5438  2.4596  2.8195
   37MOL   H92534837   5.092   5.267   3.983 -1.5921  0.8876 -0.4986
   37MOL   H92634838   5.228   5.513   4.108 -3.1189  0.1527  0.6284
   37MOL   H92734839   5.280   5.349   4.109 -0.2155  1.1109  1.4936
   37MOL   H92834840   5.282   5.374   3.851 -2.5972  0.8919 -2.1895
   37MOL   H92934841   5.221   5.536   3.866  0.1953 -0.9138  0.1554
   37MOL   H93034842   5.416   5.568   4.033 -1.3369 -1.6106  0.0512
   37MOL   H93134843   5.478   5.420   3.955 -2.6627 -2.2726 -0.3379
   37MOL   H93234844   5.520   5.556   3.760  2.3584  1.6431  0.5796
   37MOL   H93334845   5.420   5.693   3.813 -1.3514 -0.0738 -0.1538
   37MOL   H93434846   5.578   5.727   4.014  0.4511  1.3195 -0.4314
   37MOL   H93534847   5.624   5.785   3.861  2.1482 -0.5857  0.1334
   37MOL   H93634848   5.765   5.597   3.806 -1.6179 -0.0762 -0.0113
   37MOL   H93734849   5.704   5.518   3.950  0.9617 -1.0135 -0.3258
   37MOL   H93834850   5.869   5.901   4.080 -0.4084  0.7252  1.2044
   37MOL   H93934851   6.009   6.063   4.204  0.9688  0.7485 -1.8195
   37MOL   H94034852   6.286   5.752   4.315 -1.7980 -0.2236  2.4766
   37MOL   H94134853   6.145   5.589   4.203 -0.3507  0.0100  0.0872
   37MOL   H94234854   6.309   6.211   4.307  1.3497 -1.6060 -0.1395
   38MOL     O134855   6.516   2.274   1.137  0.6176  0.8324  0.1238
   38MOL     C234856   6.573   2.148   1.150  0.2156  0.0059  0.1597
   38MOL     C334857   6.727   2.157   1.168 -0.3363  0.9236 -0.0559
   38MOL     C434858   6.772   2.194   1.312 -0.0958  0.1902  0.3012
   38MOL     C534859   6.922   2.174   1.332  0.8538 -0.2815 -0.1000
   38MOL     C634860   6.987   2.264   1.443 -0.7174  0.9316  0.2400
   38MOL     C734861   7.138   2.261   1.438  0.5577 -0.0122 -0.1277
   38MOL     C834862   7.208   2.354   1.525  0.4597 -0.3104 -0.8925
   38MOL     C934863   7.360   2.344   1.511 -0.2206 -0.3549 -0.0659
   38MOL    C1034864   7.438   2.438   1.609 -0.7353 -0.6009  0.0391
   38MOL    C1134865   7.586   2.446   1.567  0.3103  0.2395  0.6012
   38MOL    O1234866   7.662   2.526   1.652 -0.1297  0.9536 -0.1918
   38MOL    C1334867   7.802   2.502   1.656 -0.2701  0.7413 -0.2538
   38MOL    O1434868   7.861   2.425   1.575 -0.4051 -0.0863 -0.5107
   38MOL    C1534869   7.872   2.591   1.748 -0.1554  0.6285 -0.7109
   38MOL    C1634870   7.808   2.692   1.827 -0.2809  0.2553 -0.6422
   38MOL    C1734871   7.880   2.790   1.898 -0.4057  0.4906 -0.4557
   38MOL    C1834872   0.048   2.779   1.901 -0.3292 -0.6769  0.1286
   38MOL    C1934873   0.138   2.867   1.985  0.1221 -0.1968  0.5536
   38MOL    O2034874   0.256   2.863   1.982  0.1619  0.6369 -0.0113
   38MOL    O2134875   0.066   2.965   2.050 -0.1978  0.2588 -0.5426
   38MOL    C2234876   0.111   2.676   1.822  0.0004  0.2094  0.3750
   38MOL    C2334877   0.041   2.587   1.738 -0.1294  0.2406 -0.0764
   38MOL    H2434878   6.520   2.087   1.223  1.8437  1.1571  2.4111
   38MOL    H2534879   6.557   2.103   1.053 -0.2335 -1.0491  0.7150
   38MOL    H2634880   6.773   2.225   1.096  0.5288  0.6506  0.2361
   38MOL    H2734881   6.767   2.059   1.145 -1.0028  0.3482  1.2047
   38MOL    H2834882   6.746   2.298   1.330 -2.0962 -0.2792  0.2128
   38MOL    H2934883   6.720   2.141   1.392  1.4986 -0.5802  0.8553
   38MOL    H3034884   6.974   2.162   1.237  1.5348 -2.2461  0.4859
   38MOL    H3134885   6.928   2.075   1.378  1.8580  0.3447  1.1298
   38MOL    H3234886   6.957   2.367   1.424 -0.8871  0.3093 -3.1876
   38MOL    H3334887   6.940   2.242   1.539  1.2159 -0.3796  0.9285
   38MOL    H3434888   7.170   2.157   1.447  1.1455  0.3442  2.0142
   38MOL    H3534889   7.160   2.281   1.333  0.2745 -2.3741 -0.6840
   38MOL    H3634890   7.183   2.457   1.503 -1.0243 -0.0558  1.8298
   38MOL    H3734891   7.173   2.353   1.628 -0.1823 -0.8359 -1.1124
   38MOL    H3834892   7.384   2.238   1.517  1.4480  0.0473  0.5194
   38MOL    H3934893   7.387   2.377   1.411  0.9839  0.5898  0.5633
   38MOL    H4034894   7.439   2.408   1.714  2.3266  2.3083  0.9495
   38MOL    H4134895   7.396   2.538   1.615  0.2835 -0.0911 -1.0637
   38MOL    H4234896   7.590   2.490   1.467  2.2734  2.1328  1.4667
   38MOL    H4334897   7.618   2.341   1.568 -0.2915  0.0502  2.7910
   38MOL    H4434898   7.702   2.715   1.825 -0.4347 -0.4885 -1.5840
   38MOL    H4534899   7.829   2.854   1.968  0.6883  1.5528 -0.6078
   38MOL    H4634900   0.219   2.667   1.821  0.0927  0.9285  1.8758
   38MOL    H4734901   0.088   2.511   1.677 -1.1160 -0.8676  0.5134
   38MOL    H4834902   6.502   2.317   1.219  1.5536  0.9843  0.2121
   38MOL    O4934903   0.154   3.059   2.127 -0.0361 -0.8160 -0.0636
   38MOL    C5034904   0.142   3.038   2.269  0.2647 -0.1795 -0.3262
   38MOL    C5134905   0.277   2.996   2.330  0.4987 -0.0375 -0.1113
   38MOL    C5234906   0.275   2.986   2.484  0.4852  0.1351  0.0202
   38MOL    C5334907   0.420   2.966   2.541 -0.2967 -0.0392  0.4340
   38MOL    C5434908   0.431   2.981   2.691  0.1893 -0.3948 -0.0841
   38MOL    C5534909   0.577   2.987   2.736 -0.6841  0.1226 -1.2865
   38MOL    C5634910   0.599   3.047   2.878  0.2198  0.1186  0.6309
   38MOL    C5734911   0.744   3.076   2.903  0.0432 -0.8960 -0.0223
   38MOL    C5834912   0.765   3.140   3.039 -0.1363  0.4603 -0.1875
   38MOL    C5934913   0.894   3.224   3.043  0.4483 -0.3879  0.1272
   38MOL    O6034914   1.013   3.154   3.047 -0.2903  0.1219  0.4702
   38MOL    C6134915   1.083   3.169   3.161  0.2997  0.1124  0.1475
   38MOL    O6234916   1.051   3.236   3.254  0.1153 -0.2257 -0.7366
   38MOL    C6334917   1.216   3.097   3.161  0.2659  0.7298 -0.7779
   38MOL    C6434918   1.237   2.993   3.066 -0.4051 -0.1226 -0.1830
   38MOL    C6534919   1.343   2.897   3.076 -0.2199  0.3372  0.8497
   38MOL    C6634920   1.441   2.920   3.173 -0.2728  0.4170  0.4873
   38MOL    C6734921   1.559   2.829   3.188 -0.0413 -0.8434 -0.6450
   38MOL    O6834922   1.662   2.866   3.246 -0.2977  0.2892 -0.4195
   38MOL    O6934923   1.537   2.713   3.133 -0.1404 -0.3992  0.3086
   38MOL    C7034924   1.433   3.027   3.264  0.2688 -0.1461  0.6857
   38MOL    C7134925   1.320   3.114   3.256  0.2912 -0.0444  0.1206
   38MOL    H7234926   0.116   3.132   2.317  0.1647  0.5680 -1.8101
   38MOL    H7334927   0.064   2.964   2.289 -0.6034  0.8488  0.1174
   38MOL    H7434928   0.349   3.073   2.302  0.6623 -0.4515 -0.8633
   38MOL    H7534929   0.309   2.900   2.289 -0.9534  0.1064 -1.6798
   38MOL    H7634930   0.243   3.081   2.526 -1.0802  0.4985 -1.9035
   38MOL    H7734931   0.196   2.921   2.520  2.6231 -1.2295  2.5066
   38MOL    H7834932   0.490   3.034   2.493 -0.9281  0.2346 -0.1001
   38MOL    H7934933   0.453   2.865   2.516  1.4460  0.5749  0.1141
   38MOL    H8034934   0.388   3.081   2.702 -1.7294 -0.7673 -3.4610
   38MOL    H8134935   0.369   2.913   2.749  0.3565 -1.3675 -1.0388
   38MOL    H8234936   0.607   2.883   2.745 -3.3025 -0.8945 -3.4426
   38MOL    H8334937   0.638   3.043   2.665  0.6113 -1.3364 -1.3576
   38MOL    H8434938   0.541   3.138   2.891 -1.7035 -0.8036 -1.1852
   38MOL    H8534939   0.556   2.984   2.956  0.1264  1.2494  1.5082
   38MOL    H8634940   0.809   2.989   2.915 -0.1471 -1.0029  0.2615
   38MOL    H8734941   0.783   3.137   2.822  0.3669 -1.1945 -0.0944
   38MOL    H8834942   0.763   3.059   3.112  1.3166 -0.0926 -0.7371
   38MOL    H8934943   0.683   3.210   3.054  0.4179  1.2450 -0.7075
   38MOL    H9034944   0.883   3.307   3.114  0.2203 -0.4825  0.2003
   38MOL    H9134945   0.899   3.284   2.952  2.3715 -1.7640 -0.6952
   38MOL    H9234946   1.160   2.995   2.991 -2.9014 -0.4143  2.3040
   38MOL    H9334947   1.355   2.820   3.000  0.1129  1.0909  0.1380
   38MOL    H9434948   1.511   3.040   3.338  1.3032 -0.4305 -0.3472
   38MOL    H9534949   1.312   3.189   3.333 -2.4283  0.0748 -0.2202
   38MOL    O9634950   1.643   2.605   3.157  0.3440  0.4623 -0.3773
   38MOL    C9734951   1.721   2.588   3.039 -0.2993  0.0598  0.7772
   38MOL    C9834952   1.836   2.503   3.069 -0.2473 -0.0978  0.0326
   38MOL    C9934953   1.921   2.554   3.184 -0.0770  0.0645  0.6241
   38MOL   C10034954   2.053   2.479   3.197  0.4097 -0.0039 -0.6159
   38MOL   C10134955   2.120   2.508   3.336  0.3985  0.5216 -0.5235
   38MOL   C10234956   2.226   2.407   3.360  0.1138  0.7137  0.2314
   38MOL   C10334957   2.273   2.415   3.502 -0.2419  0.6303 -0.2676
   38MOL   C10434958   2.405   2.337   3.526  0.5136  0.0453 -0.0560
   38MOL   C10534959   2.373   2.186   3.533  0.5863  0.5774  0.0437
   38MOL   C10634960   2.506   2.112   3.563  0.2204 -0.0309 -0.3147
   38MOL   O10734961   2.554   2.158   3.686 -0.1988 -0.0595  0.0730
   38MOL   C10834962   2.649   2.080   3.743 -0.0233  0.4208 -0.3212
   38MOL   O10934963   2.689   1.966   3.706 -0.4051 -0.0226  0.0858
   38MOL   C11034964   2.694   2.145   3.872 -0.3344  0.2812  0.2693
   38MOL   C11134965   2.599   2.225   3.945  0.3543  0.8162  0.8983
   38MOL   C11234966   2.640   2.271   4.072 -0.7993 -0.3934 -0.3213
   38MOL   C11334967   2.764   2.245   4.131  0.3735  0.4583  0.2184
   38MOL   C11434968   2.813   2.307   4.260  0.1951  0.5294  0.0427
   38MOL   O11534969   2.923   2.292   4.299  0.1732  0.0261  0.9373
   38MOL   O11634970   2.719   2.367   4.335  0.4640  0.2161  0.6881
   38MOL   C11734971   2.857   2.170   4.049  0.1726 -0.0357  0.3939
   38MOL   C11834972   2.822   2.120   3.928  0.4269 -0.4616  0.0554
   38MOL   H11934973   1.658   2.534   2.970  1.3242  0.2756 -0.9090
   38MOL   H12034974   1.756   2.686   3.005 -0.6209  0.2343  0.9353
   38MOL   H12134975   1.897   2.486   2.980 -0.8996 -0.8487 -0.2749
   38MOL   H12234976   1.795   2.405   3.092  1.9244 -0.8090  0.9777
   38MOL   H12334977   1.935   2.662   3.178 -0.1053 -0.0814 -3.3958
   38MOL   H12434978   1.866   2.564   3.277  0.1789  1.7480  0.6042
   38MOL   H12534979   2.117   2.511   3.115  1.2561 -0.7439 -0.2575
   38MOL   H12634980   2.027   2.374   3.181  1.1856 -0.2891 -0.0308
   38MOL   H12734981   2.157   2.610   3.328 -0.3823  0.9941  1.6205
   38MOL   H12834982   2.050   2.501   3.420  0.8524  0.0278 -0.1795
   38MOL   H12934983   2.189   2.306   3.343  0.3380  0.3365  1.9029
   38MOL   H13034984   2.315   2.426   3.300  0.0159  2.4125  0.6023
   38MOL   H13134985   2.299   2.519   3.521  0.5493  0.2932  0.5216
   38MOL   H13234986   2.198   2.398   3.579  0.0904  0.5844  0.0452
   38MOL   H13334987   2.478   2.349   3.446  0.2975  4.1420  0.2864
   38MOL   H13434988   2.452   2.374   3.618  0.3239 -1.8392  0.8410
   38MOL   H13534989   2.341   2.154   3.434  3.8523 -0.3714 -0.7943
   38MOL   H13634990   2.297   2.156   3.605  0.5012  1.0690  0.1562
   38MOL   H13734991   2.570   2.151   3.484  1.2655 -2.3479 -0.6641
   38MOL   H13834992   2.499   2.004   3.546 -0.0404  0.3549 -2.7180
   38MOL   H13934993   2.502   2.248   3.904 -0.2118  1.1894  2.4431
   38MOL   H14034994   2.580   2.343   4.125 -0.2311  0.6955 -1.1311
   38MOL   H14134995   2.950   2.139   4.093 -0.3810 -1.8130  0.3394
   38MOL   H14234996   2.893   2.054   3.878 -1.1784 -1.8703 -0.4163
   38MOL   O14334997   2.775   2.428   4.474 -0.0638  0.5069 -0.8540
   38MOL   C14434998   2.769   2.569   4.460 -0.2843 -0.2836 -0.1352
   38MOL   C14534999   2.622   2.618   4.441 -0.3561 -0.1002 -0.2500
   38MOL   C14635000   2.597   2.765   4.449 -0.3671  0.8285  0.2483
   38MOL   C14735001   2.447   2.798   4.413  0.3381  1.0254  0.5345
   38MOL   C14835002   2.423   2.937   4.358 -0.5810 -1.1690 -0.3676
   38MOL   C14935003   2.278   2.975   4.329 -0.5586 -0.0178 -0.4106
   38MOL   C15035004   2.266   3.114   4.268 -0.3716  0.3892 -0.2866
   38MOL   C15135005   2.128   3.153   4.198  0.0860 -0.0077  0.0642
   38MOL   C15235006   2.100   3.106   4.054  0.1064  0.3960  0.1075
   38MOL   C15335007   1.963   3.040   4.037  0.5629  0.0491 -0.1850
   38MOL   O15435008   1.955   2.927   4.123  0.0648 -0.5101  0.5934
   38MOL   C15535009   1.840   2.857   4.116  0.1651  0.7221 -0.2522
   38MOL   O15635010   1.748   2.888   4.038 -0.1142 -0.1472  0.1339
   38MOL   C15735011   1.853   2.735   4.203  0.0882 -0.2647 -0.4342
   38MOL   C15835012   1.750   2.642   4.211 -0.5188  0.4166  0.6257
   38MOL   C15935013   1.750   2.538   4.305 -0.1855  0.4887 -0.3368
   38MOL   C16035014   1.871   2.507   4.380  0.3499  0.2014  0.1742
   38MOL   C16135015   1.887   2.387   4.472 -0.0395 -0.0469  0.1031
   38MOL   O16235016   1.790   2.328   4.524 -0.4694  0.5833 -0.1762
   38MOL   O16335017   2.022   2.344   4.477 -0.1530  0.6460 -0.0852
   38MOL   C16435018   1.970   2.606   4.375 -0.4206  0.2304 -1.1453
   38MOL   C16535019   1.967   2.714   4.284  0.8101  0.2023 -0.0981
   38MOL   H16635020   2.796   2.613   4.556 -0.9414  1.8674 -0.9206
   38MOL   H16735021   2.840   2.616   4.392  0.6469  0.6221  1.4528
   38MOL   H16835022   2.568   2.561   4.517  1.5217  0.1314  1.2922
   38MOL   H16935023   2.584   2.597   4.341 -0.6777 -0.1926 -0.1098
   38MOL   H17035024   2.634   2.820   4.536  0.4223 -0.2218  0.5802
   38MOL   H17135025   2.656   2.819   4.375 -1.1768 -1.2994 -1.9815
   38MOL   H17235026   2.389   2.773   4.502  1.0300 -1.6452  0.3041
   38MOL   H17335027   2.404   2.724   4.345  3.0153 -0.1500  0.0333
   38MOL   H17435028   2.476   3.009   4.420 -0.7624 -1.1999 -0.1728
   38MOL   H17535029   2.471   2.950   4.261 -1.3713  1.7038 -0.4319
   38MOL   H17635030   2.244   2.905   4.253 -1.1226 -0.2548  0.0583
   38MOL   H17735031   2.210   2.969   4.414  0.0400  1.4842  0.2100
   38MOL   H17835032   2.285   3.191   4.343  0.1248 -0.6482  0.6671
   38MOL   H17935033   2.346   3.128   4.196 -0.0160 -1.0587 -0.1808
   38MOL   H18035034   2.061   3.113   4.274 -1.1812  2.7340  0.4666
   38MOL   H18135035   2.114   3.260   4.215 -0.5150 -0.5434  3.2304
   38MOL   H18235036   2.179   3.031   4.044  1.3089  1.3983  1.7408
   38MOL   H18335037   2.105   3.192   3.988 -0.9374  1.0250  0.8504
   38MOL   H18435038   1.941   3.029   3.931 -0.5918  1.4639 -0.1117
   38MOL   H18535039   1.897   3.117   4.079  0.7041  1.2789 -2.1219
   38MOL   H18635040   1.655   2.645   4.159 -0.3230 -0.2998  0.2294
   38MOL   H18735041   1.665   2.471   4.312  1.0245 -0.9638  0.8615
   38MOL   H18835042   2.057   2.599   4.439 -1.7623 -1.7059  0.5294
   38MOL   H18935043   2.056   2.773   4.269  0.2482  1.0181 -0.2152
   38MOL   O19035044   2.042   2.226   4.566 -0.2440  0.6036 -0.0348
   38MOL   C19135045   2.099   2.273   4.688  0.0707 -0.5169 -0.4574
   38MOL   C19235046   2.131   2.172   4.797 -0.2115  0.4205 -0.6411
   38MOL   C19335047   2.195   2.240   4.922 -0.1884  0.0362  0.0146
   38MOL   C19435048   2.228   2.144   5.032 -0.8540  0.0647  0.3516
   38MOL   C19535049   2.298   2.215   5.144 -0.1660 -0.4338  0.0884
   38MOL   C19635050   2.308   2.132   5.275  0.6762 -0.4445 -0.1999
   38MOL   C19735051   2.392   2.195   5.387  0.2373 -0.6751  0.2681
   38MOL   C19835052   2.379   2.128   5.524  0.4967 -0.5218 -0.4126
   38MOL   C19935053   2.422   2.203   5.651  0.3487 -0.5262  0.3792
   38MOL   C20035054   2.400   2.120   5.780 -0.2609  0.0574 -0.6466
   38MOL   O20135055   2.501   2.019   5.782  0.0541  0.2176 -0.3175
   38MOL   C20235056   2.503   1.916   5.871 -0.5299 -0.0356  0.9243
   38MOL   O20335057   2.400   1.863   5.914  0.1101 -0.5047 -0.0837
   38MOL   C20435058   2.640   1.868   5.912 -1.1563 -0.0396 -0.3961
   38MOL   C20535059   2.756   1.942   5.867  0.4226  0.6728 -0.0667
   38MOL   C20635060   2.884   1.900   5.909  0.8494 -0.0293  0.0443
   38MOL   C20735061   2.899   1.787   5.993 -0.5002  0.7234  1.0745
   38MOL   C20835062   3.040   1.753   6.037  0.4068 -0.0680 -0.1287
   38MOL   O20935063   3.072   1.692   6.141 -0.3183 -0.1981 -0.0684
   38MOL   O21035064   3.130   1.815   5.962 -0.7296 -0.2647 -0.1384
   38MOL   C21135065   2.784   1.723   6.044 -1.1496  0.2065  0.2826
   38MOL   C21235066   2.656   1.763   6.001  0.5707  0.3882  0.5535
   38MOL   H21335067   2.191   2.326   4.663 -0.6404 -0.0903 -2.2414
   38MOL   H21435068   2.028   2.350   4.719  0.1354  0.0016 -1.5625
   38MOL   H21535069   2.204   2.103   4.755 -0.1358 -2.2449  3.6063
   38MOL   H21635070   2.048   2.102   4.807 -0.7684  1.1982  0.2458
   38MOL   H21735071   2.276   2.309   4.897 -0.9427  0.5328 -1.0492
   38MOL   H21835072   2.119   2.309   4.959 -0.3228 -0.1061  0.0026
   38MOL   H21935073   2.291   2.066   4.990 -1.3302 -0.5951  0.8549
   38MOL   H22035074   2.132   2.109   5.069 -0.1039  0.2422  2.5579
   38MOL   H22135075   2.390   2.267   5.114 -0.5576  2.0813  2.9232
   38MOL   H22235076   2.236   2.301   5.171  0.8327  1.4243 -3.1569
   38MOL   H22335077   2.203   2.119   5.302  0.6244  0.9697  0.2953
   38MOL   H22435078   2.346   2.036   5.240 -1.1558 -1.0206 -0.6417
   38MOL   H22535079   2.493   2.213   5.348  0.5047 -3.0739 -0.2024
   38MOL   H22635080   2.346   2.294   5.390  0.5758 -0.5308  0.8943
   38MOL   H22735081   2.286   2.072   5.535  0.0858 -0.2931 -2.4886
   38MOL   H22835082   2.443   2.043   5.502  0.1632 -0.0214 -3.5611
   38MOL   H22935083   2.357   2.290   5.658 -0.2190 -0.9066 -0.1309
   38MOL   H23035084   2.522   2.247   5.654  0.4303 -0.7083  0.3031
   38MOL   H23135085   2.300   2.076   5.788  0.5186 -1.6956 -0.2012
   38MOL   H23235086   2.415   2.184   5.867  0.3184 -0.6095 -0.2477
   38MOL   H23335087   2.759   2.028   5.801  0.8154  0.0702 -0.8494
   38MOL   H23435088   2.961   1.969   5.879  0.9365  0.1380  0.6415
   38MOL   H23535089   2.803   1.638   6.108 -1.1181  0.9442  1.2588
   38MOL   H23635090   2.569   1.706   6.030  1.5562 -1.5392 -0.1606
   38MOL   O23735091   3.268   1.816   6.013 -0.4987  0.2594  0.5882
   38MOL   C23835092   3.281   1.941   6.084 -0.9125  0.0936 -0.5199
   38MOL   C23935093   3.244   2.070   6.000 -0.2352  0.1668 -0.4270
   38MOL   C24035094   3.245   2.197   6.089 -0.0894  0.9725  0.4041
   38MOL   C24135095   3.195   2.316   6.011  0.0993  0.2771 -0.1715
   38MOL   C24235096   3.227   2.451   6.077  0.1464 -0.0169  0.0382
   38MOL   C24335097   3.158   2.572   6.013 -0.2773 -0.3730 -0.6028
   38MOL   C24435098   3.207   2.703   6.068 -0.1335 -0.5643 -0.4685
   38MOL   C24535099   3.159   2.825   5.992  0.5263  0.4231 -0.3067
   38MOL   C24635100   3.209   2.965   6.029  0.3274  0.2005 -0.2985
   38MOL   C24735101   3.156   3.024   6.161  0.3831 -0.1223  0.3899
   38MOL   O24835102   3.023   3.072   6.142 -0.0288  0.3039  0.0487
   38MOL   C24935103   2.913   2.999   6.171 -0.5615  0.2643  0.1485
   38MOL   O25035104   2.921   2.890   6.221  0.1895 -0.0657 -0.2034
   38MOL   C25135105   2.778   3.045   6.129 -0.5319 -0.3655  0.7769
   38MOL   C25235106   2.659   2.988   6.179 -0.7689 -0.5451 -0.3035
   38MOL   C25335107   2.535   3.041   6.149 -0.3748 -1.1253  0.6221
   38MOL   C25435108   2.531   3.156   6.070 -0.2342 -0.2162 -0.3042
   38MOL   C25535109   2.401   3.229   6.044  0.5181 -0.1457 -0.3313
   38MOL   O25635110   2.390   3.325   5.972 -0.2812 -0.3420 -0.4554
   38MOL   O25735111   2.297   3.184   6.114  0.7348 -0.0111  0.0845
   38MOL   C25835112   2.650   3.196   6.002  0.0438  0.0232 -0.4168
   38MOL   C25935113   2.779   3.149   6.038  0.4949  0.2206 -0.4380
   38MOL   H26035114   3.230   1.937   6.180 -2.5659  1.0908 -1.3258
   38MOL   H26135115   3.383   1.946   6.121 -0.8617 -0.1159 -0.6333
   38MOL   H26235116   3.143   2.058   5.962 -0.0052  2.6861 -1.9759
   38MOL   H26335117   3.325   2.065   5.927 -0.6303  1.7712 -0.9977
   38MOL   H26435118   3.182   2.173   6.174 -1.0333 -1.8961 -1.0355
   38MOL   H26535119   3.345   2.212   6.131  0.2041 -0.6742  0.3420
   38MOL   H26635120   3.086   2.315   6.005  0.0837  0.1153  0.1077
   38MOL   H26735121   3.223   2.315   5.906  1.1708 -1.7738  0.1042
   38MOL   H26835122   3.197   2.451   6.182  1.7236 -2.1327  0.5209
   38MOL   H26935123   3.335   2.463   6.079  0.1032  0.3738  2.7726
   38MOL   H27035124   3.185   2.567   5.907 -0.7020 -2.2392 -0.6258
   38MOL   H27135125   3.049   2.571   6.019 -0.2878 -1.6518 -0.8598
   38MOL   H27235126   3.174   2.723   6.170  1.3956  0.4605 -0.1536
   38MOL   H27335127   3.316   2.702   6.060 -0.0960 -1.5165  0.2205
   38MOL   H27435128   3.198   2.794   5.895  0.5505  0.2829 -0.2520
   38MOL   H27535129   3.051   2.837   5.990  0.5030  0.3110  0.2749
   38MOL   H27635130   3.165   3.030   5.953 -0.6230 -0.1993 -0.1053
   38MOL   H27735131   3.318   2.967   6.020  0.2025 -2.6848 -3.7687
   38MOL   H27835132   3.201   3.122   6.174 -2.0988  1.1298 -0.1053
   38MOL   H27935133   3.169   2.959   6.247  1.4673 -1.1738 -0.5453
   38MOL   H28035134   2.663   2.911   6.255 -0.4080  1.2870  1.6013
   38MOL   H28135135   2.442   3.013   6.197 -0.5242 -0.7534  0.5481
   38MOL   H28235136   2.651   3.269   5.921  3.3100 -0.3578 -0.8140
   38MOL   H28335137   2.870   3.195   6.001  1.2089 -0.7192  0.1272
   38MOL   O28435138   2.161   3.258   6.098  0.0288  0.7445 -0.1842
   38MOL   C28535139   2.080   3.186   6.011 -0.2035  0.9395  0.3462
   38MOL   C28635140   1.950   3.266   5.992  0.4034  0.7232  0.4895
   38MOL   C28735141   1.851   3.244   6.116  0.0723  0.0514  0.2302
   38MOL   C28835142   1.792   3.377   6.165 -0.6115 -0.3828  0.3209
   38MOL   C28935143   1.644   3.360   6.221 -0.4095 -0.5296 -0.0401
   38MOL   C29035144   1.600   3.477   6.307  0.5118 -0.1245  0.1714
   38MOL   C29135145   1.651   3.492   6.450 -0.8508  0.1031  0.0218
   38MOL   C29235146   1.601   3.621   6.517 -0.3028  0.2878  0.2201
   38MOL   C29335147   1.673   3.641   6.659 -0.5903  0.5967  0.1752
   38MOL   C29435148   1.627   3.770   6.737  0.9446 -0.3176  0.1449
   38MOL   O29535149   1.681   3.776   6.870  0.0302  0.5850 -0.3054
   38MOL   C29635150   1.647   3.866   6.960  0.2402  0.0959 -0.0657
   38MOL   O29735151   1.569   3.956   6.934  0.0691 -0.6355  0.3205
   38MOL   C29835152   1.698   3.840   7.096 -0.1793 -0.3031  0.3824
   38MOL   C29935153   1.626   3.891   7.202 -0.1642 -0.3244  0.5722
   38MOL   C30035154   1.664   3.866   7.335  0.3258 -0.2732 -0.2805
   38MOL   C30135155   1.788   3.799   7.362  0.3899 -1.1582  0.3404
   38MOL   C30235156   1.829   3.767   7.502 -0.1106 -0.2265 -0.0304
   38MOL   O30335157   1.755   3.800   7.592  0.0994  0.2730  0.1810
   38MOL   O30435158   1.946   3.703   7.516  0.4357  0.3300  0.7446
   38MOL   C30535159   1.860   3.752   7.251 -0.0907 -0.2134  0.1493
   38MOL   C30635160   1.821   3.775   7.116 -0.2796  0.6273  0.5541
   38MOL   H30735161   2.129   3.148   5.922  0.5313 -1.7724  1.8439
   38MOL   H30835162   2.057   3.089   6.056 -1.3104  1.6003  1.2333
   38MOL   H30935163   1.907   3.237   5.896  1.3897 -2.8179  1.0139
   38MOL   H31035164   1.986   3.368   5.978  2.1891 -0.1284 -1.3980
   38MOL   H31135165   1.767   3.187   6.078 -0.6234  1.5590 -0.5349
   38MOL   H31235166   1.896   3.185   6.196 -1.5584 -2.9621 -1.0172
   38MOL   H31335167   1.773   3.457   6.093  0.1055 -0.8428 -0.3848
   38MOL   H31435168   1.845   3.412   6.253  0.0044  0.5119 -0.3946
   38MOL   H31535169   1.583   3.356   6.130  1.4919  1.1718 -1.4397
   38MOL   H31635170   1.631   3.267   6.276  0.2984 -1.1975 -0.9945
   38MOL   H31735171   1.629   3.569   6.257 -1.1171 -0.5122 -1.5390
   38MOL   H31835172   1.491   3.484   6.311  0.5955  0.3763  2.7922
   38MOL   H31935173   1.610   3.403   6.497 -3.0942  1.4523  0.6900
   38MOL   H32035174   1.760   3.492   6.457 -0.7462 -1.7293 -1.2264
   38MOL   H32135175   1.634   3.705   6.456 -0.3458 -0.7341 -1.2169
   38MOL   H32235176   1.492   3.622   6.531 -0.2216 -1.1345  1.0528
   38MOL   H32335177   1.781   3.637   6.650 -0.4363  0.2466  1.9575
   38MOL   H32435178   1.644   3.551   6.713 -0.3816  0.9060  0.8027
   38MOL   H32535179   1.519   3.769   6.746  1.0082 -0.4658  0.9327
   38MOL   H32635180   1.661   3.857   6.681 -0.4088 -0.5456 -1.0290
   38MOL   H32735181   1.538   3.952   7.196  1.4996  2.0162 -0.6463
   38MOL   H32835182   1.596   3.898   7.413 -0.1255 -1.5105 -0.1481
   38MOL   H32935183   1.951   3.695   7.261 -0.8834 -1.4683  0.2809
   38MOL   H33035184   1.875   3.730   7.035 -0.2918  0.0842  0.8466
   38MOL   O33135185   1.981   3.665   7.656 -0.3658  0.5416  0.2656
   38MOL   C33235186   2.077   3.765   7.703 -0.7896  0.0947  0.2634
   38MOL   C33335187   2.218   3.724   7.664 -0.0596  0.4992  0.3840
   38MOL   C33435188   2.336   3.794   7.735  0.7132 -0.5512 -0.0283
   38MOL   C33535189   2.471   3.772   7.667 -0.2487  0.7194 -0.4120
   38MOL   C33635190   2.594   3.821   7.739  0.5326  0.1071  0.4101
   38MOL   C33735191   2.636   3.733   7.858  0.5522 -0.0063  0.0165
   38MOL   C33835192   2.763   3.795   7.924 -0.2105 -0.1237 -0.0244
   38MOL   C33935193   2.831   3.760   0.081  0.1769  0.8893 -0.8102
   38MOL   C34035194   2.956   3.851   0.104 -0.2253 -0.3675 -0.4219
   38MOL   C34135195   2.960   3.908   0.247  0.1743  0.6304  0.1763
   38MOL   O34235196   2.942   3.800   0.341 -0.2323 -0.5218  0.0866
   38MOL   C34335197   3.045   3.728   0.394 -0.2637 -0.2434 -0.3629
   38MOL   O34435198   3.165   3.757   0.371  0.0221  0.3122  0.0960
   38MOL   C34535199   2.998   3.623   0.495 -0.0280 -0.0574  0.6915
   38MOL   C34635200   3.088   3.557   0.579  0.3549 -0.2115  0.5471
   38MOL   C34735201   3.046   3.465   0.673  0.6971 -0.1165  0.3032
   38MOL   C34835202   2.914   3.434   0.678 -0.6647 -0.6642  0.0522
   38MOL   C34935203   2.862   3.323   0.762  0.2497  0.0383 -0.4258
   38MOL   O35035204   2.747   3.289   0.757 -0.6765 -0.2019 -0.3621
   38MOL   O35135205   2.954   3.270   0.846  0.3015  0.6171 -0.2023
   38MOL   C35235206   2.817   3.506   0.594  0.2816  1.1275  0.1823
   38MOL   C35335207   2.861   3.593   0.494  0.0400 -0.3741  0.2649
   38MOL   H35435208   2.060   3.867   7.667  1.4760  0.0109 -1.1154
   38MOL   H35535209   2.056   3.769   7.810 -1.7071  0.9138  0.0659
   38MOL   H35635210   2.230   3.746   7.558  1.9733 -0.9118  0.2789
   38MOL   H35735211   2.247   3.622   7.688 -1.1240  0.6112  2.2138
   38MOL   H35835212   2.319   3.901   7.727  0.0765 -0.6901 -0.5292
   38MOL   H35935213   2.334   3.769   7.841  1.6144  0.2777  0.1868
   38MOL   H36035214   2.464   3.830   7.575  0.6498 -0.0825 -1.0066
   38MOL   H36135215   2.481   3.669   7.634 -3.3205 -0.4234  1.9778
   38MOL   H36235216   2.688   3.844   7.688 -0.7004  0.0028 -1.9359
   38MOL   H36335217   2.564   3.920   7.775  0.3106 -0.2041  1.0814
   38MOL   H36435218   2.555   3.721   7.930 -2.3918 -1.0384 -3.3273
   38MOL   H36535219   2.668   3.633   7.828  3.0133  0.9423 -0.6212
   38MOL   H36635220   2.848   3.787   7.855  0.8514  0.6696  1.1555
   38MOL   H36735221   2.749   3.903   7.918  2.0292  0.2010  0.0084
   38MOL   H36835222   2.770   3.779   0.169 -1.3959  2.0970 -2.1389
   38MOL   H36935223   2.854   3.653   0.079 -3.9875 -0.0713 -0.8470
   38MOL   H37035224   2.966   3.926   0.026 -1.7532  1.9854  1.5570
   38MOL   H37135225   3.039   3.781   0.098 -0.1556 -0.2601 -0.6831
   38MOL   H37235226   2.881   3.983   0.251 -0.1898  0.1454  2.4352
   38MOL   H37335227   3.058   3.954   0.264  0.2517 -0.1239  1.8278
   38MOL   H37435228   3.194   3.572   0.565 -0.1586  0.0809 -3.8687
   38MOL   H37535229   3.119   3.423   0.742  0.3313  2.7532  2.5038
   38MOL   H37635230   2.712   3.486   0.610  0.6594  0.1385  1.5325
   38MOL   H37735231   2.791   3.634   0.424 -1.2484  0.1248  1.8139
   38MOL   O37835232   2.913   3.133   0.895 -0.3630 -0.0535 -0.0952
   38MOL   C37935233   2.843   3.148   1.019 -0.5029 -0.0299 -0.1532
   38MOL   C38035234   2.935   3.155   1.137 -0.5801  0.4816 -0.1650
   38MOL   C38135235   2.860   3.169   1.268  0.6300  0.3854  0.4489
   38MOL   C38235236   2.953   3.179   1.394  0.0084  0.5876 -0.4884
   38MOL   C38335237   2.869   3.177   1.520 -0.4377  0.3364  0.1449
   38MOL   C38435238   2.949   3.203   1.647 -0.2221 -0.5855 -0.3816
   38MOL   C38535239   2.839   3.233   1.759  1.2182  0.6344  0.3087
   38MOL   C38635240   2.892   3.287   1.889  0.3616 -0.1482  0.3931
   38MOL   C38735241   2.984   3.189   1.955 -0.8288 -0.1805  1.3290
   38MOL   C38835242   3.040   3.247   2.081  0.4177 -0.3835 -0.1655
   38MOL   O38935243   3.132   3.167   2.149 -0.1285 -0.0086 -0.5728
   38MOL   C39035244   3.088   3.092   2.256  0.2088  0.0903  0.1242
   38MOL   O39135245   2.969   3.065   2.286  0.1621  0.2225 -0.2999
   38MOL   C39235246   3.201   3.033   2.335 -0.1695 -0.0760 -0.0110
   38MOL   C39335247   3.181   2.992   2.466 -0.0683  0.3186  0.6301
   38MOL   C39435248   3.283   2.940   2.546 -0.2776  0.9038 -0.0425
   38MOL   C39535249   3.413   2.944   2.496  0.3185 -0.3052  0.5116
   38MOL   C39635250   3.520   2.889   2.583 -0.0679 -0.2092  0.4821
   38MOL   O39735251   3.499   2.846   2.697  0.4571  0.0230 -0.3209
   38MOL   O39835252   3.645   2.889   2.530 -0.3063  0.0282 -0.0663
   38MOL   C39935253   3.440   2.988   2.368 -0.3216 -0.0300  0.2437
   38MOL   C40035254   3.333   3.031   2.284  0.4114 -0.1262  0.1816
   38MOL   H40135255   2.777   3.234   1.009  0.9774  0.9590 -1.8180
   38MOL   H40235256   2.773   3.065   1.034 -0.5992  0.3575  1.6188
   38MOL   H40335257   3.006   3.237   1.122 -1.1119  0.6401 -1.9768
   38MOL   H40435258   2.997   3.065   1.136 -1.4923 -0.1519 -0.6502
   38MOL   H40535259   2.809   3.266   1.260 -0.7437 -0.1635  2.1198
   38MOL   H40635260   2.796   3.083   1.287  1.4887  0.0212  1.7606
   38MOL   H40735261   3.013   3.270   1.390 -0.3613  0.8587  0.1716
   38MOL   H40835262   3.022   3.095   1.409  1.6323  2.0849  0.6274
   38MOL   H40935263   2.790   3.252   1.517  0.5922  1.3557 -2.3413
   38MOL   H41035264   2.817   3.082   1.531 -0.0964  0.3844  2.2501
   38MOL   H41135265   3.003   3.114   1.679  1.2208  1.3000  2.6478
   38MOL   H41235266   3.010   3.292   1.629 -1.1421 -0.0089 -0.7002
   38MOL   H41335267   2.766   3.305   1.721 -0.5347 -1.3528 -0.1892
   38MOL   H41435268   2.785   3.142   1.784 -1.1570  2.5776  2.5070
   38MOL   H41535269   2.933   3.388   1.881  0.7397 -0.1392  2.2627
   38MOL   H41635270   2.806   3.307   1.952 -0.1467 -0.5833 -0.1607
   38MOL   H41735271   3.069   3.175   1.889 -2.8851 -0.5262 -1.3202
   38MOL   H41835272   2.938   3.093   1.978  1.1948 -1.5012 -0.0373
   38MOL   H41935273   2.963   3.264   2.156  0.8412  1.2462 -0.0813
   38MOL   H42035274   3.091   3.342   2.062 -1.2187  0.6159  0.3505
   38MOL   H42135275   3.082   2.977   2.507  0.0366 -1.9720  0.0744
   38MOL   H42235276   3.260   2.901   2.644 -0.8092 -1.0261 -0.9107
   38MOL   H42335277   3.540   2.993   2.328 -0.5580  1.5182 -0.1896
   38MOL   H42435278   3.363   3.071   2.188  0.2691 -2.0706 -0.7120
   38MOL   O42535279   3.756   2.824   2.617  0.4388 -1.1029  0.4067
   38MOL   C42635280   3.802   2.921   2.708  0.6683  1.0011 -0.1422
   38MOL   C42735281   3.888   2.835   2.798  0.1522 -0.3836 -0.3594
   38MOL   C42835282   3.955   2.914   2.913  0.4857 -0.4625 -0.3002
   38MOL   C42935283   3.997   2.838   3.032  0.0730  0.4161  0.6628
   38MOL   C43035284   4.085   2.936   3.115 -0.2655 -0.2119  0.1705
   38MOL   C43135285   4.133   2.868   3.243 -0.1313 -0.1999  0.0191
   38MOL   C43235286   4.081   2.936   3.374 -0.5953  0.0961  0.2164
   38MOL   C43335287   4.116   3.090   3.395  0.4479 -0.5314  0.5335
   38MOL   C43435288   4.099   3.123   3.546 -0.2418 -0.1847 -0.0942
   38MOL   C43535289   4.146   3.267   3.571 -0.1923 -0.2900 -0.2875
   38MOL   O43635290   4.287   3.265   3.552 -0.2594 -0.1276  0.1039
   38MOL   C43735291   4.370   3.288   3.646  0.1406  0.2763 -0.8572
   38MOL   O43835292   4.340   3.317   3.760  0.0906  0.0488  0.3505
   38MOL   C43935293   4.507   3.278   3.586  0.5713  0.6229  0.5067
   38MOL   C44035294   4.616   3.256   3.667 -0.3352  0.1254  0.3576
   38MOL   C44135295   4.742   3.228   3.614  0.9846 -0.0039  0.5127
   38MOL   C44235296   4.762   3.220   3.477 -0.1292 -0.5425  0.5663
   38MOL   C44335297   4.897   3.201   3.426  0.4744 -0.4786  0.3866
   38MOL   O44435298   4.988   3.161   3.493 -0.4343  0.1058 -0.2217
   38MOL   O44535299   4.907   3.211   3.285  0.5110  0.2782 -0.2728
   38MOL   C44635300   4.654   3.241   3.391  0.4021  0.3434  0.6035
   38MOL   C44735301   4.524   3.262   3.447  0.0093 -0.1679 -0.5624
   38MOL   H44835302   3.869   2.990   2.658  1.1671 -0.2065 -1.1391
   38MOL   H44935303   3.726   2.965   2.772 -0.6294  0.3887 -1.2396
   38MOL   H45035304   3.971   2.800   2.738  1.0665 -0.5825  1.0026
   38MOL   H45135305   3.827   2.750   2.831  1.7726 -1.0580  0.9740
   38MOL   H45235306   4.037   2.966   2.863  1.2381  0.7520  2.1354
   38MOL   H45335307   3.896   3.001   2.943  1.2181 -0.3631  0.8950
   38MOL   H45435308   4.064   2.754   3.010  0.0620 -0.2371  3.0212
   38MOL   H45535309   3.907   2.804   3.085  0.9296  1.1532  2.6334
   38MOL   H45635310   4.180   2.951   3.065  0.0918  0.8684  1.1581
   38MOL   H45735311   4.030   3.025   3.145  0.4679  0.2822  0.0592
   38MOL   H45835312   4.072   2.778   3.254 -1.2240  0.5005 -0.3179
   38MOL   H45935313   4.237   2.835   3.243 -0.3586 -0.9211 -0.5153
   38MOL   H46035314   3.972   2.931   3.373 -0.5205 -2.7756  1.5574
   38MOL   H46135315   4.124   2.881   3.457  0.9669  2.9166  1.3473
   38MOL   H46235316   4.219   3.095   3.359 -0.0910  2.3791 -0.7682
   38MOL   H46335317   4.061   3.158   3.330 -1.1183 -0.1864  2.1962
   38MOL   H46435318   4.164   3.058   3.605 -2.3776 -1.1899  1.2056
   38MOL   H46535319   3.999   3.111   3.589 -0.2985  0.6510  0.0172
   38MOL   H46635320   4.103   3.305   3.663  0.2110 -0.4080 -0.0522
   38MOL   H46735321   4.105   3.333   3.495 -1.9540 -0.9642  0.0437
   38MOL   H46835322   4.601   3.274   3.773  1.3012  1.2275  0.4217
   38MOL   H46935323   4.824   3.206   3.681  1.2456 -1.2646 -0.1799
   38MOL   H47035324   4.663   3.222   3.285 -1.5050  1.2504  0.2626
   38MOL   H47135325   4.441   3.263   3.379  0.0834  2.3700 -0.6352
   38MOL   O47235326   5.034   3.158   3.222  0.3257  0.4457 -0.2069
   38MOL   C47335327   5.003   3.041   3.153  0.0499  0.0823  0.2561
   38MOL   C47435328   5.132   2.974   3.083 -0.7196  0.0073  0.0165
   38MOL   C47535329   5.093   2.836   3.015  0.4669 -0.8451  0.2994
   38MOL   C47635330   5.209   2.756   2.959 -0.6275  0.7644  0.0602
   38MOL   C47735331   5.176   2.606   2.925  0.2606  0.4831  0.1347
   38MOL   C47835332   5.290   2.528   2.862 -0.4400  0.0604  0.2024
   38MOL   C47935333   5.314   2.561   2.713  0.8262 -0.2023 -0.6257
   38MOL   C48035334   5.410   2.468   2.645 -0.1614  0.2046 -0.8447
   38MOL   C48135335   5.549   2.527   2.608 -0.2134  0.2776 -0.2603
   38MOL   C48235336   5.552   2.609   2.479 -0.3596 -0.4862 -0.2886
   38MOL   O48335337   5.662   2.695   2.462  0.2333  0.1479 -0.3342
   38MOL   C48435338   5.660   2.830   2.479 -0.3669 -0.0217 -0.2871
   38MOL   O48535339   5.562   2.890   2.507  0.1501  0.4162 -0.1272
   38MOL   C48635340   5.792   2.896   2.453  1.1318 -0.4141 -0.6529
   38MOL   C48735341   5.811   3.035   2.453  0.2882 -0.6854  0.5968
   38MOL   C48835342   5.934   3.094   2.417  0.1933  0.5050  1.0243
   38MOL   C48935343   6.042   3.012   2.377 -0.1632 -0.3208 -0.2603
   38MOL   C49035344   6.172   3.070   2.318 -0.0238  0.0933 -0.1449
   38MOL   O49135345   6.272   3.007   2.284 -0.0283  0.4681  0.4680
   38MOL   O49235346   6.170   3.205   2.302 -0.0483  0.6396  0.0977
   38MOL   C49335347   6.029   2.871   2.380  0.2590  0.6921  0.5988
   38MOL   C49435348   5.902   2.811   2.413  0.0365  0.2726  0.1487
   38MOL   H49535349   4.958   2.972   3.225  0.3576 -0.4181 -0.0296
   38MOL   H49635350   4.923   3.055   3.081 -0.3962 -0.9604  0.5323
   38MOL   H49735351   5.207   2.966   3.162 -0.0822  0.7220 -0.5069
   38MOL   H49835352   5.171   3.040   3.005 -0.9358 -0.3060 -0.3568
   38MOL   H49935353   5.042   2.772   3.086  0.5863 -1.4062 -0.1134
   38MOL   H50035354   5.022   2.854   2.934  0.1576 -2.3033  0.2375
   38MOL   H50135355   5.291   2.752   3.031 -2.6714 -0.5771  2.3908
   38MOL   H50235356   5.240   2.803   2.866 -0.5010 -0.9982 -0.8027
   38MOL   H50335357   5.150   2.558   3.020  0.1277  1.2506  0.4909
   38MOL   H50435358   5.086   2.599   2.865  0.1482 -1.9529  0.5319
   38MOL   H50535359   5.387   2.546   2.908 -0.3638 -0.2218  0.1556
   38MOL   H50635360   5.269   2.422   2.878 -0.6163 -0.3428 -2.5137
   38MOL   H50735361   5.215   2.566   2.669  0.0200  0.4381  1.1896
   38MOL   H50835362   5.342   2.665   2.701  0.9075 -0.4628 -2.7526
   38MOL   H50935363   5.434   2.385   2.712 -1.3548  0.7145  0.2479
   38MOL   H51035364   5.360   2.424   2.559 -0.8571  0.5458 -0.6228
   38MOL   H51135365   5.620   2.446   2.593 -0.1762 -0.0145  1.3613
   38MOL   H51235366   5.599   2.572   2.694  1.1875 -0.8524 -0.4628
   38MOL   H51335367   5.457   2.660   2.465 -1.1304 -1.8142 -0.0284
   38MOL   H51435368   5.558   2.530   2.403  2.0999  0.4170 -1.0883
   38MOL   H51535369   5.729   3.099   2.485 -1.9192 -2.5840 -1.0826
   38MOL   H51635370   5.942   3.202   2.422 -1.4225  0.5782  2.5763
   38MOL   H51735371   6.106   2.803   2.348 -0.3180  0.4241 -0.2338
   38MOL   H51835372   5.888   2.705   2.402 -0.3234  0.4023 -0.7678
   38MOL   O51935373   6.297   3.254   2.243 -0.0871  1.1245 -0.1640
   38MOL   C52035374   6.270   3.289   2.111 -0.1372  0.2246  0.3357
   38MOL   C52135375   6.366   3.402   2.065  0.6678 -0.0797 -0.4980
   38MOL   C52235376   6.362   3.449   1.918 -0.6013 -0.0244 -0.5629
   38MOL   C52335377   6.451   3.575   1.885  0.3593  0.0210  0.4554
   38MOL   C52435378   6.402   3.717   1.932  0.2622 -0.3131  0.1448
   38MOL   C52535379   6.476   3.833   1.870  0.2501  0.3095 -0.7774
   38MOL   C52635380   6.448   3.957   1.950  0.1100 -0.2455 -0.6627
   38MOL   C52735381   6.519   4.080   1.897  0.0038  0.4463 -0.4691
   38MOL   C52835382   6.500   4.207   1.979  0.4977  0.1205  0.5442
   38MOL   C52935383   6.587   4.329   1.925 -0.1177  0.2558  0.1629
   38MOL   O53035384   6.725   4.327   1.973  0.0529  0.1620 -0.1430
   38MOL   C53135385   6.786   4.443   1.973 -0.1402 -0.0782  0.6972
   38MOL   O53235386   6.738   4.542   1.921  0.5316  0.6367  0.0093
   38MOL   C53335387   6.920   4.443   2.029 -0.1668  1.4402  0.0548
   38MOL   C53435388   6.993   4.561   2.053 -0.1350 -0.0885  0.1714
   38MOL   C53535389   7.127   4.560   2.098 -0.1337 -0.1253  0.0101
   38MOL   C53635390   7.184   4.433   2.132  0.3170  0.4488  0.5166
   38MOL   C53735391   7.329   4.420   2.166 -0.4008  0.4180 -0.5523
   38MOL   O53835392   7.387   4.316   2.210  0.3286 -0.3926  0.2959
   38MOL   O53935393   7.405   4.517   2.136 -0.9896 -0.8245  0.1669
   38MOL   C54035394   7.110   4.315   2.105 -0.6639 -0.4356  0.2135
   38MOL   C54135395   6.981   4.314   2.056 -0.2068 -0.3399  0.0695
   38MOL   H54235396   6.280   3.200   2.049  1.1522  0.6997 -0.1501
   38MOL   H54335397   6.169   3.330   2.104 -0.8504 -1.2038  1.9451
   38MOL   H54435398   6.461   3.361   2.099 -0.0244 -1.7131 -0.4897
   38MOL   H54535399   6.344   3.494   2.119 -0.4272  1.5915 -3.6343
   38MOL   H54635400   6.401   3.364   1.862 -0.5358 -0.5194  0.2164
   38MOL   H54735401   6.262   3.471   1.881 -0.7902 -1.2471 -0.8096
   38MOL   H54835402   6.448   3.582   1.776 -1.7211  0.2493  0.5143
   38MOL   H54935403   6.556   3.570   1.916  0.3899  2.5997  0.8190
   38MOL   H55035404   6.296   3.734   1.918  0.5223  1.5490  0.3237
   38MOL   H55135405   6.407   3.722   2.041  0.6357 -0.5539  0.1412
   38MOL   H55235406   6.581   3.812   1.886  0.2651  0.9930  0.0392
   38MOL   H55335407   6.462   3.850   1.763  2.9872  1.2289 -1.0353
   38MOL   H55435408   6.340   3.971   1.946  0.3500  2.1781  0.4724
   38MOL   H55535409   6.469   3.933   2.054 -1.8424  2.6111  0.4621
   38MOL   H55635410   6.623   4.051   1.901  0.5347  2.3959  0.5217
   38MOL   H55735411   6.504   4.107   1.792  0.4235  0.7593 -0.4499
   38MOL   H55835412   6.522   4.187   2.084  0.4962  0.4936  0.6158
   38MOL   H55935413   6.395   4.236   1.972  0.3224 -0.2345  1.5875
   38MOL   H56035414   6.530   4.418   1.952 -2.0528 -0.6945 -0.6311
   38MOL   H56135415   6.586   4.328   1.816  1.0730 -0.0228  0.1497
   38MOL   H56235416   6.952   4.657   2.025 -0.7148  0.3914  2.6022
   38MOL   H56335417   7.188   4.645   2.125  0.2564 -0.3703 -0.1000
   38MOL   H56435418   7.146   4.215   2.123  1.6635  0.2647 -0.4279
   38MOL   H56535419   6.925   4.223   2.045 -2.6658  1.1352  0.0980
   38MOL   O56635420   7.543   4.508   2.189 -0.0343  0.0581  0.2008
   38MOL   C56735421   7.622   4.459   2.077  0.6081  0.3810 -0.2208
   38MOL   C56835422   7.767   4.467   2.117  0.2108 -0.2917  0.4855
   38MOL   C56935423   7.837   4.599   2.126  0.2082  0.8399 -0.3737
   38MOL   C57035424   0.014   4.592   2.104  0.3115  0.3172 -0.1212
   38MOL   C57135425   0.070   4.686   1.990  0.6169 -0.5243 -0.4513
   38MOL   C57235426   0.077   4.843   2.034 -0.4035  0.6347  0.4773
   38MOL   C57335427   0.105   4.937   1.915  0.6510  0.5017  0.3000
   38MOL   C57435428   0.082   5.088   1.941  0.2166 -0.1160 -0.6518
   38MOL   C57535429   0.170   5.180   1.853  0.2810 -0.8177 -0.4125
   38MOL   C57635430   0.148   5.333   1.848 -0.5157  0.3665  0.2075
   38MOL   O57735431   0.188   5.381   1.978  0.8079 -0.5050 -0.1763
   38MOL   C57835432   0.256   5.493   1.988 -0.2339 -0.6521 -0.0343
   38MOL   O57935433   0.312   5.545   1.888 -0.3072  0.7242 -0.5570
   38MOL   C58035434   0.258   5.549   2.116  0.0589 -0.7667  0.6636
   38MOL   C58135435   0.172   5.502   2.222  0.5790 -0.1918 -0.1433
   38MOL   C58235436   0.166   5.556   2.351  0.1627  0.5524 -0.6043
   38MOL   C58335437   0.240   5.677   2.375  0.1514  0.0697  0.5958
   38MOL   C58435438   0.254   5.743   2.509 -1.0113 -0.0460 -0.4762
   38MOL   O58535439   0.312   5.850   2.515  0.6436 -0.6281  0.5315
   38MOL   O58635440   0.189   5.674   2.612  0.0532 -0.2751 -0.3415
   38MOL   C58735441   0.321   5.729   2.266  0.3846  0.1507 -0.3261
   38MOL   C58835442   0.329   5.669   2.139 -0.2801 -0.0997 -0.3883
   38MOL   H58935443   7.592   4.357   2.055 -4.5135  1.0389  2.7236
   38MOL   H59035444   7.600   4.521   1.990  2.0592 -0.4620 -1.2020
   38MOL   H59135445   7.823   4.398   2.054  1.6946  2.2490 -1.0660
   38MOL   H59235446   7.784   4.415   2.211  1.9931  1.3066  1.0817
   38MOL   H59335447   7.781   4.660   2.054  0.1184 -0.8861 -1.8171
   38MOL   H59435448   7.827   4.633   2.229  2.3709 -0.7065  0.3735
   38MOL   H59535449   0.043   4.492   2.073 -0.4738  0.8695 -2.7305
   38MOL   H59635450   0.062   4.617   2.198 -0.9942 -1.1808  0.9836
   38MOL   H59735451   0.175   4.658   1.979  0.3742 -1.3325 -0.7695
   38MOL   H59835452   0.023   4.661   1.896  1.7259 -0.0850 -1.1323
   38MOL   H59935453   7.955   4.871   2.068 -1.2594 -0.2394 -1.2872
   38MOL   H60035454   0.147   4.866   2.115  1.2433 -2.9424  0.1517
   38MOL   H60135455   0.209   4.912   1.892  0.7105  0.3622  0.7128
   38MOL   H60235456   0.049   4.899   1.830  0.6499  2.9496 -0.8244
   38MOL   H60335457   7.959   5.122   1.920  0.7352  1.6987 -0.3317
   38MOL   H60435458   0.101   5.117   2.044 -1.1845  2.3007 -1.0354
   38MOL   H60535459   0.153   5.141   1.753 -2.4803  0.3776 -0.4645
   38MOL   H60635460   0.273   5.162   1.885  0.2089 -0.8982 -0.2203
   38MOL   H60735461   0.043   5.352   1.824 -1.3686 -2.1017  1.6847
   38MOL   H60835462   0.218   5.363   1.771  1.0518 -0.9211  1.1049
   38MOL   H60935463   0.102   5.421   2.210 -2.2437  2.2805 -0.8464
   38MOL   H61035464   0.095   5.521   2.425  0.8510  1.0878  0.3036
   38MOL   H61135465   0.384   5.816   2.275  2.6778 -1.5767  0.8050
   38MOL   H61235466   0.380   5.716   2.057  0.8475 -0.1341  0.2757
   38MOL   O61335467   0.162   5.767   2.737 -0.1018  0.4073 -0.3338
   38MOL   C61435468   0.021   5.789   2.762 -1.0704 -0.6112  0.2365
   38MOL   C61535469   7.965   5.837   2.903 -0.4944  0.0759  0.2232
   38MOL   C61635470   7.819   5.868   2.920  1.1712 -0.1579 -0.6873
   38MOL   C61735471   7.772   5.899   3.067  0.2975 -0.0315  0.1600
   38MOL   C61835472   7.620   5.891   3.089 -0.2177  0.2759  0.9322
   38MOL   C61935473   7.580   5.960   3.218 -0.2749 -0.1450  0.1241
   38MOL   C62035474   7.443   5.916   3.272  0.2033 -0.7206 -0.2125
   38MOL   C62135475   7.388   5.996   3.397 -0.3331 -0.4827  0.3918
   38MOL   C62235476   7.268   5.943   3.468 -0.1217  0.4965  0.6598
   38MOL   C62335477   7.135   5.986   3.403  0.6850  0.1116  0.4130
   38MOL   O62435478   7.118   6.129   3.408  0.3549  0.8606  0.4023
   38MOL   C62535479   7.009   6.194   3.361 -0.2723 -0.1308  0.9899
   38MOL   O62635480   6.909   6.140   3.317  0.1663  0.4023  0.2932
   38MOL   C62735481   7.035   6.341   3.353 -0.1322 -0.8712 -0.3128
   38MOL   C62835482   7.147   6.403   3.408  0.1301  0.1501 -0.4617
   38MOL   C62935483   7.170   6.542   3.391  0.1737  0.6140 -0.1795
   38MOL   C63035484   7.073   6.623   3.321  1.3712 -0.7917  0.5351
   38MOL   C63135485   7.104   6.766   3.310  0.2594 -0.5892  0.5376
   38MOL   O63235486   7.169   6.826   3.397  0.5979 -0.9992  0.6709
   38MOL   O63335487   7.052   6.823   3.195  0.1877 -0.4139  0.3328
   38MOL   C63435488   6.957   6.558   3.265  0.6733 -0.1902  0.2693
   38MOL   C63535489   6.942   6.418   3.275  0.1976 -0.4334 -1.1616
   38MOL   H63635490   7.962   5.856   2.685  0.9637 -0.9229 -1.0355
   38MOL   H63735491   7.946   5.696   2.746  0.8079 -1.3615 -1.7422
   38MOL   H63835492   0.046   5.927   2.922 -0.3696 -0.2260  1.2763
   38MOL   H63935493   0.024   5.763   2.973  0.4684 -0.5469 -0.9162
   38MOL   H64035494   7.793   5.943   2.845  3.8448 -0.6492 -2.1513
   38MOL   H64135495   7.770   5.778   2.884  0.7088  0.0602 -0.6182
   38MOL   H64235496   7.812   5.998   3.091  1.3291  0.1812 -2.2992
   38MOL   H64335497   7.826   5.847   3.147  0.2499 -0.5359 -0.1356
   38MOL   H64435498   7.574   5.939   3.002  2.0307  1.0693  0.1576
   38MOL   H64535499   7.592   5.786   3.092  0.3356  0.0618 -0.8038
   38MOL   H64635500   7.654   5.950   3.297 -1.0287  0.1919  0.8841
   38MOL   H64735501   7.568   6.065   3.193  0.2961 -0.4405 -1.4515
   38MOL   H64835502   7.371   5.913   3.190  2.8842  0.2304 -2.6805
   38MOL   H64935503   7.447   5.811   3.301 -2.9831 -0.3916  1.6606
   38MOL   H65035504   7.463   6.015   3.474 -0.6987  2.8848 -0.0065
   38MOL   H65135505   7.366   6.097   3.363  2.4624 -0.0296 -0.2068
   38MOL   H65235506   7.278   5.962   3.575  0.4173 -0.3287  0.7611
   38MOL   H65335507   7.273   5.834   3.463 -1.5043  0.4288  0.5955
   38MOL   H65435508   7.051   5.945   3.460 -0.2143  1.2827 -0.0460
   38MOL   H65535509   7.124   5.945   3.302  0.7595 -0.5565  0.6757
   38MOL   H65635510   7.220   6.352   3.469  0.7850  0.6186 -0.8576
   38MOL   H65735511   7.253   6.592   3.438  0.7830 -0.7556  0.2177
   38MOL   H65835512   6.889   6.610   3.199  1.8728 -0.7748 -1.4593
   38MOL   H65935513   6.857   6.369   3.230 -0.6085 -0.3461  0.2595
   38MOL   O66035514   7.064   6.970   3.185 -0.0131  0.2433 -0.0669
   38MOL   C66135515   7.188   6.996   3.121 -0.1219  0.0521  0.7526
   38MOL   C66235516   7.202   7.147   3.088  0.2437  0.2343  0.8818
   38MOL   C66335517   7.088   7.208   3.011 -0.5414 -0.1651  0.9203
   38MOL   C66435518   7.115   7.349   2.953  0.2368  0.1009  0.9599
   38MOL   C66535519   7.006   7.409   2.863 -0.1797  0.2538 -0.2623
   38MOL   C66635520   7.045   7.542   2.802 -0.8450 -0.0571  0.1374
   38MOL   C66735521   6.938   7.607   2.716  0.1704 -0.4982  0.1917
   38MOL   C66835522   6.976   7.749   2.684  0.0219 -0.1276 -0.5744
   38MOL   C66935523   6.877   7.818   2.593 -0.2788 -0.1785  0.5030
   38MOL   C67035524   6.909   7.961   2.550  0.0493  0.4930  0.2341
   38MOL   O67135525   6.898   0.066   2.665 -0.0414 -0.4063  0.0075
   38MOL   C67235526   6.939   0.201   2.662 -0.0264 -0.7104 -0.0103
   38MOL   O67335527   7.000   0.244   2.565  0.1985 -0.1848  0.3723
   38MOL   C67435528   6.902   0.275   2.782  1.6947  0.8193 -0.6196
   38MOL   C67535529   6.923   0.410   2.795 -0.2508 -0.3841  0.5967
   38MOL   C67635530   6.894   0.473   2.917 -0.0966 -0.1545  0.4744
   38MOL   C67735531   6.839   0.404   3.027  0.7074  0.4331 -0.0413
   38MOL   C67835532   6.799   0.477   3.148  0.2052  0.1471  0.2259
   38MOL   O67935533   6.811   0.439   3.260  0.3076 -0.4651  0.2466
   38MOL   O68035534   6.754   0.603   3.118  0.9723  0.5088  0.5833
   38MOL   C68135535   6.829   0.265   3.017 -0.1870 -0.5231  0.2881
   38MOL   C68235536   6.860   0.200   2.897 -0.0527  0.4548  0.2526
   38MOL   H68335537   7.275   6.977   3.185 -0.2827  0.4566  1.0932
   38MOL   H68435538   7.200   6.921   3.043 -1.8634 -1.5135  1.9544
   38MOL   H68535539   7.298   7.167   3.041 -0.6540 -3.6393 -2.9821
   38MOL   H68635540   7.203   7.197   3.184 -0.7028 -0.8766  1.4917
   38MOL   H68735541   7.063   7.136   2.933  1.6176  0.3587 -0.2794
   38MOL   H68835542   7.003   7.211   3.079 -0.3685  0.7421  1.1015
   38MOL   H68935543   7.195   7.335   2.881 -0.9074  2.0050 -0.7432
   38MOL   H69035544   7.146   7.411   3.037 -0.7010  0.8295  0.7750
   38MOL   H69135545   6.977   7.336   2.788 -1.7331  0.7216 -0.1416
   38MOL   H69235546   6.915   7.415   2.923  0.8857 -0.6002  1.4950
   38MOL   H69335547   7.084   7.605   2.883  3.5942 -1.4526 -0.7715
   38MOL   H69435548   7.128   7.528   2.733 -0.5532  3.1182 -0.2338
   38MOL   H69535549   6.923   7.547   2.627  0.2232  0.4551 -0.4657
   38MOL   H69635550   6.844   7.604   2.772  0.8777  1.6201  1.5737
   38MOL   H69735551   6.971   7.801   2.779 -2.4581  0.2792 -0.9043
   38MOL   H69835552   7.081   7.763   2.656  0.7208 -1.0950  1.5149
   38MOL   H69935553   6.781   7.804   2.643  0.3322  2.4108  2.4970
   38MOL   H70035554   6.862   7.763   2.501 -0.9339  0.3617  0.2852
   38MOL   H70135555   6.835   0.006   2.474  0.8818 -0.8242 -1.0017
   38MOL   H70235556   7.010   0.002   2.512  0.0211  0.1901  0.0136
   38MOL   H70335557   6.965   0.470   2.716  2.3768 -1.8013  0.8474
   38MOL   H70435558   6.920   0.577   2.928  1.4798 -0.2877 -1.7038
   38MOL   H70535559   6.798   0.200   3.097 -1.3659 -1.6621 -1.0543
   38MOL   H70635560   6.853   0.092   2.893 -0.0060  0.4448  0.4458
   38MOL   O70735561   6.687   0.669   3.228 -0.5866  0.5734 -0.0823
   38MOL   C70835562   6.780   0.760   3.288 -0.3777 -0.0569 -0.6056
   38MOL   C70935563   6.741   0.779   3.439  0.1649 -0.3578 -0.0540
   38MOL   C71035564   6.828   0.877   3.515 -0.4335  0.5932  0.0967
   38MOL   C71135565   6.976   0.843   3.518 -0.0866  0.3989  0.5403
   38MOL   C71235566   7.053   0.959   3.570 -0.1708  0.1098  0.1995
   38MOL   C71335567   7.200   0.941   3.552 -1.0768  0.1194 -0.4263
   38MOL   C71435568   7.278   1.073   3.573  0.0406 -0.3818  0.4152
   38MOL   C71535569   7.430   1.041   3.595 -0.4266 -0.0386  0.2535
   38MOL   C71635570   7.485   1.168   3.670  0.1265 -0.2037 -0.5068
   38MOL   C71735571   7.636   1.160   3.717 -0.0632  0.6862  0.5354
   38MOL   O71835572   7.705   1.107   3.608 -0.0029 -0.0973 -0.2083
   38MOL   C71935573   7.833   1.139   3.591  0.0788  0.6697 -0.1417
   38MOL   O72035574   7.900   1.213   3.665  0.1979 -0.0166  0.2071
   38MOL   C72135575   7.895   1.069   3.477  0.0518  0.0421  0.4625
   38MOL   C72235576   0.045   1.108   3.432  0.5604  0.2283 -0.4092
   38MOL   C72335577   0.099   1.040   3.319  0.1191  0.5240 -0.7562
   38MOL   C72435578   0.022   0.953   3.248  0.1501 -0.2324  0.2019
   38MOL   C72535579   0.068   0.888   3.125  0.1221 -0.5576  0.2853
   38MOL   O72635580   7.974   0.814   3.057 -0.0635 -0.2307  0.4504
   38MOL   O72735581   0.197   0.919   3.089 -0.0446  0.0874 -0.4527
   38MOL   C72835582   7.874   0.911   3.292 -0.2565 -0.1239  0.8693
   38MOL   C72935583   7.823   0.965   3.410  0.1029  0.3736 -0.4078
   38MOL   H73035584   6.884   0.732   3.279 -0.3315 -0.1298  0.1427
   38MOL   H73135585   6.786   0.858   3.240 -1.4768 -0.4248 -1.5330
   38MOL   H73235586   6.748   0.681   3.486  0.0978 -1.0440 -1.4407
   38MOL   H73335587   6.642   0.818   3.458  1.8408  2.5620  3.2087
   38MOL   H73435588   6.821   0.973   3.465 -0.9186  0.3320 -0.3384
   38MOL   H73535589   6.797   0.894   3.618  1.7948  0.5285  0.8126
   38MOL   H73635590   7.015   0.819   3.419  0.0917  0.9255  0.4852
   38MOL   H73735591   6.990   0.747   3.568  1.8627  0.1549 -0.4258
   38MOL   H73835592   7.024   1.050   3.517  0.1772  0.5962  0.8393
   38MOL   H73935593   7.026   0.972   3.675  0.2589 -1.5315  0.5157
   38MOL   H74035594   7.229   0.870   3.629 -0.1334  0.6257 -0.3072
   38MOL   H74135595   7.213   0.889   3.456 -0.1855  1.2760 -0.9396
   38MOL   H74235596   7.256   1.132   3.485  0.0446  1.6544  1.7495
   38MOL   H74335597   7.241   1.126   3.661  0.2984  3.4004 -1.7003
   38MOL   H74435598   7.447   0.943   3.639 -1.0203 -0.0253  0.5195
   38MOL   H74535599   7.468   1.043   3.493 -0.4260 -0.5565  0.2460
   38MOL   H74635600   7.424   1.193   3.757 -0.4605 -2.2095 -0.3119
   38MOL   H74735601   7.477   1.251   3.600  0.2458 -0.4160 -0.7729
   38MOL   H74835602   7.652   1.104   3.809  1.5707  1.5267  0.7701
   38MOL   H74935603   7.674   1.262   3.727 -0.5546  1.1128 -1.6529
   38MOL   H75035604   0.101   1.183   3.486  4.1266  2.0568 -6.2212
   38MOL   H75135605   0.203   1.065   3.304  0.2454  1.5149  1.5871
   38MOL   H75235606   7.818   0.830   3.248 -0.0097  0.6757 -0.9624
   38MOL   H75335607   7.726   0.934   3.445 -1.0028  2.6453 -1.3367
   38MOL   O75435608   0.267   0.836   2.983 -0.2878  0.1053 -0.0576
   38MOL   C75535609   0.223   0.872   2.853 -0.3651 -0.5289  0.6773
   38MOL   C75635610   0.310   0.990   2.817 -0.4513 -0.0255  0.2807
   38MOL   C75735611   0.298   1.015   2.670  0.3122 -0.3219  0.9646
   38MOL   C75835612   0.365   1.148   2.627  0.0437  0.1636 -0.0986
   38MOL   C75935613   0.517   1.156   2.666 -0.2176 -0.3557  0.2257
   38MOL   C76035614   0.574   1.298   2.654  0.4649 -0.3404 -0.6471
   38MOL   C76135615   0.711   1.325   2.716 -0.0346 -0.5858 -0.0893
   38MOL   C76235616   0.762   1.455   2.666 -0.5102 -0.3008  0.5717
   38MOL   C76335617   0.907   1.483   2.700  0.6610 -0.5346  0.2295
   38MOL   C76435618   0.937   1.625   2.656 -0.1721  0.2993  0.8145
   38MOL   O76535619   0.942   1.612   2.513 -0.1986 -0.1815  0.1458
   38MOL   C76635620   0.996   1.704   2.435 -0.2909 -0.3405  0.0976
   38MOL   O76735621   1.037   1.811   2.483  0.1530 -0.0257  0.1581
   38MOL   C76835622   1.007   1.670   2.291  0.8190  0.6037 -0.0460
   38MOL   C76935623   1.025   1.768   2.192  0.2997 -0.6510  0.6964
   38MOL   C77035624   1.035   1.738   2.056 -0.4467  0.6364 -0.1579
   38MOL   C77135625   1.025   1.602   2.014  0.0017 -0.0606 -0.1404
   38MOL   C77235626   1.052   1.555   1.877 -0.1866  0.8908  0.7755
   38MOL   O77335627   1.053   1.440   1.843  0.2274 -0.5629 -0.9977
   38MOL   O77435628   1.058   1.655   1.788 -0.0028 -0.3573 -0.8481
   38MOL   C77535629   1.001   1.504   2.104 -0.2121  0.1217 -0.4604
   38MOL   C77635630   0.988   1.539   2.238  0.0340  0.1413 -0.6359
   38MOL   H77735631   0.237   0.785   2.789 -1.0390  1.2991 -2.0266
   38MOL   H77835632   0.117   0.895   2.844 -0.4177 -0.6213  1.0625
   38MOL   H77935633   0.410   0.963   2.850 -2.1320 -2.6821  3.5740
   38MOL   H78035634   0.282   1.081   2.870  0.3774  2.6438 -3.6473
   38MOL   H78135635   0.347   0.936   2.612  2.5379  0.4565  1.7668
   38MOL   H78235636   0.198   0.998   2.628  1.4081 -1.1124 -1.4560
   38MOL   H78335637   0.304   1.230   2.664  1.3070 -0.1405  2.8587
   38MOL   H78435638   0.354   1.156   2.519 -0.0637 -0.8543 -0.1724
   38MOL   H78535639   0.534   1.147   2.774  1.6934 -2.0384 -0.1859
   38MOL   H78635640   0.579   1.090   2.606 -0.8923 -0.1979 -0.6460
   38MOL   H78735641   0.569   1.314   2.546 -0.3134 -2.1916 -0.9055
   38MOL   H78835642   0.500   1.356   2.709 -0.5223 -2.9432  0.8636
   38MOL   H78935643   0.706   1.333   2.825 -0.1591  1.2218 -0.2220
   38MOL   H79035644   0.782   1.247   2.686  0.8903  0.0299  0.4611
   38MOL   H79135645   0.740   1.454   2.559 -0.0145 -0.7370  0.4747
   38MOL   H79235646   0.696   1.532   2.707 -0.6289 -1.1824  2.0735
   38MOL   H79335647   0.976   1.411   2.657  1.2033 -0.8336  1.5561
   38MOL   H79435648   0.927   1.481   2.807  1.8618 -0.8661  0.0020
   38MOL   H79535649   1.031   1.666   2.692  1.1184 -1.5323 -0.3921
   38MOL   H79635650   0.859   1.692   2.693 -0.1864  0.9854 -0.3941
   38MOL   H79735651   1.023   1.871   2.225 -2.0001 -0.4312 -0.0352
   38MOL   H79835652   1.046   1.819   1.985 -2.0566  0.4653 -0.6434
   38MOL   H79935653   1.001   1.401   2.073 -1.7831  0.1184 -0.5160
   38MOL   H80035654   0.979   1.458   2.308  0.3822  0.2323 -0.4883
   38MOL   O80135655   1.081   1.613   1.646  0.0216 -0.1375 -0.5952
   38MOL   C80235656   1.206   1.664   1.605 -0.7771  0.2482 -0.1614
   38MOL   C80335657   1.195   1.811   1.571 -0.8341  0.1664 -0.2111
   38MOL   C80435658   1.119   1.846   1.443  0.0039 -0.2265 -0.4855
   38MOL   C80535659   1.137   2.001   1.423  0.4439 -0.0711  0.5036
   38MOL   C80635660   1.085   2.042   1.289  0.8917 -1.2472  0.0909
   38MOL   C80735661   0.935   2.046   1.283 -0.0398  1.1228 -0.3675
   38MOL   C80835662   0.889   2.071   1.146 -0.1496  0.6190  0.2362
   38MOL   C80935663   0.735   2.061   1.127 -0.0443  0.3379  0.4154
   38MOL   C81035664   0.655   2.165   1.212  0.4530  0.0500 -0.4744
   38MOL   C81135665   0.503   2.157   1.187  0.3035  0.0001 -0.6597
   38MOL   O81235666   0.437   2.051   1.250  0.6412  0.3236 -0.1365
   38MOL   C81335667   0.341   1.975   1.182 -0.8511 -0.9364 -0.2858
   38MOL   O81435668   0.286   2.004   1.074  0.1423 -0.0235  0.4504
   38MOL   C81535669   0.310   1.855   1.263 -0.6223 -0.4390 -0.7285
   38MOL   C81635670   0.205   1.778   1.225  0.1621  0.1448 -0.2478
   38MOL   C81735671   0.177   1.664   1.293  0.7728  0.3423 -0.1739
   38MOL   C81835672   0.253   1.620   1.404 -0.1751 -0.0897 -1.0081
   38MOL   C81935673   0.213   1.502   1.484  0.0462 -0.3651 -0.4061
   38MOL   O82035674   0.136   1.415   1.443  0.1327  0.0083 -0.1784
   38MOL   O82135675   0.266   1.502   1.604 -0.2292 -0.1602  0.2499
   38MOL   C82235676   0.350   1.708   1.454 -0.2669  0.3203 -0.2370
   38MOL   C82335677   0.380   1.827   1.381 -0.3214  0.0624 -0.3866
   38MOL   H82435678   1.280   1.640   1.681 -0.5892 -0.7936 -0.6566
   38MOL   H82535679   1.255   1.598   1.533  1.4949  0.7755  0.8708
   38MOL   H82635680   1.298   1.847   1.561 -0.5983 -0.0623  1.2068
   38MOL   H82735681   1.150   1.859   1.658  0.0389  0.9635 -0.1802
   38MOL   H82835682   1.164   1.803   1.353  1.1363 -0.5946  0.2421
   38MOL   H82935683   1.015   1.816   1.454  0.7265 -2.3399  0.9444
   38MOL   H83035684   1.237   2.043   1.418  0.4468  0.1876  2.4731
   38MOL   H83135685   1.081   2.050   1.502 -0.5493 -2.8617  1.5892
   38MOL   H83235686   1.126   2.136   1.251 -0.2826 -0.4649  0.7517
   38MOL   H83335687   1.119   1.966   1.218  1.3030 -1.5771  0.6335
   38MOL   H83435688   0.894   1.947   1.301  1.1057  0.5899 -0.5935
   38MOL   H83535689   0.896   2.114   1.358 -1.8770  0.6231 -0.8346
   38MOL   H83635690   0.922   2.169   1.114 -1.1189  0.1334 -2.3740
   38MOL   H83735691   0.936   2.005   1.073 -1.2182 -1.5368  1.4417
   38MOL   H83835692   0.706   2.081   1.024 -0.9892 -0.8136  0.4505
   38MOL   H83935693   0.701   1.963   1.160  0.5818 -0.1895 -0.4815
   38MOL   H84035694   0.692   2.265   1.188 -4.0767  1.8938 -0.2180
   38MOL   H84135695   0.678   2.144   1.316  3.4202  0.9863 -0.8791
   38MOL   H84235696   0.479   2.156   1.080 -3.2648 -2.3858  0.0829
   38MOL   H84335697   0.457   2.244   1.233  1.4313 -0.4794  1.4280
   38MOL   H84435698   0.146   1.798   1.137  2.0897  2.9724 -0.9706
   38MOL   H84535699   0.104   1.594   1.255 -0.0979  1.0274  0.2461
   38MOL   H84635700   0.402   1.679   1.543  0.3788  0.4854 -0.5595
   38MOL   H84735701   0.458   1.892   1.418  0.8217 -1.1265 -0.6525
   38MOL   O84835702   0.228   1.381   1.692  0.0014  0.0324  0.5482
   38MOL   C84935703   0.309   1.265   1.655 -0.4652  0.2154  0.0096
   38MOL   C85035704   0.306   1.174   1.780  0.1485 -0.3728 -0.1106
   38MOL   C85135705   0.374   1.036   1.760 -0.4263  0.7929  0.3428
   38MOL   C85235706   0.383   0.934   1.875  0.2798 -0.6112  0.0149
   38MOL   C85335707   0.500   0.832   1.860 -0.2244  0.0451  0.3220
   38MOL   C85435708   0.535   0.748   1.982  0.1055 -0.0103 -0.2686
   38MOL   C85535709   0.674   0.677   1.979  0.0583  0.5760 -0.2358
   38MOL   C85635710   0.705   0.589   2.094  0.2326  0.3274 -0.5288
   38MOL   C85735711   0.841   0.514   2.076 -0.6232 -0.3594  0.7846
   38MOL   C85835712   0.878   0.431   2.194  0.3382  0.6695  0.4359
   38MOL   O85935713   0.779   0.339   2.218  0.1517 -0.3012 -0.1340
   38MOL   C86035714   0.773   0.260   2.326  0.4036 -0.4802  0.5465
   38MOL   O86135715   0.865   0.257   2.404 -0.7520  0.0645 -0.2590
   38MOL   C86235716   0.645   0.184   2.342  0.3312  0.1327 -0.3673
   38MOL   C86335717   0.539   0.185   2.246  0.3469 -0.0908  0.0898
   38MOL   C86435718   0.426   0.107   2.270  0.6704 -0.2820  0.2699
   38MOL   C86535719   0.411   0.033   2.389  0.5047  0.2160 -0.2628
   38MOL   C86635720   0.292   7.916   2.409 -0.8071  0.1120 -0.6078
   38MOL   O86735721   0.200   7.912   2.323  0.2929  0.7349 -0.6930
   38MOL   O86835722   0.297   7.851   2.522  0.6725 -0.4768  0.1810
   38MOL   C86935723   0.509   0.042   2.482  0.3335 -0.4989  0.4029
   38MOL   C87035724   0.626   0.108   2.457 -0.5321 -0.3172 -0.4415
   38MOL   H87135725   0.282   1.219   1.560  1.4552 -2.0951  0.5368
   38MOL   H87235726   0.414   1.292   1.642 -0.2643 -0.3101  0.4962
   38MOL   H87335727   0.205   1.155   1.817 -0.2700 -0.0725 -1.0866
   38MOL   H87435728   0.356   1.235   1.855  0.9025 -2.4692  1.1242
   38MOL   H87535729   0.330   0.981   1.677 -1.3418  1.2004  0.5630
   38MOL   H87635730   0.476   1.058   1.730  0.3110 -1.0972  1.3103
   38MOL   H87735731   0.297   0.869   1.887 -0.7284  0.5911 -0.5302
   38MOL   H87835732   0.390   0.983   1.973 -1.6891 -1.1913  0.4620
   38MOL   H87935733   0.481   0.768   1.774  1.9093  0.7548 -0.7194
   38MOL   H88035734   0.586   0.897   1.840  0.7984 -1.7304 -1.1971
   38MOL   H88135735   0.534   0.803   2.076  2.0143  0.0383 -0.2537
   38MOL   H88235736   0.455   0.674   1.980 -2.3754  2.5696  1.1648
   38MOL   H88335737   0.672   0.618   1.888 -1.3832 -0.3407  0.3642
   38MOL   H88435738   0.753   0.751   1.966  0.1999  0.2219 -1.4340
   38MOL   H88535739   0.717   0.644   2.187 -0.2978 -0.7965  0.2182
   38MOL   H88635740   0.623   0.518   2.107  1.0082 -0.5924 -0.6116
   38MOL   H88735741   0.919   0.588   2.063 -1.6860  1.0797  2.3993
   38MOL   H88835742   0.831   0.446   1.991  3.5240 -1.3608  0.9935
   38MOL   H88935743   0.888   0.490   2.285 -0.6288  1.1775  0.2108
   38MOL   H89035744   0.975   0.380   2.190 -0.0156  0.0981 -1.5037
   38MOL   H89135745   0.552   0.252   2.161  1.0966 -1.6644 -1.0601
   38MOL   H89235746   0.354   0.104   2.190  0.3363 -0.1619  0.5633
   38MOL   H89335747   0.501   7.955   2.568  1.5897  0.1118  0.9943
   38MOL   H89435748   0.697   0.116   2.539 -0.3666  0.8877 -0.6942
   38MOL   O89535749   0.184   7.761   2.539 -0.2555  0.4015 -0.1179
   38MOL   C89635750   0.235   7.632   2.552  0.1119  0.2316 -0.1390
   38MOL   C89735751   0.133   7.535   2.606  0.1416 -0.0033  0.0519
   38MOL   C89835752   0.194   7.396   2.643  0.0655 -0.2490  0.1797
   38MOL   C89935753   0.093   7.311   2.723 -0.5448 -0.5323 -0.6724
   38MOL   C90035754   0.153   7.189   2.790  0.9342  0.1985 -0.3419
   38MOL   C90135755   0.069   7.132   2.900  0.4997 -0.6234  0.1806
   38MOL   C90235756   0.149   7.013   2.960  0.3335 -0.1724  0.0220
   38MOL   C90335757   0.069   6.935   3.055  0.1329 -0.2001  0.1184
   38MOL   C90435758   0.155   6.833   3.132  0.1536  0.1183 -0.4138
   38MOL   C90535759   0.082   6.723   3.208 -0.5756  0.0856 -0.6668
   38MOL   O90635760   0.025   6.783   3.332  0.2662 -0.0370  0.1611
   38MOL   C90735761   7.890   6.721   3.384 -0.1856 -0.1739  0.0963
   38MOL   O90835762   7.824   6.639   3.327 -0.0677  0.0476  0.4802
   38MOL   C90935763   7.857   6.776   3.519  0.9459  0.1171  0.6020
   38MOL   C91035764   7.739   6.744   3.590  0.0679  0.6996  0.3589
   38MOL   C91135765   7.723   6.789   3.723 -0.3719 -0.3998 -0.2440
   38MOL   C91235766   7.814   6.883   3.778 -0.4450  0.0192  0.2950
   38MOL   C91335767   7.811   6.925   3.925  0.1627 -0.5313  0.2592
   38MOL   O91435768   7.706   6.919   3.989  0.2468  0.2276  0.2632
   38MOL   O91535769   7.924   6.960   3.982  0.2083 -0.3218 -0.2003
   38MOL   C91635770   7.930   6.922   3.699  0.3492 -0.0731 -0.0534
   38MOL   C91735771   7.945   6.867   3.572 -0.5348 -0.9720 -0.5790
   38MOL   H91835772   0.280   7.593   2.461  1.4685  1.5886 -0.0775
   38MOL   H91935773   0.311   7.632   2.631  1.0711 -0.8485 -1.0450
   38MOL   H92035774   0.046   7.524   2.542  1.0654  0.4897 -1.3299
   38MOL   H92135775   0.103   7.573   2.704  0.6605 -3.6350  1.6971
   38MOL   H92235776   0.221   7.348   2.549  1.4759  0.1478  0.3683
   38MOL   H92335777   0.285   7.406   2.704  1.0450 -0.3382 -1.2534
   38MOL   H92435778   0.004   7.281   2.668  1.1895 -2.7992 -2.3627
   38MOL   H92535779   0.049   7.371   2.803 -0.7034 -0.9006 -0.4842
   38MOL   H92635780   0.179   7.105   2.726 -0.3241 -0.1928 -0.3374
   38MOL   H92735781   0.248   7.223   2.831  1.3610 -0.8445 -0.4608
   38MOL   H92835782   0.053   7.210   2.975 -0.8043 -1.3823  0.7075
   38MOL   H92935783   7.949   7.099   2.867  0.7768 -1.1286 -0.1402
   38MOL   H93035784   0.201   6.952   2.887  2.2756  2.5311 -0.9325
   38MOL   H93135785   0.232   7.057   3.015  0.3214  0.6624 -0.6225
   38MOL   H93235786   0.024   6.994   3.135  0.6035  0.4645 -0.0959
   38MOL   H93335787   7.974   6.877   3.000 -0.0604 -0.1754  0.3475
   38MOL   H93435788   0.218   6.892   3.198  0.0931 -1.1536  0.8014
   38MOL   H93535789   0.226   6.781   3.067  0.6258  0.7726 -0.4234
   38MOL   H93635790   0.146   6.643   3.244  0.2131  0.4699 -1.1899
   38MOL   H93735791   0.005   6.680   3.144 -0.7099 -1.9587  0.8347
   38MOL   H93835792   7.658   6.686   3.547  0.4174  0.3954  0.1127
   38MOL   H93935793   7.633   6.762   3.776 -0.3293 -0.6391 -0.2956
   38MOL   H94035794   0.020   6.996   3.737  0.3885  0.8424 -1.8443
   38MOL   H94135795   0.057   6.902   3.523 -0.4107 -1.7754 -0.9296
   38MOL   H94235796   7.921   6.949   4.075  0.9223 -1.2069 -0.2711
   39MOL     O135797   7.462   1.895   4.095 -0.0432  0.0415  0.1886
   39MOL     C235798   7.524   1.914   4.220  0.3107  0.0456  0.3818
   39MOL     C335799   7.598   2.048   4.231  0.8737 -0.3706 -0.8131
   39MOL     C435800   7.734   2.030   4.304  0.0001  0.0295 -0.1120
   39MOL     C535801   7.809   2.164   4.340  0.1449  0.2317  0.2678
   39MOL     C635802   7.837   2.262   4.228  0.3875 -0.8813  0.4024
   39MOL     C735803   7.886   2.399   4.268  0.0795  0.5174  0.3429
   39MOL     C835804   7.774   2.507   4.281 -0.4729  0.3380  0.2522
   39MOL     C935805   7.813   2.654   4.316 -0.0540  0.1895  1.0259
   39MOL    C1035806   7.872   2.663   4.460  1.8797  0.4361  0.4705
   39MOL    C1135807   7.859   2.804   4.512  0.2775  0.0109  0.0320
   39MOL    O1235808   7.731   2.857   4.521 -0.4376  0.7590 -0.1167
   39MOL    C1335809   7.723   2.994   4.537 -0.1230 -0.0162  0.2451
   39MOL    O1435810   7.815   3.079   4.549  0.3296 -0.1788  0.3013
   39MOL    C1535811   7.581   3.036   4.553  0.1387 -0.1203 -0.5266
   39MOL    C1635812   7.554   3.162   4.614  0.4312 -0.3806  0.6323
   39MOL    C1735813   7.416   3.200   4.641 -0.2696  0.3827  0.1428
   39MOL    C1835814   7.312   3.107   4.617 -0.4642  0.7066  0.0641
   39MOL    C1935815   7.170   3.140   4.650 -0.0351  0.2401 -0.3596
   39MOL    O2035816   7.071   3.068   4.621  0.4185  0.6390 -0.1404
   39MOL    O2135817   7.163   3.260   4.728  0.5196  0.5744 -0.1972
   39MOL    C2235818   7.339   2.983   4.566  0.6203  0.1925  0.5735
   39MOL    C2335819   7.474   2.949   4.539 -0.4234 -0.1326  0.2129
   39MOL    H2435820   7.473   1.877   4.309 -1.2049  2.2803  0.4660
   39MOL    H2535821   7.598   1.834   4.211  0.3014 -0.1476  1.9131
   39MOL    H2635822   7.540   2.121   4.289  1.2482 -0.0256 -0.8641
   39MOL    H2735823   7.601   2.093   4.132 -0.0479  1.9328  0.1555
   39MOL    H2835824   7.724   1.970   4.395  2.7202 -0.6457 -0.2125
   39MOL    H2935825   7.794   1.965   4.240  1.7689  0.9037  0.6530
   39MOL    H3035826   7.907   2.158   4.387 -0.5417  1.4607  1.9110
   39MOL    H3135827   7.746   2.210   4.416  0.7027  0.2723  0.7016
   39MOL    H3235828   7.914   2.227   4.159 -0.3101 -0.0356 -0.8152
   39MOL    H3335829   7.752   2.256   4.160  1.1294 -0.6074 -0.5554
   39MOL    H3435830   7.954   2.399   4.354  1.1971  1.4446 -0.5324
   39MOL    H3535831   7.948   2.424   4.182 -0.0165 -0.5547 -0.0514
   39MOL    H3635832   7.730   2.508   4.182  0.9333 -0.7170 -0.3946
   39MOL    H3735833   7.693   2.470   4.343 -1.6557  0.5905 -1.1172
   39MOL    H3835834   7.869   2.716   4.247 -0.9020 -1.0790 -0.8509
   39MOL    H3935835   7.720   2.710   4.307 -1.1396 -1.5535  0.9869
   39MOL    H4035836   7.976   2.633   4.448  2.1029  0.9927  0.9818
   39MOL    H4135837   7.827   2.591   4.528 -0.0509  1.3323  0.1877
   39MOL    H4235838   7.916   2.867   4.444  0.1885  1.3924  1.2132
   39MOL    H4335839   7.901   2.801   4.613 -0.7411 -0.3688  0.4480
   39MOL    H4435840   7.634   3.235   4.628  0.7598 -0.5728 -0.2185
   39MOL    H4535841   7.410   3.296   4.691 -2.3118 -0.1785  1.0230
   39MOL    H4635842   7.255   2.917   4.552 -2.3234  3.3399  2.5245
   39MOL    H4735843   7.491   2.848   4.506  0.0099  0.7502 -2.3633
   39MOL    H4835844   7.529   1.889   4.028 -0.1129  1.2838  0.0017
   39MOL    O4935845   7.027   3.280   4.792 -0.0914 -0.2164  0.2815
   39MOL    C5035846   6.951   3.371   4.703  0.6169  0.6712  0.5908
   39MOL    C5135847   6.831   3.424   4.780  0.5682  0.7996 -0.3174
   39MOL    C5235848   6.849   3.486   4.918 -0.0375 -0.6472  0.7275
   39MOL    C5335849   6.720   3.549   4.970  0.2999 -0.8174 -0.3658
   39MOL    C5435850   6.662   3.679   4.906 -0.5633  0.3967 -0.7976
   39MOL    C5535851   6.746   3.807   4.929  0.3346  0.5083  0.7244
   39MOL    C5635852   6.696   3.928   4.848 -0.3615 -0.5272  0.2455
   39MOL    C5735853   6.787   4.056   4.871  0.3333 -0.2174 -0.4044
   39MOL    C5835854   6.748   4.177   4.779 -0.6256  0.4761  0.1226
   39MOL    C5935855   6.620   4.261   4.813 -0.6651  0.4652 -0.4922
   39MOL    O6035856   6.503   4.183   4.813 -0.5449 -0.3108 -0.0062
   39MOL    C6135857   6.442   4.166   4.692 -0.1768  0.0853 -0.2524
   39MOL    O6235858   6.463   4.236   4.594  0.0804 -0.0580 -0.1661
   39MOL    C6335859   6.342   4.054   4.690  0.0455  0.0272  1.0627
   39MOL    C6435860   6.317   3.969   4.801 -0.4192 -0.5045 -0.7843
   39MOL    C6535861   6.225   3.860   4.792 -0.0883  0.5335 -0.3561
   39MOL    C6635862   6.166   3.826   4.667 -0.2160 -0.7602  0.5586
   39MOL    C6735863   6.082   3.709   4.646  0.9710 -0.6505 -0.7132
   39MOL    O6835864   6.010   3.701   4.548 -0.4722 -0.2203 -0.1357
   39MOL    O6935865   6.093   3.622   4.743 -0.4243 -0.2750 -0.1299
   39MOL    C7035866   6.190   3.915   4.561  0.1746  0.2361  0.5421
   39MOL    C7135867   6.273   4.026   4.568  0.3527  0.7983 -0.0924
   39MOL    H7235868   7.006   3.464   4.687  0.6194  0.7122  0.8335
   39MOL    H7335869   6.931   3.321   4.608 -0.2729 -0.6726  1.4795
   39MOL    H7435870   6.752   3.349   4.782 -0.9398  2.3264 -1.6894
   39MOL    H7535871   6.784   3.506   4.726 -0.0755  1.9641  1.9165
   39MOL    H7635872   6.881   3.411   4.990  1.8236 -0.5150  0.0769
   39MOL    H7735873   6.916   3.572   4.907 -3.2857  1.9906  0.5757
   39MOL    H7835874   6.736   3.559   5.077 -0.2222  0.7138 -0.4247
   39MOL    H7935875   6.644   3.471   4.967 -2.0751  1.4638 -1.5975
   39MOL    H8035876   6.649   3.657   4.800  0.2762  1.4682 -1.1225
   39MOL    H8135877   6.562   3.689   4.949 -0.0956  2.3629 -0.1451
   39MOL    H8235878   6.740   3.837   5.033  0.8182  1.1393  0.5692
   39MOL    H8335879   6.854   3.796   4.917  0.1210  0.5390 -1.4140
   39MOL    H8435880   6.693   3.898   4.743 -0.3288 -2.7291  0.8565
   39MOL    H8535881   6.590   3.935   4.871 -0.8052 -0.9677 -1.5353
   39MOL    H8635882   6.779   4.087   4.975  0.7265 -4.0082  0.8537
   39MOL    H8735883   6.888   4.028   4.841  0.3257  0.7544 -1.3585
   39MOL    H8835884   6.755   4.151   4.674 -0.5012  0.4305  0.1413
   39MOL    H8935885   6.828   4.251   4.787 -0.4268  0.4173 -1.2558
   39MOL    H9035886   6.614   4.348   4.747  0.2920  0.6751 -0.3116
   39MOL    H9135887   6.623   4.300   4.915  1.6120 -3.5329  1.1020
   39MOL    H9235888   6.364   3.991   4.896  1.0311  0.8653 -1.7992
   39MOL    H9335889   6.209   3.799   4.880  1.2737  0.6395 -0.0151
   39MOL    H9435890   6.140   3.906   4.465  2.4285  0.6417 -0.6957
   39MOL    H9535891   6.287   4.085   4.479 -0.4745 -2.9179 -2.7986
   39MOL    O9635892   6.028   3.488   4.717  0.1022  0.1311  0.1972
   39MOL    C9735893   5.889   3.490   4.740  0.1705 -0.0374 -0.1134
   39MOL    C9835894   5.835   3.347   4.721 -0.1334  0.0787  0.0529
   39MOL    C9935895   5.888   3.240   4.811  0.2446 -0.1798 -0.3988
   39MOL   C10035896   5.839   3.101   4.762 -0.0276  0.3418  0.8789
   39MOL   C10135897   5.909   2.993   4.844 -0.2547  0.5641  0.2708
   39MOL   C10235898   6.058   2.977   4.810 -0.7038  0.6091 -0.3347
   39MOL   C10335899   6.135   2.858   4.870  0.7979  0.1792  0.4674
   39MOL   C10435900   6.107   2.723   4.805  0.4050 -0.1714 -0.1345
   39MOL   C10535901   6.169   2.603   4.879  0.4160 -0.2842  0.1132
   39MOL   C10635902   6.110   2.469   4.828  0.0627 -0.1900  0.1318
   39MOL   O10735903   6.163   2.450   4.690 -0.1080 -0.0237  0.0974
   39MOL   C10835904   6.164   2.330   4.628  1.3913 -0.6631 -0.0072
   39MOL   O10935905   6.101   2.229   4.670  0.2858 -0.1140  0.0178
   39MOL   C11035906   6.232   2.335   4.495 -0.3882  0.1068 -0.5031
   39MOL   C11135907   6.291   2.450   4.431  0.1141 -0.0533  0.1754
   39MOL   C11235908   6.351   2.448   4.304 -0.2268 -0.4527 -0.3416
   39MOL   C11335909   6.356   2.331   4.239  0.3709  0.3036  0.3886
   39MOL   C11435910   6.414   2.329   4.098 -0.4572  0.2275  0.1411
   39MOL   O11535911   6.419   2.226   4.036 -0.3346 -0.3298  0.2154
   39MOL   O11635912   6.461   2.453   4.061 -0.1318 -0.2190 -0.9705
   39MOL   C11735913   6.299   2.214   4.292 -0.0310  0.1086 -0.8665
   39MOL   C11835914   6.241   2.215   4.417 -0.8150  0.3092 -0.3963
   39MOL   H11935915   5.873   3.523   4.842  0.5268 -0.7892  0.1850
   39MOL   H12035916   5.838   3.561   4.673 -1.3029 -1.1729 -0.2282
   39MOL   H12135917   5.848   3.312   4.619  1.7999  0.1267  0.2677
   39MOL   H12235918   5.730   3.354   4.751 -0.2259  0.1785 -0.2932
   39MOL   H12335919   5.996   3.239   4.799  0.5380 -1.1540  1.9405
   39MOL   H12435920   5.858   3.256   4.915 -1.4254 -0.1674 -0.8667
   39MOL   H12535921   5.873   3.092   4.659 -1.7070 -1.4976  0.4722
   39MOL   H12635922   5.730   3.098   4.766 -0.0631 -1.6552 -0.5411
   39MOL   H12735923   5.896   2.997   4.952 -0.1377 -1.1995  0.3683
   39MOL   H12835924   5.863   2.895   4.828  3.2861 -1.0599 -0.3311
   39MOL   H12935925   6.081   2.983   4.704  1.6724  0.8715  0.1587
   39MOL   H13035926   6.107   3.058   4.865 -1.3442  0.3402  0.6553
   39MOL   H13135927   6.242   2.874   4.861  0.8169 -0.0658  0.2594
   39MOL   H13235928   6.128   2.845   4.978  0.6573 -0.1282  0.4214
   39MOL   H13335929   6.000   2.702   4.806  0.7481 -2.1275 -0.7801
   39MOL   H13435930   6.135   2.727   4.700 -0.5995  3.9542 -0.3056
   39MOL   H13535931   6.141   2.605   4.984  0.7164 -1.6130  0.2254
   39MOL   H13635932   6.278   2.601   4.883  0.4465 -0.9600 -1.0578
   39MOL   H13735933   6.001   2.476   4.818  0.1018 -3.1796 -3.5935
   39MOL   H13835934   6.145   2.389   4.892 -0.9749 -0.9911 -0.2790
   39MOL   H13935935   6.300   2.538   4.492 -1.2457  0.2815 -0.0835
   39MOL   H14035936   6.392   2.542   4.270 -0.7246 -0.5379 -1.1713
   39MOL   H14135937   6.296   2.120   4.238 -1.2009 -0.2954 -0.1133
   39MOL   H14235938   6.201   2.125   4.461  1.3825 -0.7077 -0.4047
   39MOL   O14335939   6.549   2.450   3.941  0.4667  0.4615  0.5319
   39MOL   C14435940   6.473   2.495   3.827  0.5880 -0.1164  0.3017
   39MOL   C14535941   6.565   2.489   3.702  0.7699  0.3776 -0.7140
   39MOL   C14635942   6.644   2.359   3.684  0.1500  0.1313  0.4302
   39MOL   C14735943   6.718   2.361   3.558  0.0977  0.6441 -0.3162
   39MOL   C14835944   6.810   2.243   3.553  0.4395  0.1404  0.8641
   39MOL   C14935945   6.898   2.245   3.421  0.3063 -0.1864 -0.0098
   39MOL   C15035946   6.987   2.126   3.418  0.1131  0.0306  0.0983
   39MOL   C15135947   7.100   2.129   3.312  0.0310 -0.4955  0.2721
   39MOL   C15235948   7.215   2.232   3.346 -0.4491 -0.0330 -0.4118
   39MOL   C15335949   7.323   2.251   3.236  0.2124 -0.3785 -0.4574
   39MOL   O15435950   7.260   2.271   3.112  0.3843  1.0118  0.3807
   39MOL   C15535951   7.335   2.326   3.010  0.0017  0.2902  0.1424
   39MOL   O15635952   7.450   2.373   3.040  0.6095  0.0416  0.1848
   39MOL   C15735953   7.282   2.297   2.879  0.5465  1.0216 -0.7880
   39MOL   C15835954   7.178   2.207   2.858  0.1739  0.1915  0.5125
   39MOL   C15935955   7.129   2.185   2.726  0.1726 -0.8043 -0.3282
   39MOL   C16035956   7.177   2.260   2.616 -0.3807  0.2218 -0.2061
   39MOL   C16135957   7.122   2.249   2.477 -0.5703 -0.0071 -0.1828
   39MOL   O16235958   7.029   2.176   2.459  0.0548 -0.2394  0.2533
   39MOL   O16335959   7.172   2.331   2.379  0.1568 -0.0832 -0.0875
   39MOL   C16435960   7.269   2.363   2.642  0.1303 -0.2421 -0.9037
   39MOL   C16535961   7.322   2.384   2.772  0.1061 -0.1887 -0.2946
   39MOL   H16635962   6.395   2.420   3.813 -0.1738  0.9559 -1.4454
   39MOL   H16735963   6.423   2.592   3.835 -0.5021 -0.6559  0.1268
   39MOL   H16835964   6.633   2.574   3.700  0.8000  0.3705  0.0156
   39MOL   H16935965   6.509   2.503   3.609  0.0108 -1.9208 -0.6204
   39MOL   H17035966   6.716   2.347   3.765 -0.7916 -2.6279  0.8986
   39MOL   H17135967   6.579   2.273   3.701  0.4424  0.2259  2.1747
   39MOL   H17235968   6.765   2.459   3.552 -1.0562  1.2262 -0.0904
   39MOL   H17335969   6.654   2.350   3.470 -0.0766 -2.0470  0.1187
   39MOL   H17435970   6.875   2.231   3.640 -1.0527  0.4301  2.0288
   39MOL   H17535971   6.757   2.148   3.549 -0.0133  0.4608 -2.4399
   39MOL   H17635972   6.829   2.246   3.336  2.6093 -1.8393 -1.9811
   39MOL   H17735973   6.954   2.339   3.421  0.6749 -0.3899 -1.3887
   39MOL   H17835974   7.032   2.107   3.515  0.5145 -0.4548 -0.1802
   39MOL   H17935975   6.929   2.035   3.404  1.5127 -0.5841 -2.1091
   39MOL   H18035976   7.137   2.027   3.303  0.0861 -0.4024 -0.6567
   39MOL   H18135977   7.053   2.144   3.215 -2.9411  3.4676  2.1835
   39MOL   H18235978   7.255   2.231   3.447  0.1040 -1.0310 -0.6344
   39MOL   H18335979   7.172   2.332   3.348 -0.3072  0.0046  2.3305
   39MOL   H18435980   7.389   2.164   3.229  0.8028 -0.0072  0.3630
   39MOL   H18535981   7.380   2.342   3.255  1.3908 -0.8069 -1.7621
   39MOL   H18635982   7.135   2.160   2.945 -0.3171  1.1323  0.7766
   39MOL   H18735983   7.047   2.116   2.712  0.6280 -1.2536 -0.8299
   39MOL   H18835984   7.296   2.438   2.569  2.3193 -1.0309 -0.9600
   39MOL   H18935985   7.393   2.462   2.794 -0.4372 -0.0356  0.9634
   39MOL   O19035986   7.095   2.307   2.254  0.6290  0.2042  0.1853
   39MOL   C19135987   7.006   2.418   2.229  0.9452  0.3889 -0.4237
   39MOL   C19235988   6.933   2.387   2.088 -0.0672 -0.2618 -0.8385
   39MOL   C19335989   6.844   2.501   2.036  0.0913 -0.5654 -0.1373
   39MOL   C19435990   6.732   2.452   1.940 -0.0326  0.4049  0.3959
   39MOL   C19535991   6.783   2.401   1.803 -0.4648 -0.0439 -0.4476
   39MOL   C19635992   6.838   2.508   1.711 -0.5539 -0.0917  0.3290
   39MOL   C19735993   6.748   2.623   1.676 -0.0442 -0.0281  0.3457
   39MOL   C19835994   6.807   2.720   1.580 -0.0274 -0.2205 -0.5994
   39MOL   C19935995   6.820   2.672   1.436  0.5990 -0.7962 -0.2550
   39MOL   C20035996   6.879   2.784   1.351  0.7662  0.5948 -0.7151
   39MOL   O20135997   6.776   2.882   1.349 -0.3263 -0.2725 -0.5983
   39MOL   C20235998   6.803   3.008   1.302  0.1967  0.5317 -0.3593
   39MOL   O20335999   6.916   3.051   1.267  0.6758  0.0500  0.5133
   39MOL   C20436000   6.690   3.099   1.317  0.2737  0.5843 -0.3524
   39MOL   C20536001   6.572   3.055   1.372 -0.2371 -0.0572  0.1444
   39MOL   C20636002   6.460   3.136   1.383 -0.1351  0.1465 -0.3927
   39MOL   C20736003   6.458   3.270   1.342  0.2680  0.2061  0.5052
   39MOL   C20836004   6.353   3.362   1.388  0.3219 -0.2802 -0.0628
   39MOL   O20936005   6.358   3.485   1.367  0.5217 -0.0761  0.1127
   39MOL   O21036006   6.257   3.296   1.455 -0.4267 -0.3696 -0.6127
   39MOL   C21136007   6.579   3.320   1.290  0.3193 -0.0050 -0.4340
   39MOL   C21236008   6.694   3.234   1.279  0.3917 -0.4905  0.9317
   39MOL   H21336009   6.934   2.443   2.307  1.9592  2.2134 -0.0370
   39MOL   H21436010   7.082   2.496   2.219  0.3580  1.1648  1.0768
   39MOL   H21536011   6.871   2.298   2.102  2.3149 -2.0093 -0.9643
   39MOL   H21636012   7.005   2.358   2.011  0.8054 -2.3665  0.7063
   39MOL   H21736013   6.799   2.566   2.111  0.9717  1.9631 -1.7399
   39MOL   H21836014   6.923   2.568   2.003 -0.4351 -0.8731 -2.1206
   39MOL   H21936015   6.661   2.532   1.920 -2.2130 -1.6762 -0.4601
   39MOL   H22036016   6.683   2.373   1.997  1.4820 -0.0822  1.0670
   39MOL   H22136017   6.856   2.321   1.821  0.0489  0.1291 -1.7216
   39MOL   H22236018   6.696   2.354   1.757  1.4353 -1.1451 -3.0576
   39MOL   H22336019   6.923   2.559   1.756 -0.1636 -1.4054  1.1019
   39MOL   H22436020   6.878   2.466   1.619 -2.2527 -1.5994  0.2496
   39MOL   H22536021   6.664   2.589   1.615  0.0412  1.8400 -0.8665
   39MOL   H22636022   6.711   2.672   1.766  0.1295 -0.1701  0.4939
   39MOL   H22736023   6.750   2.813   1.583  1.1686  0.4580  1.5189
   39MOL   H22836024   6.905   2.759   1.608 -0.6369  0.2380  0.9759
   39MOL   H22936025   6.726   2.640   1.389 -0.7413  0.7457  1.3243
   39MOL   H23036026   6.875   2.578   1.426  3.0059  0.7245 -1.6252
   39MOL   H23136027   6.906   2.753   1.250 -1.0957  0.6117 -1.2526
   39MOL   H23236028   6.973   2.807   1.401  1.3222  1.1565 -2.0015
   39MOL   H23336029   6.561   2.950   1.396  2.4998 -0.6206 -0.9014
   39MOL   H23436030   6.365   3.098   1.419 -0.8219  1.9683 -0.2129
   39MOL   H23536031   6.599   3.424   1.270  1.4955 -0.0944  0.2672
   39MOL   H23636032   6.788   3.281   1.255  0.0856  0.8172  2.1983
   39MOL   O23736033   6.132   3.379   1.483 -0.2222  0.1635  0.3856
   39MOL   C23836034   6.132   3.419   1.614 -0.3125  0.0495 -0.1889
   39MOL   C23936035   6.004   3.480   1.659  0.2239 -0.1493  0.0960
   39MOL   C24036036   5.892   3.373   1.664  0.4657  0.2149  0.2147
   39MOL   C24136037   5.770   3.434   1.733  0.0479  0.5549  1.5843
   39MOL   C24236038   5.645   3.348   1.718  0.6479  0.7700 -0.4981
   39MOL   C24336039   5.566   3.334   1.852  0.4963  0.5442 -0.0876
   39MOL   C24436040   5.463   3.215   1.851  0.4973 -0.0023 -0.6811
   39MOL   C24536041   5.393   3.195   1.988 -0.4986  0.4647  0.0551
   39MOL   C24636042   5.304   3.068   1.995 -0.0038  0.0246  0.2346
   39MOL   C24736043   5.254   3.049   2.138  0.0171 -0.6138 -0.2695
   39MOL   O24836044   5.148   3.137   2.161 -0.1743 -0.2284 -0.5364
   39MOL   C24936045   5.164   3.237   2.249 -0.2489  0.1234 -0.0372
   39MOL   O25036046   5.272   3.271   2.300  0.5111  0.1864  0.2761
   39MOL   C25136047   5.034   3.305   2.277  0.4133 -0.0901  0.1269
   39MOL   C25236048   4.918   3.275   2.200  0.5065 -0.3863 -0.6569
   39MOL   C25336049   4.796   3.347   2.217 -0.4202  1.1620 -0.1292
   39MOL   C25436050   4.783   3.444   2.318 -0.2554 -0.3064 -0.0821
   39MOL   C25536051   4.651   3.516   2.335 -0.6598 -0.3443 -0.3041
   39MOL   O25636052   4.549   3.477   2.275 -0.1803  0.2095  0.9495
   39MOL   O25736053   4.652   3.621   2.419  0.1891 -0.5566 -0.3539
   39MOL   C25836054   4.892   3.473   2.404  0.1966 -0.5788  0.1346
   39MOL   C25936055   5.018   3.409   2.378 -0.1328 -0.0886  0.0146
   39MOL   H26036056   6.153   3.337   1.683 -1.4264  0.4887  0.6892
   39MOL   H26136057   6.218   3.485   1.630  0.3966  0.1213 -3.9581
   39MOL   H26236058   5.984   3.553   1.581 -1.5481 -0.6408  0.0525
   39MOL   H26336059   6.024   3.520   1.758  0.6189  0.1029 -0.0881
   39MOL   H26436060   5.864   3.352   1.561 -1.0496 -0.1598  0.6972
   39MOL   H26536061   5.904   3.274   1.708  0.7356  0.3743  0.5037
   39MOL   H26636062   5.744   3.532   1.694  2.0675  0.6891  0.5014
   39MOL   H26736063   5.798   3.448   1.837  0.7728 -1.3990  1.6788
   39MOL   H26836064   5.585   3.369   1.630 -0.2802 -0.8360 -0.2780
   39MOL   H26936065   5.689   3.250   1.696  2.3624  0.8980  2.0839
   39MOL   H27036066   5.628   3.322   1.940 -1.3021  0.7833  1.2249
   39MOL   H27136067   5.517   3.428   1.876 -0.9277  0.6361 -3.0551
   39MOL   H27236068   5.388   3.197   1.773 -0.8194 -0.6434  0.7092
   39MOL   H27336069   5.516   3.120   1.836 -0.6726 -0.7013 -0.4513
   39MOL   H27436070   5.478   3.187   2.056 -1.9169  0.9876  1.9304
   39MOL   H27536071   5.332   3.280   2.019  0.0091  0.7350  0.3044
   39MOL   H27636072   5.375   2.989   1.968  1.3115  0.6458  1.7609
   39MOL   H27736073   5.222   3.057   1.924  0.7124  0.4580 -0.6728
   39MOL   H27836074   5.331   3.042   2.214 -0.8580  0.5032  0.7469
   39MOL   H27936075   5.216   2.947   2.139  1.7485 -1.2707 -0.1124
   39MOL   H28036076   4.928   3.207   2.117  1.7448  0.7223 -1.4415
   39MOL   H28136077   4.710   3.324   2.157 -0.6768  1.1184  0.2592
   39MOL   H28236078   4.891   3.543   2.486 -1.6001 -0.7631  0.2829
   39MOL   H28336079   5.093   3.437   2.451 -0.6855 -0.8265  0.8686
   39MOL   O28436080   4.531   3.711   2.417 -0.5617 -0.3131  0.4519
   39MOL   C28536081   4.586   3.836   2.414  0.2964 -0.4379  0.3540
   39MOL   C28636082   4.464   3.924   2.462  0.0393 -0.5298 -0.7189
   39MOL   C28736083   4.354   3.939   2.356  0.2206  0.0312  0.1263
   39MOL   C28836084   4.402   3.994   2.218 -0.6337 -0.2542 -0.0983
   39MOL   C28936085   4.508   4.114   2.206 -0.2602  0.6566  0.1976
   39MOL   C29036086   4.456   4.250   2.261 -0.2486  0.5248  0.4975
   39MOL   C29136087   4.555   4.366   2.265  0.3147 -0.5904  0.1482
   39MOL   C29236088   4.490   4.501   2.296  0.6969  0.4546  0.1910
   39MOL   C29336089   4.587   4.617   2.318  0.4874  0.5414 -0.4201
   39MOL   C29436090   4.518   4.739   2.382  0.5495  0.4735 -0.5686
   39MOL   O29536091   4.605   4.857   2.397  0.6644 -0.2833  0.1843
   39MOL   C29636092   4.628   4.947   2.297 -0.1973 -0.1365 -0.6678
   39MOL   O29736093   4.599   4.917   2.179  0.2892 -0.0595 -0.2256
   39MOL   C29836094   4.701   5.070   2.337  0.3170  0.0986  0.0034
   39MOL   C29936095   4.727   5.108   2.468  0.1731  0.4266 -0.1973
   39MOL   C30036096   4.816   5.207   2.506 -0.3229 -0.1169  0.3308
   39MOL   C30136097   4.872   5.292   2.408  0.5888 -0.2309 -0.4171
   39MOL   C30236098   4.961   5.394   2.454 -0.2400 -0.5485  0.4555
   39MOL   O30336099   5.005   5.406   2.570  0.4289  0.1250 -0.0605
   39MOL   O30436100   4.972   5.499   2.364  1.1373 -0.0406 -0.3346
   39MOL   C30536101   4.830   5.270   2.273  0.5619 -0.2142 -0.0184
   39MOL   C30636102   4.755   5.154   2.239 -0.0887  0.8658  0.6092
   39MOL   H30736103   4.666   3.842   2.487  0.4490  0.0691  0.1407
   39MOL   H30836104   4.632   3.856   2.318  2.3962 -1.5604  1.0953
   39MOL   H30936105   4.504   4.024   2.477  0.8481 -1.1500  1.4283
   39MOL   H31036106   4.437   3.886   2.561  0.3387  1.5577  0.1861
   39MOL   H31136107   4.293   3.849   2.356  1.1684 -0.6339 -1.4346
   39MOL   H31236108   4.288   4.020   2.388 -1.6290 -1.4655  0.1272
   39MOL   H31336109   4.317   4.032   2.162 -0.0507 -1.9458 -2.1828
   39MOL   H31436110   4.430   3.912   2.151  0.8964  0.6788 -0.6259
   39MOL   H31536111   4.602   4.097   2.259 -0.5182  0.0133  0.4637
   39MOL   H31636112   4.541   4.129   2.103 -0.1194  1.2014  0.3191
   39MOL   H31736113   4.360   4.271   2.212 -0.2534 -1.4450 -0.3806
   39MOL   H31836114   4.416   4.227   2.360  2.4866 -0.7078  1.3502
   39MOL   H31936115   4.630   4.338   2.339 -0.3138  2.0527  1.8663
   39MOL   H32036116   4.615   4.378   2.175 -1.6239 -0.2848 -1.1328
   39MOL   H32136117   4.426   4.535   2.215  1.6848  2.0838  0.0650
   39MOL   H32236118   4.437   4.480   2.389 -0.4892 -0.9502 -0.7847
   39MOL   H32336119   4.621   4.647   2.218  0.4726  0.6521 -0.3927
   39MOL   H32436120   4.673   4.583   2.377 -0.5591  1.0473  1.4311
   39MOL   H32536121   4.468   4.712   2.474 -1.4049  1.3945 -1.3332
   39MOL   H32636122   4.435   4.762   2.315 -0.7107 -1.0667  0.4333
   39MOL   H32736123   4.689   5.041   2.543 -0.0948  1.4022  0.5492
   39MOL   H32836124   4.852   5.220   2.608 -1.7440  0.8116  0.7213
   39MOL   H32936125   4.856   5.338   2.193 -0.6482  2.8192  2.0431
   39MOL   H33036126   4.735   5.131   2.136 -2.6493  1.0653  1.0337
   39MOL   O33136127   5.073   5.603   2.413 -0.5522  0.2439  0.2775
   39MOL   C33236128   5.191   5.589   2.322  0.2558  0.0394  0.8283
   39MOL   C33336129   5.157   5.605   2.175 -0.2299 -0.4417 -0.3279
   39MOL   C33436130   5.272   5.604   2.075 -0.0731  0.9315 -0.5170
   39MOL   C33536131   5.226   5.553   1.938  0.3169 -0.0578  0.0421
   39MOL   C33636132   5.345   5.497   1.861  0.3175  0.2398 -0.2591
   39MOL   C33736133   5.455   5.606   1.837  0.4073 -0.1535  0.1322
   39MOL   C33836134   5.564   5.556   1.745  0.0374 -0.0377  0.0189
   39MOL   C33936135   5.679   5.484   1.822  0.5822  0.6623 -0.7367
   39MOL   C34036136   5.797   5.431   1.738 -0.7242 -0.0044 -0.0805
   39MOL   C34136137   5.927   5.408   1.819  0.0202  0.7371  0.0084
   39MOL   O34236138   5.939   5.295   1.904  0.7263  0.0065  0.4970
   39MOL   C34336139   5.909   5.288   2.028  0.0351 -0.1303  0.2160
   39MOL   O34436140   5.863   5.384   2.092  0.3715  0.1072  0.0410
   39MOL   C34536141   5.936   5.160   2.093 -0.5940  0.4414 -0.3648
   39MOL   C34636142   5.988   5.048   2.017  0.0468 -0.0509  0.0990
   39MOL   C34736143   6.006   4.925   2.081 -0.0745 -0.0859 -0.3164
   39MOL   C34836144   5.963   4.912   2.216 -0.2374  0.5013 -0.4060
   39MOL   C34936145   5.955   4.771   2.274  0.8542  0.5558 -0.5650
   39MOL   O35036146   6.015   4.672   2.240 -0.0192  0.0260  0.0662
   39MOL   O35136147   5.884   4.770   2.386 -0.0781  0.2475 -0.1351
   39MOL   C35236148   5.913   5.021   2.290 -0.2741 -0.5976  0.4199
   39MOL   C35336149   5.907   5.153   2.229 -0.1861 -0.2228  0.1391
   39MOL   H35436150   5.256   5.666   2.363  0.3528  0.3145  0.1596
   39MOL   H35536151   5.243   5.493   2.334 -2.5932 -1.9686 -2.1251
   39MOL   H35636152   5.116   5.706   2.175  2.4348  0.6948 -1.1325
   39MOL   H35736153   5.079   5.535   2.144 -0.5998 -0.6165  0.9812
   39MOL   H35836154   5.281   5.709   2.046 -0.1917  0.3250 -2.8307
   39MOL   H35936155   5.376   5.586   2.105 -0.4988 -0.3859  0.2055
   39MOL   H36036156   5.173   5.628   1.878  0.8937  0.7887  0.5696
   39MOL   H36136157   5.153   5.473   1.941 -1.3009  1.4627  2.7640
   39MOL   H36236158   5.384   5.411   1.915  0.4025 -0.5309 -1.5355
   39MOL   H36336159   5.298   5.463   1.768  1.0191  0.9075 -0.8645
   39MOL   H36436160   5.415   5.700   1.800  0.6580  1.0627  2.8332
   39MOL   H36536161   5.507   5.634   1.929  2.1966 -2.4628 -0.1470
   39MOL   H36636162   5.513   5.487   1.678 -0.0901  0.2317 -0.1574
   39MOL   H36736163   5.597   5.637   1.680 -0.7421  0.7449  0.5869
   39MOL   H36836164   5.728   5.564   1.878 -0.1438  0.0760  0.7673
   39MOL   H36936165   5.636   5.415   1.895  1.6033 -2.3354 -2.8721
   39MOL   H37036166   5.810   5.490   1.647  2.0185  0.0838  0.3286
   39MOL   H37136167   5.774   5.337   1.689 -2.8725  0.4164  0.0609
   39MOL   H37236168   5.974   5.494   1.868  1.3473  0.5714 -0.9391
   39MOL   H37336169   5.994   5.388   1.736 -0.1004  2.0500 -0.4150
   39MOL   H37436170   6.020   5.059   1.915 -1.7595 -0.2689 -0.5096
   39MOL   H37536171   6.044   4.842   2.024 -0.3084 -0.3383 -0.1050
   39MOL   H37636172   5.868   5.014   2.388 -1.6625 -1.2609 -0.2505
   39MOL   H37736173   5.870   5.240   2.281  0.5420  1.7821 -2.6015
   39MOL   O37836174   5.885   4.636   2.452  0.0598  0.0370 -0.1019
   39MOL   C37936175   5.755   4.586   2.449 -0.3084  0.3379 -0.1974
   39MOL   C38036176   5.729   4.508   2.319 -0.4187  0.1250  0.1072
   39MOL   C38136177   5.603   4.419   2.312  0.2078  0.4599  0.0216
   39MOL   C38236178   5.599   4.331   2.188  0.2413  0.1488 -0.6226
   39MOL   C38336179   5.458   4.265   2.156 -0.1246 -0.2084  0.3003
   39MOL   C38436180   5.448   4.183   2.021 -0.1385  0.6055 -0.3431
   39MOL   C38536181   5.300   4.124   2.001 -0.3945 -0.6042 -0.9201
   39MOL   C38636182   5.295   4.056   1.870  0.6938 -0.6984  0.0087
   39MOL   C38736183   5.149   4.014   1.831  0.2538  0.1217 -0.2723
   39MOL   C38836184   5.137   3.937   1.700 -0.2275 -0.0660  0.1905
   39MOL   O38936185   5.184   3.995   1.580 -0.2087  0.6789  0.3993
   39MOL   C39036186   5.097   4.069   1.503  0.2597  0.1204 -0.5484
   39MOL   O39136187   4.976   4.076   1.529  0.0400  0.6241 -0.1699
   39MOL   C39236188   5.160   4.148   1.388  0.1381 -0.4095 -0.1523
   39MOL   C39336189   5.297   4.151   1.358  0.3915 -0.1631  0.2112
   39MOL   C39436190   5.352   4.226   1.251 -0.2950  0.3540  0.2363
   39MOL   C39536191   5.264   4.296   1.164  0.0971 -0.1913  0.0641
   39MOL   C39636192   5.315   4.378   1.047  0.5908  0.2373 -0.1133
   39MOL   O39736193   5.242   4.433   0.961  0.4189 -0.2049 -0.6917
   39MOL   O39836194   5.443   4.388   1.044  0.1151 -0.0847  0.3915
   39MOL   C39936195   5.126   4.299   1.198  0.1327 -0.4507 -0.1514
   39MOL   C40036196   5.074   4.226   1.308 -0.6864  0.5777  0.1179
   39MOL   H40136197   5.734   4.512   2.526 -1.2004  0.2269 -0.5424
   39MOL   H40236198   5.683   4.665   2.476 -0.5419  0.2756 -0.6359
   39MOL   H40336199   5.825   4.457   2.306 -0.2480  0.6960 -0.9216
   39MOL   H40436200   5.721   4.586   2.243 -0.9675 -1.0647 -1.0707
   39MOL   H40536201   5.603   4.358   2.403 -0.8683  1.8964  0.9959
   39MOL   H40636202   5.511   4.478   2.309 -0.0234  0.0840 -0.4281
   39MOL   H40736203   5.680   4.258   2.183 -0.6980 -0.9473 -0.0199
   39MOL   H40836204   5.614   4.404   2.108  0.4615 -0.6836 -1.3546
   39MOL   H40936205   5.440   4.188   2.230  2.9080 -0.3323  0.9600
   39MOL   H41036206   5.391   4.351   2.153  0.4567  0.2268 -3.3972
   39MOL   H41136207   5.478   4.238   1.932  1.8743 -1.4037 -0.9594
   39MOL   H41236208   5.524   4.105   2.025 -0.3159  0.3657 -1.4366
   39MOL   H41336209   5.281   4.053   2.081  2.2747 -0.2953  0.0411
   39MOL   H41436210   5.226   4.205   2.005 -0.7550 -0.6969 -4.3643
   39MOL   H41536211   5.329   4.119   1.789 -0.6658  2.3916  1.7576
   39MOL   H41636212   5.354   3.964   1.867  0.4100 -0.8961  0.3696
   39MOL   H41736213   5.073   4.092   1.835 -0.8218 -0.7044 -3.5883
   39MOL   H41836214   5.127   3.939   1.907  2.2939 -0.9993 -0.7402
   39MOL   H41936215   5.042   3.886   1.684 -0.7509  0.9592  0.0222
   39MOL   H42036216   5.194   3.844   1.704  2.2884  1.4822  1.0513
   39MOL   H42136217   5.356   4.088   1.423  0.0658 -1.4031 -0.6663
   39MOL   H42236218   5.458   4.214   1.231 -0.4926  0.3303 -0.8574
   39MOL   H42336219   5.062   4.372   1.149 -0.1075 -1.0169 -0.6993
   39MOL   H42436220   4.970   4.234   1.337 -0.7601  5.2006 -0.8994
   39MOL   O42536221   5.501   4.491   0.933  0.6718 -0.4339 -0.4384
   39MOL   C42636222   5.550   4.425   0.819 -0.6815  0.1498 -0.6676
   39MOL   C42736223   5.584   4.524   0.707 -0.3930  0.7132  0.2267
   39MOL   C42836224   5.589   4.442   0.575 -0.0797  0.1196  0.4096
   39MOL   C42936225   5.683   4.507   0.475 -0.1450 -0.4734  0.3091
   39MOL   C43036226   5.713   4.408   0.363 -1.0213 -0.3762 -0.3542
   39MOL   C43136227   5.797   4.462   0.245 -0.0396  0.6474 -0.0525
   39MOL   C43236228   5.866   4.346   0.171  0.3081  0.0435 -0.4045
   39MOL   C43336229   5.976   4.395   0.081  0.3277  0.1792  0.4139
   39MOL   C43436230   5.922   4.474   7.937  0.5571 -0.1849 -0.0480
   39MOL   C43536231   6.035   4.522   7.847 -0.3510 -0.3136  0.5923
   39MOL   O43636232   6.094   4.424   7.759 -0.5375 -0.6040 -0.7902
   39MOL   C43736233   6.220   4.387   7.774  0.6531 -0.3703  0.8117
   39MOL   O43836234   6.300   4.440   7.856  0.3074  0.3726 -0.4304
   39MOL   C43936235   6.258   4.278   7.682 -0.2260 -0.3781  1.0720
   39MOL   C44036236   6.399   4.259   7.660  0.2121 -0.6944 -0.0898
   39MOL   C44136237   6.437   4.160   7.577 -0.1984  0.0716  0.8441
   39MOL   C44236238   6.345   4.083   7.506  0.4943 -0.1302 -0.1866
   39MOL   C44336239   6.393   3.988   7.398 -0.0476  0.1702  0.0351
   39MOL   O44436240   6.336   3.887   7.357  0.6223  0.3647 -0.1567
   39MOL   O44536241   6.520   4.021   7.352  0.2333 -0.6035  1.0877
   39MOL   C44636242   6.208   4.099   7.526  0.2773 -0.5649  0.0385
   39MOL   C44736243   6.163   4.200   7.609  0.1672 -0.0875 -1.0779
   39MOL   H44836244   5.640   4.367   0.840 -0.0325  1.4276  0.1666
   39MOL   H44936245   5.481   4.344   0.799 -2.3231  1.4270 -0.3023
   39MOL   H45036246   5.677   4.581   0.712 -1.1117  2.0182 -0.8544
   39MOL   H45136247   5.503   4.596   0.694 -0.3532  0.9839  1.4985
   39MOL   H45236248   5.630   4.343   0.594 -0.8914 -0.8997 -2.8182
   39MOL   H45336249   5.489   4.431   0.532  0.0341  0.5933  0.0255
   39MOL   H45436250   5.782   4.531   0.516  0.3254 -1.8230 -0.0209
   39MOL   H45536251   5.634   4.594   0.431  1.2348  1.8608  3.2257
   39MOL   H45636252   5.762   4.320   0.405  0.5808 -0.0520 -1.5160
   39MOL   H45736253   5.625   4.367   0.313 -0.7427 -0.6175 -0.6479
   39MOL   H45836254   5.723   4.514   0.184 -1.2005 -0.0042  0.7530
   39MOL   H45936255   5.869   4.530   0.289  0.7752 -0.1090 -0.2114
   39MOL   H46036256   5.906   4.264   0.231  1.6761  0.4639 -0.7454
   39MOL   H46136257   5.787   4.293   0.118 -0.5367  0.3583  0.5034
   39MOL   H46236258   6.043   4.454   0.145  0.3863 -0.1905  0.6987
   39MOL   H46336259   6.032   4.307   0.048  0.3873  0.1538  0.5787
   39MOL   H46436260   5.868   4.558   0.003 -1.5162 -2.5761  2.0559
   39MOL   H46536261   5.845   4.431   7.875  1.4892 -0.0709 -1.3041
   39MOL   H46636262   6.109   4.574   7.909 -1.6263  3.1502 -0.7030
   39MOL   H46736263   5.995   4.612   7.800 -0.4995 -0.5950  0.1781
   39MOL   H46836264   6.465   4.329   7.709 -0.5010  1.5261 -2.1780
   39MOL   H46936265   6.541   4.141   7.553  0.0838  1.2506  1.1225
   39MOL   H47036266   6.132   4.040   7.476  0.3423  0.6194 -1.5059
   39MOL   H47136267   6.062   4.238   7.620  0.2122 -0.3127  0.2084
   39MOL   O47236268   6.577   3.933   7.239 -0.8200  0.0070  0.4358
   39MOL   C47336269   6.639   4.017   7.138 -0.3962 -0.1368 -0.2239
   39MOL   C47436270   6.530   4.108   7.078 -0.8847  0.9982  0.1158
   39MOL   C47536271   6.594   4.223   6.998 -0.3651  0.2259 -0.1380
   39MOL   C47636272   6.629   4.345   7.081 -0.2015 -0.3467  0.1185
   39MOL   C47736273   6.701   4.452   6.988  0.4792  0.2432 -0.5106
   39MOL   C47836274   6.749   4.570   7.077  0.1331 -0.1495 -0.1942
   39MOL   C47936275   6.809   4.688   6.998  0.0453 -0.3117 -0.4378
   39MOL   C48036276   6.848   4.805   7.093  0.2713 -0.6288 -0.0043
   39MOL   C48136277   6.939   4.905   7.016 -0.1666 -0.9753 -0.2726
   39MOL   C48236278   6.975   5.018   7.113  0.0885  0.4442  0.0155
   39MOL   O48336279   7.072   4.977   7.208  0.2375 -0.4883 -0.6741
   39MOL   C48436280   7.130   5.060   7.304 -0.0919  0.1378  0.4395
   39MOL   O48536281   7.078   5.171   7.325 -0.3277 -0.0040 -0.3823
   39MOL   C48636282   7.255   5.003   7.367  0.6845  0.5084  0.5812
   39MOL   C48736283   7.358   5.086   7.420 -0.2778 -0.1133 -0.5436
   39MOL   C48836284   7.470   5.035   7.490  0.0187  0.1188 -0.2029
   39MOL   C48936285   7.492   4.894   7.486 -0.4218 -0.2480  1.0239
   39MOL   C49036286   7.608   4.837   7.555  0.4558  0.1793  0.2144
   39MOL   O49136287   7.694   4.901   7.615 -0.3104  0.4986 -0.2391
   39MOL   O49236288   7.611   4.701   7.557  0.1704  0.7991  0.0654
   39MOL   C49336289   7.400   4.810   7.415 -0.5284  0.2968 -0.0868
   39MOL   C49436290   7.286   4.864   7.358 -0.1608 -0.4814  0.1799
   39MOL   H49536291   6.709   4.075   7.199 -1.4835  0.0628  0.8407
   39MOL   H49636292   6.696   3.963   7.063  2.2713  0.5227  1.2693
   39MOL   H49736293   6.454   4.150   7.146  0.2520  0.2021  1.9078
   39MOL   H49836294   6.460   4.058   7.011  1.6475  0.2968 -2.0582
   39MOL   H49936295   6.684   4.187   6.946 -0.9914  0.1153 -1.1624
   39MOL   H50036296   6.529   4.259   6.918 -0.0273  0.1516 -0.4502
   39MOL   H50136297   6.704   4.319   7.155 -1.9254 -1.4403  1.5035
   39MOL   H50236298   6.540   4.385   7.130  1.2918  2.4841  0.6800
   39MOL   H50336299   6.786   4.403   6.941  2.2664  0.9237  1.8751
   39MOL   H50436300   6.632   4.480   6.909  1.7331  0.5904 -1.4970
   39MOL   H50536301   6.668   4.623   7.129  0.7698 -0.0429  0.6937
   39MOL   H50636302   6.816   4.525   7.150  1.5832 -0.3112 -1.6049
   39MOL   H50736303   6.896   4.640   6.954  0.7340 -0.0278  0.5834
   39MOL   H50836304   6.741   4.727   6.922 -0.0345 -0.1334 -0.2774
   39MOL   H50936305   6.754   4.856   7.117  0.6615  0.3821 -0.5969
   39MOL   H51036306   6.899   4.763   7.180 -0.8918 -2.9533 -0.4068
   39MOL   H51136307   6.880   4.945   6.933 -0.9379 -3.9206 -1.1910
   39MOL   H51236308   7.027   4.869   6.963  2.8975  3.7738  1.2519
   39MOL   H51336309   6.880   5.059   7.147  0.1641  0.3736  0.3115
   39MOL   H51436310   7.027   5.099   7.063 -1.1523  4.5158  4.8742
   39MOL   H51536311   7.354   5.194   7.413  2.8782  0.0756  0.1843
   39MOL   H51636312   7.534   5.105   7.542  1.1619 -0.9016 -0.1996
   39MOL   H51736313   7.427   4.706   7.403  0.0658  0.6487 -1.9380
   39MOL   H51836314   7.220   4.799   7.303  2.5648 -3.3482  0.1631
   39MOL   O51936315   7.744   4.644   7.598 -0.0626 -0.0871  0.1106
   39MOL   C52036316   7.724   4.568   7.712 -0.8417 -0.5209  0.1817
   39MOL   C52136317   7.854   4.571   7.795  0.1509 -0.5987 -0.4765
   39MOL   C52236318   7.879   4.709   7.839 -0.3908 -0.1524  0.0139
   39MOL   C52336319   0.017   4.718   7.944  0.4676  0.3878 -0.1547
   39MOL   C52436320   0.076   4.864   7.959 -0.1829  0.8508  0.0423
   39MOL   C52536321   0.185   4.880   7.847  0.1014 -0.1321 -0.8323
   39MOL   C52636322   0.216   5.023   7.836  0.1115  0.6557 -0.2817
   39MOL   C52736323   0.297   5.081   7.952  0.4171  0.2557 -0.2774
   39MOL   C52836324   0.446   5.025   7.955 -0.0201  0.4033  0.1454
   39MOL   C52936325   0.510   5.006   0.118 -0.5274 -0.0723 -0.3652
   39MOL   O53036326   0.556   5.126   0.186 -0.0317  0.3760 -0.1034
   39MOL   C53136327   0.486   5.169   0.292 -0.2536  0.2433  0.2917
   39MOL   O53236328   0.405   5.100   0.345 -0.1688  0.4474 -0.4225
   39MOL   C53336329   0.528   5.299   0.346 -0.0430  0.9300  0.5284
   39MOL   C53436330   0.465   5.364   0.454 -0.4340  0.1165 -0.1016
   39MOL   C53536331   0.519   5.486   0.501  0.2481  0.0539 -0.1865
   39MOL   C53636332   0.627   5.550   0.446  0.2779 -0.4460 -0.2861
   39MOL   C53736333   0.681   5.675   0.501 -0.1058 -0.2325 -0.0832
   39MOL   O53836334   0.644   5.731   0.602  0.0495  0.5265 -0.0758
   39MOL   O53936335   0.777   5.724   0.421 -0.4521  0.2424 -0.0617
   39MOL   C54036336   0.688   5.482   0.338 -0.4440  0.4927  0.1135
   39MOL   C54136337   0.630   5.365   0.279  0.0119  0.0303 -0.0543
   39MOL   H54236338   7.645   4.606   7.776 -0.8544 -0.0013 -0.1444
   39MOL   H54336339   7.686   4.467   7.696  0.6986 -1.7051  3.4788
   39MOL   H54436340   7.931   4.541   7.723  0.2136  0.2843 -0.7838
   39MOL   H54536341   7.855   4.499   7.877  2.6816  2.1581  2.0446
   39MOL   H54636342   7.905   4.779   7.760 -1.1144  0.3384  0.2006
   39MOL   H54736343   7.793   4.752   7.891  0.6059  0.9721  0.7616
   39MOL   H54836344   0.098   4.651   7.917  0.1237 -0.0965 -0.0053
   39MOL   H54936345   7.957   4.698   0.066  0.2294 -0.3518 -0.3893
   39MOL   H55036346   7.968   4.930   7.946 -1.4224 -0.4870  1.2603
   39MOL   H55136347   0.117   4.884   0.080  2.4263  0.9951 -1.0235
   39MOL   H55236348   0.276   4.822   7.864  0.8993  0.8151 -1.8336
   39MOL   H55336349   0.148   4.843   7.751  2.6095 -0.5824 -1.6654
   39MOL   H55436350   0.276   5.037   7.747  1.8297  0.2287  0.7769
   39MOL   H55536351   0.119   5.068   7.813 -0.9619 -1.1193  0.6043
   39MOL   H55636352   0.314   5.188   7.960  0.8522  0.3102 -1.8402
   39MOL   H55736353   0.257   5.075   0.075  1.6378  2.2430  0.3484
   39MOL   H55836354   0.515   5.093   7.904 -0.6758 -0.1938 -1.5859
   39MOL   H55936355   0.454   4.926   7.911  0.3301  1.0579 -1.2913
   39MOL   H56036356   0.587   4.931   0.099 -0.8936  0.1581 -2.8709
   39MOL   H56136357   0.442   4.957   0.188 -1.7048  0.3542 -1.1971
   39MOL   H56236358   0.376   5.330   0.505 -1.5557  2.9502 -0.0577
   39MOL   H56336359   0.475   5.533   0.588  0.5716 -1.7630  0.9975
   39MOL   H56436360   0.776   5.523   0.291 -1.0625  1.8425  0.1052
   39MOL   H56536361   0.689   5.324   0.198  0.9487  2.3077 -0.5741
   39MOL   O56636362   0.878   5.789   0.504 -0.2481  0.2511 -0.2503
   39MOL   C56736363   0.866   5.922   0.485  0.1404  0.5281 -0.1024
   39MOL   C56836364   0.968   6.002   0.570 -0.3744  0.8647  0.0978
   39MOL   C56936365   1.118   5.968   0.535  0.4994 -0.1512 -0.0273
   39MOL   C57036366   1.229   6.000   0.641 -0.3988  0.2616  0.2586
   39MOL   C57136367   1.350   5.902   0.624  0.5884 -0.0956 -0.0827
   39MOL   C57236368   1.426   5.921   0.493  0.6642  0.4430 -0.7626
   39MOL   C57336369   1.560   5.848   0.502  0.7815  0.1246  0.4687
   39MOL   C57436370   1.614   5.812   0.370  0.0615  0.4967 -0.4664
   39MOL   C57536371   1.755   5.756   0.365 -0.5920  0.2917  0.4149
   39MOL   C57636372   1.807   5.737   0.223 -0.3395 -0.0606 -0.4074
   39MOL   O57736373   1.720   5.641   0.164  0.3255 -0.3467  0.5919
   39MOL   C57836374   1.744   5.508   0.168  0.1442  0.1766  0.1912
   39MOL   O57936375   1.851   5.468   0.223 -0.2126 -0.1718  0.0912
   39MOL   C58036376   1.640   5.419   0.102 -0.1496  0.0614  0.5282
   39MOL   C58136377   1.535   5.466   0.016  0.3459 -0.1198 -0.1414
   39MOL   C58236378   1.451   5.376   7.923 -0.4488 -0.2568  0.2108
   39MOL   C58336379   1.460   5.240   7.948 -0.2596  0.0588 -0.8083
   39MOL   C58436380   1.362   5.148   7.898 -0.6617  0.6344  0.5156
   39MOL   O58536381   1.362   5.033   7.928  0.3822  0.8808  0.5370
   39MOL   O58636382   1.264   5.210   7.828 -0.5211 -0.2065 -0.6270
   39MOL   C58736383   1.550   5.190   0.065 -0.0580 -0.4721 -0.2239
   39MOL   C58836384   1.644   5.283   0.129  0.4299 -0.0562  0.5273
   39MOL   H58936385   0.876   5.943   0.379  2.2901 -0.9353 -0.2167
   39MOL   H59036386   0.771   5.961   0.524  0.5256 -0.5184  1.9840
   39MOL   H59136387   0.951   5.984   0.676 -0.8791  1.1984  0.0746
   39MOL   H59236388   0.963   6.111   0.560  2.3785  0.8878 -1.5634
   39MOL   H59336389   1.108   5.862   0.509  3.3172 -0.7592  1.1621
   39MOL   H59436390   1.139   6.009   0.437 -2.8302 -0.9458 -1.1175
   39MOL   H59536391   1.182   5.980   0.737 -3.2386 -0.4723 -1.2190
   39MOL   H59636392   1.265   6.103   0.635  0.1088  0.0875  0.3387
   39MOL   H59736393   1.418   5.920   0.708 -2.9815 -1.1865  3.1617
   39MOL   H59836394   1.317   5.799   0.636 -1.1457  0.4285 -0.1798
   39MOL   H59936395   1.382   5.885   0.400 -1.2828 -0.7787  0.6024
   39MOL   H60036396   1.452   6.025   0.474 -0.7197  1.2311  1.4917
   39MOL   H60136397   1.627   5.910   0.561  0.3795 -0.8145  1.9386
   39MOL   H60236398   1.548   5.758   0.562 -1.0319  0.3163  0.4050
   39MOL   H60336399   1.544   5.739   0.330 -0.6826  0.4998  0.7899
   39MOL   H60436400   1.614   5.901   0.307  0.4939 -0.2195 -1.4829
   39MOL   H60536401   1.771   5.663   0.420  0.6510 -0.2575 -0.8427
   39MOL   H60636402   1.829   5.826   0.405 -1.2257  0.2569  1.6727
   39MOL   H60736403   1.910   5.701   0.218 -0.6294 -0.8899 -0.4970
   39MOL   H60836404   1.810   5.826   0.160 -0.0734  1.1325  1.2436
   39MOL   H60936405   1.511   5.570   7.976 -0.7866 -0.0927  1.4021
   39MOL   H61036406   1.382   5.418   7.852 -0.4252  1.1525  1.0171
   39MOL   H61136407   1.549   5.089   0.105 -1.3720 -0.2314  0.3908
   39MOL   H61236408   1.712   5.240   0.200  0.1492 -2.5710 -0.6927
   39MOL   O61336409   1.148   5.119   7.796 -0.3146  0.7525 -0.5421
   39MOL   C61436410   1.160   5.061   7.664  0.3754 -0.1849  0.3606
   39MOL   C61536411   1.087   5.134   7.553  0.0169  0.6866  0.4358
   39MOL   C61636412   1.064   5.075   7.412  0.0984  0.6858  0.4682
   39MOL   C61736413   0.981   5.166   7.321  0.7504 -0.6257 -0.3131
   39MOL   C61836414   0.996   5.135   7.175  0.2951  0.2062  0.1638
   39MOL   C61936415   0.897   5.198   7.084  0.4359 -0.0534 -0.5419
   39MOL   C62036416   0.935   5.183   6.937  0.1281  0.4676 -0.2903
   39MOL   C62136417   0.846   5.248   6.830 -0.6906 -0.4107 -0.3012
   39MOL   C62236418   0.873   5.397   6.801  0.1964  0.3305  0.2370
   39MOL   C62336419   0.774   5.445   6.686 -1.0401  0.1190  0.3575
   39MOL   O62436420   0.787   5.360   6.570  0.6839  0.5347 -0.0285
   39MOL   C62536421   0.889   5.377   6.483  0.5824 -0.1363 -0.4884
   39MOL   O62636422   0.979   5.462   6.500  0.4179  0.3009 -0.7333
   39MOL   C62736423   0.890   5.270   6.382 -0.0714 -0.7348 -0.1667
   39MOL   C62836424   0.782   5.183   6.372  0.6885 -0.1920 -0.4594
   39MOL   C62936425   0.784   5.077   6.275  0.0774  0.1554 -0.1497
   39MOL   C63036426   0.898   5.062   6.199  0.1995 -0.0185  0.4398
   39MOL   C63136427   0.911   4.952   6.102  0.8586 -0.0973 -0.7182
   39MOL   O63236428   0.828   4.861   6.099 -0.4137 -0.9887 -0.2140
   39MOL   O63336429   1.023   4.958   6.033 -0.4005  0.0779 -0.0523
   39MOL   C63436430   1.007   5.155   6.205 -0.1153  0.2156 -0.6303
   39MOL   C63536431   1.001   5.260   6.302  0.0594  0.1163 -0.0081
   39MOL   H63636432   1.258   5.024   7.635  0.3746  1.0253 -1.2824
   39MOL   H63736433   1.104   4.969   7.680 -1.7508  0.7562 -1.3283
   39MOL   H63836434   1.145   5.227   7.551  1.3714 -0.1240  0.8364
   39MOL   H63936435   0.986   5.149   7.592 -0.1855  2.5804 -0.7279
   39MOL   H64036436   1.154   5.062   7.352 -1.4373 -0.4193 -1.6743
   39MOL   H64136437   1.019   4.976   7.412 -0.7103  1.0476  0.9532
   39MOL   H64236438   1.000   5.271   7.341 -0.6526  0.0953 -2.4930
   39MOL   H64336439   0.876   5.148   7.346  0.9074 -0.3637  0.5181
   39MOL   H64436440   1.085   5.175   7.127 -0.0119 -0.2882 -0.8308
   39MOL   H64536441   0.990   5.028   7.154 -0.0764 -0.1266  1.9061
   39MOL   H64636442   0.794   5.164   7.099 -0.6633  3.0909 -0.5009
   39MOL   H64736443   0.890   5.304   7.111 -2.7724  0.3046 -2.4303
   39MOL   H64836444   1.035   5.219   6.914 -0.0401  0.8487 -0.4192
   39MOL   H64936445   0.940   5.077   6.913  0.0766  0.4939 -0.4112
   39MOL   H65036446   0.858   5.199   6.733 -1.3452  1.9386 -1.6280
   39MOL   H65136447   0.743   5.233   6.862 -0.8264  1.7485  0.3410
   39MOL   H65236448   0.976   5.417   6.771 -0.7719 -0.2955 -3.7395
   39MOL   H65336449   0.850   5.465   6.884 -0.8776 -0.2542  0.4324
   39MOL   H65436450   0.794   5.549   6.657 -0.0679 -0.0143  0.5378
   39MOL   H65536451   0.671   5.441   6.721 -0.6861 -1.0453  1.2996
   39MOL   H65636452   0.698   5.189   6.440 -0.1120 -2.5024 -1.1743
   39MOL   H65736453   0.694   5.018   6.269 -0.3489  0.9178 -1.5746
   39MOL   H65836454   1.092   5.157   6.138  2.9832  0.7845  3.1061
   39MOL   H65936455   1.082   5.329   6.319  0.9639 -0.7951 -0.5852
   39MOL   O66036456   1.049   4.849   5.929 -0.0996  0.4998  0.0553
   39MOL   C66136457   1.146   4.760   5.980  1.5804  0.0342 -0.6683
   39MOL   C66236458   1.265   4.831   6.042  0.7297  0.8228 -0.2542
   39MOL   C66336459   1.359   4.917   5.962  0.1447 -0.2738  1.0842
   39MOL   C66436460   1.450   5.000   6.055  0.5137  0.2099  0.0679
   39MOL   C66536461   1.530   5.107   5.982 -0.2969  0.2470 -0.6353
   39MOL   C66636462   1.620   5.193   6.072 -0.8420 -0.4187 -0.1385
   39MOL   C66736463   1.683   5.320   6.010 -0.9490 -0.4332 -0.0935
   39MOL   C66836464   1.760   5.411   6.111  0.1943 -0.4654 -0.4302
   39MOL   C66936465   1.899   5.346   6.145  0.3516  0.8225  0.0823
   39MOL   C67036466   1.984   5.415   6.250 -0.1464  0.0502  0.2978
   39MOL   O67136467   2.035   5.542   6.194  0.0377  0.0855 -0.0736
   39MOL   C67236468   2.095   5.633   6.267 -0.2998  0.2199 -0.0881
   39MOL   O67336469   2.099   5.645   6.390 -0.2601  0.1440 -0.4104
   39MOL   C67436470   2.140   5.740   6.177 -0.6990  0.6909  1.1084
   39MOL   C67536471   2.199   5.853   6.228  0.4744  0.2222 -0.6439
   39MOL   C67636472   2.224   5.961   6.146  0.0177 -0.0654  0.5548
   39MOL   C67736473   2.211   5.953   6.006  0.2037 -0.1799  0.5941
   39MOL   C67836474   2.252   6.063   5.916 -0.1944  0.8611 -0.4048
   39MOL   O67936475   2.235   6.064   5.790 -0.3964 -0.1976 -0.2188
   39MOL   O68036476   2.311   6.155   5.985  0.3063 -0.4703 -0.0254
   39MOL   C68136477   2.156   5.837   5.953 -0.7577 -0.2967 -0.7652
   39MOL   C68236478   2.112   5.737   6.040  0.0831  0.5896 -0.7648
   39MOL   H68336479   1.091   4.694   6.047  0.7617 -0.6059 -1.9303
   39MOL   H68436480   1.175   4.704   5.891 -2.3484 -1.3566 -1.1941
   39MOL   H68536481   1.320   4.742   6.072  0.0390  0.8472  1.1081
   39MOL   H68636482   1.239   4.880   6.136  1.4732  1.8612 -0.5813
   39MOL   H68736483   1.434   4.860   5.907 -0.9130 -0.7274  0.1106
   39MOL   H68836484   1.305   4.976   5.888  1.3996 -1.4402 -0.8128
   39MOL   H68936485   1.511   4.931   6.114  0.2399 -0.8419 -0.8686
   39MOL   H69036486   1.380   5.055   6.118 -1.6703  0.1758 -2.2770
   39MOL   H69136487   1.599   5.056   5.916 -0.3959  1.0141 -1.3423
   39MOL   H69236488   1.462   5.166   5.920 -1.4971 -1.6740 -1.1702
   39MOL   H69336489   1.560   5.220   6.159 -0.3894 -0.4908  0.1982
   39MOL   H69436490   1.698   5.130   6.116  0.3064  2.1340  1.6535
   39MOL   H69536491   1.746   5.304   5.922 -2.3742 -0.8086 -1.0646
   39MOL   H69636492   1.602   5.383   5.973 -1.5107 -0.7282  0.6275
   39MOL   H69736493   1.775   5.514   6.081 -2.2618  0.0240 -0.1384
   39MOL   H69836494   1.697   5.420   6.200  0.7758  0.7762 -0.1385
   39MOL   H69936495   1.951   5.326   6.051  0.9746 -2.3783  1.0361
   39MOL   H70036496   1.885   5.245   6.185  1.1247  0.5411 -0.3230
   39MOL   H70136497   2.070   5.357   6.285  0.3628 -0.5181 -1.8637
   39MOL   H70236498   1.925   5.447   6.336  1.9567  2.5168  0.9209
   39MOL   H70336499   2.197   5.870   6.334 -2.4456  0.5445 -0.7141
   39MOL   H70436500   2.268   6.048   6.193 -0.0725  1.5021 -2.1698
   39MOL   H70536501   2.139   5.835   5.846  1.0554  0.0656 -1.0754
   39MOL   H70636502   2.051   5.657   6.000 -0.1182  0.1749  0.3366
   39MOL   O70736503   2.359   6.285   5.916 -0.4589 -0.1339  0.0953
   39MOL   C70836504   2.278   6.391   5.958 -0.1392 -0.0117  0.1137
   39MOL   C70936505   2.133   6.383   5.911 -0.0719 -0.0340  0.1213
   39MOL   C71036506   2.120   6.383   5.759 -0.3707  0.4537  0.0158
   39MOL   C71136507   1.977   6.371   5.715  0.0336 -0.0371  0.1480
   39MOL   C71236508   1.972   6.284   5.591 -0.0085  0.6766 -0.0381
   39MOL   C71336509   1.823   6.259   5.545 -0.0598  0.6678  0.0730
   39MOL   C71436510   1.807   6.160   5.427  0.1140  0.2673 -0.3110
   39MOL   C71536511   1.661   6.159   5.383  0.5958 -0.2021  0.4183
   39MOL   C71636512   1.568   6.079   5.474 -0.7881  0.3869 -0.2899
   39MOL   C71736513   1.442   6.021   5.409 -0.7608 -0.2714  0.2301
   39MOL   O71836514   1.336   6.113   5.418 -0.0027  0.6043 -0.0791
   39MOL   C71936515   1.235   6.094   5.333  0.2552  0.0802 -0.0389
   39MOL   O72036516   1.223   5.990   5.274 -0.0578  0.3379  0.5470
   39MOL   C72136517   1.126   6.192   5.337 -0.7594  1.0685  0.2723
   39MOL   C72236518   1.030   6.181   5.240  0.2824  0.2202  0.7254
   39MOL   C72336519   0.929   6.280   5.235  0.0185  0.1165  0.0817
   39MOL   C72436520   0.936   6.393   5.320  0.0342 -0.4827 -0.0251
   39MOL   C72536521   0.833   6.503   5.299 -0.3358  0.4221 -0.2913
   39MOL   O72636522   0.741   6.492   5.219 -0.0061  0.2441  0.6867
   39MOL   O72736523   0.848   6.618   5.370 -0.1933  0.3679  0.1389
   39MOL   C72836524   1.031   6.401   5.423  0.0106 -0.2125 -0.6905
   39MOL   C72936525   1.125   6.295   5.435  0.0052  0.1600  0.2302
   39MOL   H73036526   2.284   6.380   6.066  0.9757 -3.3882 -0.1986
   39MOL   H73136527   2.327   6.486   5.939 -0.5676 -0.4735 -3.9584
   39MOL   H73236528   2.078   6.461   5.963 -0.2859  0.1504 -0.3781
   39MOL   H73336529   2.092   6.291   5.953 -1.9206  1.6676  2.1859
   39MOL   H73436530   2.173   6.462   5.705  0.8601 -0.3088  0.0831
   39MOL   H73536531   2.167   6.291   5.725 -0.5645 -0.1423  1.3255
   39MOL   H73636532   1.934   6.470   5.700  0.9462  0.3772  0.2564
   39MOL   H73736533   1.914   6.321   5.789 -0.8756  1.2829  0.2865
   39MOL   H73836534   2.037   6.325   5.513 -1.5510  1.2363 -1.0526
   39MOL   H73936535   2.015   6.188   5.622  1.6730  1.0877 -1.0357
   39MOL   H74036536   1.755   6.227   5.624 -1.1644 -0.6283 -1.3608
   39MOL   H74136537   1.776   6.349   5.503  0.5121  0.2198 -1.5700
   39MOL   H74236538   1.871   6.159   5.338  0.1458 -1.4010 -0.2805
   39MOL   H74336539   1.826   6.060   5.466  1.2456  1.2282  1.6442
   39MOL   H74436540   1.618   6.253   5.347  1.0735 -0.2516 -0.2748
   39MOL   H74536541   1.671   6.116   5.284 -2.2090 -0.5430  0.2464
   39MOL   H74636542   1.531   6.133   5.561 -1.0266  0.3412 -0.3637
   39MOL   H74736543   1.621   5.994   5.516 -2.4827  0.2892  1.7385
   39MOL   H74836544   1.406   5.933   5.464 -1.6860  0.3172  0.5823
   39MOL   H74936545   1.471   6.001   5.306 -0.6281 -2.0141  0.5833
   39MOL   H75036546   1.026   6.108   5.160 -1.9332  0.3340  0.7067
   39MOL   H75136547   0.840   6.262   5.176 -0.4106  0.3742  0.6548
   39MOL   H75236548   1.026   6.481   5.497 -1.2556 -1.7127  0.8851
   39MOL   H75336549   1.198   6.301   5.514  0.9043 -0.2917 -0.5680
   39MOL   O75436550   0.725   6.707   5.354 -0.3672  0.0457  0.0029
   39MOL   C75536551   0.685   6.757   5.486 -0.0343 -0.1958  0.4949
   39MOL   C75636552   0.633   6.899   5.482 -0.0321 -0.4718  0.8057
   39MOL   C75736553   0.555   6.943   5.608  0.4830  0.0560  0.4410
   39MOL   C75836554   0.637   6.958   5.727 -0.8030 -0.2065  0.1655
   39MOL   C75936555   0.558   7.027   5.835  0.6545 -0.3784 -0.3768
   39MOL   C76036556   0.628   7.046   5.969 -0.3994  0.5782 -0.2191
   39MOL   C76136557   0.695   6.911   6.032  0.5127 -0.4951  0.2495
   39MOL   C76236558   0.742   6.930   6.179 -0.2807  0.4696  1.0648
   39MOL   C76336559   0.624   6.966   6.267 -0.0699 -0.4082  0.6368
   39MOL   C76436560   0.561   6.857   6.347  0.3021  0.6553 -0.0516
   39MOL   O76536561   0.507   6.766   6.256  0.7234  0.1847 -0.2057
   39MOL   C76636562   0.426   6.674   6.306  0.4893  0.9910 -0.3950
   39MOL   O76736563   0.399   6.666   6.427 -0.0847 -0.0107 -0.6361
   39MOL   C76836564   0.384   6.567   6.211  0.1323  0.1841  0.1146
   39MOL   C76936565   0.398   6.587   6.076  0.3434  0.2859  1.2177
   39MOL   C77036566   0.320   6.502   5.988 -0.2780 -0.5969  0.4222
   39MOL   C77136567   0.249   6.387   6.033 -0.4280  0.4414  0.1662
   39MOL   C77236568   0.176   6.300   5.936  0.5163  0.0392  0.3229
   39MOL   O77336569   0.122   6.195   5.961  0.2942  0.0288 -0.2269
   39MOL   O77436570   0.174   6.348   5.812  0.0539  0.5956  0.0301
   39MOL   C77536571   0.249   6.355   6.168 -0.0559 -0.5078 -0.1392
   39MOL   C77636572   0.316   6.450   6.259 -0.2444 -0.5329  0.2767
   39MOL   H77736573   0.612   6.689   5.531 -1.1286  0.1425 -0.7450
   39MOL   H77836574   0.776   6.756   5.545  1.7630  1.2340 -2.1465
   39MOL   H77936575   0.581   6.916   5.388  2.0041  0.7426 -0.1369
   39MOL   H78036576   0.718   6.965   5.465  0.0341 -0.7861 -0.0996
   39MOL   H78136577   0.522   7.044   5.583  0.0860 -0.3663 -0.7716
   39MOL   H78236578   0.468   6.881   5.632  3.1402 -4.0645 -0.0191
   39MOL   H78336579   0.736   7.003   5.712 -1.3692  1.0210  0.1039
   39MOL   H78436580   0.663   6.854   5.750 -1.3939 -0.4065 -0.0879
   39MOL   H78536581   0.511   7.115   5.791 -0.1685  0.1699  1.5538
   39MOL   H78636582   0.464   6.973   5.846  0.7930 -0.0350  2.9744
   39MOL   H78736583   0.700   7.127   5.964 -0.3234  0.4128 -2.2046
   39MOL   H78836584   0.545   7.088   6.026 -0.0955 -2.3351  2.5102
   39MOL   H78936585   0.613   6.838   6.034 -0.1267  0.2490  2.2557
   39MOL   H79036586   0.775   6.887   5.962  1.4285  0.6428  0.9029
   39MOL   H79136587   0.775   6.834   6.219 -1.5345 -0.1851  0.5792
   39MOL   H79236588   0.818   7.007   6.182 -0.1047  0.3100  0.6543
   39MOL   H79336589   0.539   7.009   6.214  0.9237 -0.4887 -1.0394
   39MOL   H79436590   0.645   7.050   6.334  0.7047 -0.6632  0.7161
   39MOL   H79536591   0.476   6.902   6.399 -0.3918  0.2360 -0.8099
   39MOL   H79636592   0.621   6.806   6.422  1.5446  0.5979 -1.0792
   39MOL   H79736593   0.450   6.675   6.040 -1.2785 -0.7311 -4.1305
   39MOL   H79836594   0.315   6.526   5.882 -2.0064  0.0548  0.6222
   39MOL   H79936595   0.201   6.264   6.201 -0.1296 -0.2473  0.4763
   39MOL   H80036596   0.295   6.434   6.364 -1.4491  1.9342  0.4400
   39MOL   O80136597   0.101   6.263   5.710  0.1811  0.2635  0.0652
   39MOL   C80236598   0.011   6.339   5.633 -0.7194  0.0097 -0.0890
   39MOL   C80336599   7.918   6.247   5.537  0.1482 -0.3261  0.3808
   39MOL   C80436600   0.004   6.216   5.397  0.5010 -0.5653  0.6538
   39MOL   C80536601   0.112   6.106   5.405  0.4108  0.6552  0.1931
   39MOL   C80636602   0.217   6.092   5.290  0.3029 -0.4462  0.2391
   39MOL   C80736603   0.292   5.956   5.278  0.1396  0.1507  0.4339
   39MOL   C80836604   0.398   5.951   5.168 -0.5718 -0.2908 -0.2210
   39MOL   C80936605   0.526   6.038   5.198  0.1518  0.1579 -0.0944
   39MOL   C81036606   0.659   5.998   5.114 -0.5945  0.5991 -0.2224
   39MOL   C81136607   0.722   5.867   5.166  0.3027  0.3989  0.0570
   39MOL   O81236608   0.789   5.897   5.290 -0.1048 -0.4510  0.1861
   39MOL   C81336609   0.768   5.820   5.398 -0.3863 -0.2297 -0.1254
   39MOL   O81436610   0.701   5.717   5.380 -0.4461 -0.2445  0.1433
   39MOL   C81536611   0.816   5.866   5.533  0.7945  0.2752  0.0284
   39MOL   C81636612   0.762   5.798   5.646  0.1362  0.1945  0.2624
   39MOL   C81736613   0.802   5.844   5.776  0.3209  0.0284 -0.3546
   39MOL   C81836614   0.895   5.946   5.790  0.0563  0.3484  0.5272
   39MOL   C81936615   0.927   5.985   5.927 -0.2091 -0.3220  0.4749
   39MOL   O82036616   0.954   6.101   5.962  0.3776 -0.0149  0.8290
   39MOL   O82136617   0.916   5.891   6.018  0.4176 -0.1978  0.0907
   39MOL   C82236618   0.943   6.016   5.673  0.6213 -0.0462 -0.0182
   39MOL   C82336619   0.908   5.967   5.547  0.9065  0.1685  0.1439
   39MOL   H82436620   7.916   6.387   5.699  0.2483  1.5936 -0.1424
   39MOL   H82536621   0.078   6.409   5.583  1.9928 -0.5333  2.6144
   39MOL   H82636622   7.832   6.306   5.502 -1.0562 -1.7075  0.9619
   39MOL   H82736623   7.871   6.170   5.599 -3.3531  0.8928 -0.6180
   39MOL   H82836624   7.896   6.180   5.339  0.0912  2.2974 -0.5840
   39MOL   H82936625   0.034   6.313   5.357  1.6866 -1.8108 -1.5947
   39MOL   H83036626   0.069   6.008   5.428 -2.7479  1.6959 -1.0986
   39MOL   H83136627   0.176   6.124   5.491 -0.8476  2.6084  0.7546
   39MOL   H83236628   0.173   6.114   5.193 -0.6211 -1.5927  0.3911
   39MOL   H83336629   0.286   6.174   5.313  1.4721 -1.3468  0.0165
   39MOL   H83436630   0.340   5.925   5.371  0.5709 -0.2267  0.0834
   39MOL   H83536631   0.211   5.884   5.260  1.6637 -1.1929 -1.2901
   39MOL   H83636632   0.416   5.844   5.160 -0.7477 -0.5007  1.9180
   39MOL   H83736633   0.365   5.988   5.071 -1.1731  0.4162  0.2445
   39MOL   H83836634   0.509   6.145   5.188 -0.0721  0.1682  0.3698
   39MOL   H83936635   0.542   6.043   5.306  0.2960 -2.8350  0.0899
   39MOL   H84036636   0.729   6.082   5.114  0.9122 -0.6290 -0.4238
   39MOL   H84136637   0.628   5.988   5.010  1.1939 -0.6646 -0.6620
   39MOL   H84236638   0.804   5.832   5.103 -0.9117 -0.5723 -1.0066
   39MOL   H84336639   0.638   5.798   5.160 -0.2075  0.9380  0.9272
   39MOL   H84436640   0.693   5.716   5.633  0.6248  0.0321 -1.3714
   39MOL   H84536641   0.756   5.791   5.858  1.8340  0.7580  1.0190
   39MOL   H84636642   1.015   6.096   5.680 -0.7671  1.4288 -1.8837
   39MOL   H84736643   0.960   6.000   5.458 -0.0761  0.9040 -0.1627
   39MOL   O84836644   0.926   5.954   6.161  0.5430 -0.8234 -0.5414
   39MOL   C84936645   1.057   5.951   6.216 -0.3110  0.2617  0.1550
   39MOL   C85036646   1.045   5.971   6.368 -0.6727  0.4538  0.6463
   39MOL   C85136647   1.181   5.936   6.445 -0.1013 -0.1185  0.4410
   39MOL   C85236648   1.142   5.901   6.592 -0.2485  0.0684  0.6530
   39MOL   C85336649   1.258   5.874   6.676  0.3170  0.4543 -0.0703
   39MOL   C85436650   1.347   5.756   6.635  0.1133  0.1831  0.5592
   39MOL   C85536651   1.276   5.624   6.646  0.6616 -0.8155 -0.0880
   39MOL   C85636652   1.376   5.503   6.657  0.1552  0.2781 -0.6181
   39MOL   C85736653   1.297   5.376   6.681  0.4874  0.3519  0.2908
   39MOL   C85836654   1.376   5.258   6.733  0.6450 -0.5297 -0.0373
   39MOL   O85936655   1.415   5.273   6.869  0.6225  0.1259  0.2371
   39MOL   C86036656   1.370   5.177   6.950 -0.0654  0.1138  0.2481
   39MOL   O86136657   1.287   5.091   6.925  0.3222 -0.5623  0.1756
   39MOL   C86236658   1.433   5.191   7.080  0.2959  0.2942 -0.1950
   39MOL   C86336659   1.391   5.103   7.178 -0.2673 -0.5942 -0.5605
   39MOL   C86436660   1.455   5.103   7.305  0.1356  0.4207  0.8237
   39MOL   C86536661   1.566   5.178   7.329 -0.5004 -0.9943 -0.0278
   39MOL   C86636662   1.636   5.166   7.457 -0.5693 -0.3602 -0.0093
   39MOL   O86736663   1.594   5.085   7.543 -0.0262 -0.5081 -0.0684
   39MOL   O86836664   1.752   5.234   7.466  0.4645 -0.0155  0.5241
   39MOL   C86936665   1.609   5.265   7.226  0.2764  0.1108  0.3226
   39MOL   C87036666   1.549   5.268   7.105  0.2004 -0.2156 -0.6375
   39MOL   H87136667   1.102   5.855   6.194 -0.9379  0.4131 -1.8143
   39MOL   H87236668   1.112   6.036   6.175 -0.1486  0.2727  0.3902
   39MOL   H87336669   0.972   5.901   6.408  0.6116 -1.0972  0.3518
   39MOL   H87436670   1.008   6.071   6.390  0.7787  1.4785 -1.4517
   39MOL   H87536671   1.228   5.847   6.402  0.5780  0.3121  0.2780
   39MOL   H87636672   1.258   6.013   6.446 -0.7351  0.5471 -0.8382
   39MOL   H87736673   1.075   5.815   6.590 -1.3026  0.9080 -1.1988
   39MOL   H87836674   1.084   5.977   6.644 -0.7840 -0.6407  1.1040
   39MOL   H87936675   1.314   5.968   6.679 -0.8529  1.1319  1.4212
   39MOL   H88036676   1.240   5.850   6.781  0.4920 -1.8953 -0.5506
   39MOL   H88136677   1.380   5.789   6.536  0.9423  2.2722  1.5032
   39MOL   H88236678   1.437   5.751   6.697  0.5638  0.4454 -0.0639
   39MOL   H88336679   1.204   5.622   6.727  0.9637 -1.9842  0.1553
   39MOL   H88436680   1.209   5.604   6.563 -1.2653 -0.7255  1.4222
   39MOL   H88536681   1.438   5.491   6.568 -0.0235 -0.8522 -0.5983
   39MOL   H88636682   1.441   5.510   6.743  1.3396 -1.2369 -1.3529
   39MOL   H88736683   1.243   5.344   6.592 -0.2482  1.9486  0.1419
   39MOL   H88836684   1.212   5.392   6.747 -1.1764  0.6646 -1.8779
   39MOL   H88936685   1.467   5.253   6.674  0.7258 -0.1596  0.0539
   39MOL   H89036686   1.319   5.166   6.720  2.1002 -1.6441  1.2246
   39MOL   H89136687   1.308   5.036   7.161 -0.6023 -0.2268 -0.3599
   39MOL   H89236688   1.423   5.031   7.379  1.5753 -0.7242  0.3574
   39MOL   H89336689   1.706   5.312   7.231  0.5065  0.1279 -3.1382
   39MOL   H89436690   1.585   5.329   7.023 -0.0586  0.7452 -0.0401
   39MOL   O89536691   1.850   5.184   7.572  0.5527 -0.6053  0.3104
   39MOL   C89636692   1.824   5.256   7.689 -0.0738 -0.2439 -0.5060
   39MOL   C89736693   1.918   5.212   7.792  0.1923 -0.1878  0.2535
   39MOL   C89836694   2.062   5.270   7.767 -0.1383  0.5888  0.0065
   39MOL   C89936695   2.090   5.408   7.828 -0.3050 -0.0384  0.1872
   39MOL   C90036696   2.089   5.410   0.003  0.0379  0.4306 -0.6590
   39MOL   C90136697   2.191   5.326   0.081  0.2119 -0.3857 -0.3331
   39MOL   C90236698   2.334   5.382   0.053  0.8286  0.6907  0.6402
   39MOL   C90336699   2.445   5.339   0.140 -0.6334  0.0863 -0.7206
   39MOL   C90436700   2.588   5.379   0.084  0.3513 -0.2615  0.1958
   39MOL   C90536701   2.693   5.297   0.156  0.2675 -0.5995  0.2781
   39MOL   O90636702   2.818   5.356   0.153 -0.2547 -0.9785 -0.9211
   39MOL   C90736703   2.897   5.327   0.261 -0.4740  0.1629 -0.8604
   39MOL   O90836704   2.857   5.250   0.347  0.1401 -0.3301 -0.0963
   39MOL   C90936705   3.030   5.396   0.266  1.0680 -0.1247  0.2828
   39MOL   C91036706   3.067   5.492   0.172  0.1580  0.5866  0.2506
   39MOL   C91136707   3.188   5.568   0.197 -0.2213  0.6888 -0.9858
   39MOL   C91236708   3.269   5.545   0.310 -0.5069  0.0842 -0.6906
   39MOL   C91336709   3.397   5.620   0.332 -0.1224 -0.2026 -0.1737
   39MOL   O91436710   3.474   5.602   0.429 -0.4382 -0.1544  0.1672
   39MOL   O91536711   3.437   5.701   0.230  0.1029 -0.2775  0.5500
   39MOL   C91636712   3.233   5.444   0.403 -0.1937 -0.5729  0.7271
   39MOL   C91736713   3.108   5.379   0.379  0.1105  0.1228  0.3009
   39MOL   H91836714   1.833   5.363   7.669  1.7991 -0.1852  0.5664
   39MOL   H91936715   1.725   5.223   7.721  0.0820  0.4930  0.7557
   39MOL   H92036716   1.920   5.103   7.792 -0.4653 -0.1998  0.6087
   39MOL   H92136717   1.875   5.241   7.888 -0.8333 -2.7740  0.5921
   39MOL   H92236718   2.139   5.197   7.793  1.1733  1.0505 -2.4559
   39MOL   H92336719   2.075   5.271   7.659  0.6732 -1.1276  0.0732
   39MOL   H92436720   2.017   5.480   7.789  0.6723  0.3756 -0.9320
   39MOL   H92536721   2.188   5.434   7.789 -0.5651 -0.5428 -0.8199
   39MOL   H92636722   2.090   5.515   0.033 -0.9684  0.4979 -0.8297
   39MOL   H92736723   1.988   5.373   0.024 -0.0948  0.5885 -1.0127
   39MOL   H92836724   2.163   5.339   0.186 -1.0248 -1.8451 -0.4601
   39MOL   H92936725   2.199   5.222   0.051 -0.0144 -0.2041 -1.0273
   39MOL   H93036726   2.351   5.332   7.935  0.6768  0.0873  0.9232
   39MOL   H93136727   2.332   5.489   0.033 -1.6523  0.4143 -0.7811
   39MOL   H93236728   2.434   5.365   0.245  0.3116 -1.2600 -0.2754
   39MOL   H93336729   2.452   5.230   0.148 -0.4684  0.2159  1.1568
   39MOL   H93436730   2.613   5.482   0.108 -0.3545 -0.2359  0.8323
   39MOL   H93536731   2.600   5.357   7.956  1.0422  1.2889 -0.0653
   39MOL   H93636732   2.698   5.196   0.115 -0.6189 -0.4193 -0.2871
   39MOL   H93736733   2.658   5.278   0.258 -1.3922  0.5378 -0.0715
   39MOL   H93836734   3.004   5.499   0.085 -0.2998 -1.1299  0.4266
   39MOL   H93936735   3.213   5.637   0.118  1.9033  0.4550 -0.5476
   39MOL   H94036736   3.298   5.422   0.486  0.7429  2.3703  0.8311
   39MOL   H94136737   3.075   5.305   0.449 -1.9550  0.4945 -0.2289
   39MOL   H94236738   3.520   5.732   0.261  0.8384  1.7981 -3.1730
   40MOL     O136739   1.153   4.393   5.612  0.2119 -0.1140  0.6277
   40MOL     C236740   1.280   4.425   5.670  0.5297  0.2658  0.2814
   40MOL     C336741   1.273   4.424   5.827 -0.0608 -0.9205  0.0863
   40MOL     C436742   1.245   4.284   5.887 -0.4195  1.1834  0.5728
   40MOL     C536743   1.270   4.282   6.035 -0.0248  0.6964  0.9275
   40MOL     C636744   1.209   4.394   6.115 -0.0194 -0.6877 -0.3686
   40MOL     C736745   1.217   4.366   6.270  0.0743 -0.3156 -0.8702
   40MOL     C836746   1.132   4.456   6.356  0.3135 -1.2883  0.6191
   40MOL     C936747   1.179   4.602   6.349  0.3414  0.2735 -0.5775
   40MOL    C1036748   1.086   4.697   6.428 -0.6009 -0.0056 -0.1340
   40MOL    C1136749   1.103   4.843   6.409 -0.3116 -0.1487 -0.2699
   40MOL    O1236750   1.232   4.874   6.465 -0.1873 -0.1254 -0.0410
   40MOL    C1336751   1.298   4.979   6.428  0.1262 -0.9239  0.1322
   40MOL    O1436752   1.263   5.062   6.341 -0.7274 -0.0363 -0.7705
   40MOL    C1536753   1.421   4.989   6.518  0.5865  0.4071  0.1598
   40MOL    C1636754   1.425   4.929   6.648 -0.0954  0.5512  0.5086
   40MOL    C1736755   1.542   4.956   6.731  0.0965  0.0021 -0.6813
   40MOL    C1836756   1.644   5.042   6.688  0.0976  0.4264  0.9040
   40MOL    C1936757   1.757   5.073   6.778 -0.1931 -0.0709  0.7319
   40MOL    O2036758   1.865   5.123   6.738 -0.3018 -0.1954 -0.6769
   40MOL    O2136759   1.722   5.067   6.907  0.3174  0.0518  0.3263
   40MOL    C2236760   1.631   5.093   6.559  0.0668  0.6046 -0.2250
   40MOL    C2336761   1.524   5.061   6.474 -0.1424 -0.0506 -0.3027
   40MOL    H2436762   1.356   4.354   5.637  0.4962  0.4716 -0.2356
   40MOL    H2536763   1.320   4.522   5.640 -0.5958  0.2797 -1.1936
   40MOL    H2636764   1.193   4.494   5.853 -0.8880 -2.0983  0.7327
   40MOL    H2736765   1.372   4.453   5.864 -0.0921 -1.3778  0.5227
   40MOL    H2836766   1.144   4.251   5.863  0.1113  0.2643 -0.4424
   40MOL    H2936767   1.312   4.212   5.840 -1.0362  1.0482 -0.1032
   40MOL    H3036768   1.377   4.271   6.053  0.0696 -0.1633 -0.1057
   40MOL    H3136769   1.221   4.188   6.062 -0.6937  0.8031  0.1091
   40MOL    H3236770   1.256   4.491   6.094 -1.7644  0.3066  0.2410
   40MOL    H3336771   1.103   4.408   6.095 -0.1688 -1.9404 -0.4578
   40MOL    H3436772   1.197   4.263   6.299 -1.3620 -1.0034 -4.0826
   40MOL    H3536773   1.321   4.382   6.298 -0.3582  0.7166  0.1830
   40MOL    H3636774   1.028   4.448   6.324  1.0645 -1.7974 -1.7581
   40MOL    H3736775   1.131   4.421   6.459  0.0610  1.1685  1.4910
   40MOL    H3836776   1.282   4.619   6.382  0.1453  0.3509 -0.0071
   40MOL    H3936777   1.181   4.643   6.248 -0.1697  0.0512 -0.6781
   40MOL    H4036778   1.096   4.678   6.535  1.0415 -0.7264 -0.4107
   40MOL    H4136779   0.982   4.691   6.396 -0.1755 -0.2650 -1.5110
   40MOL    H4236780   1.032   4.902   6.467 -1.1610 -2.6386  1.2709
   40MOL    H4336781   1.097   4.870   6.303 -0.6027  1.3719  0.1193
   40MOL    H4436782   1.338   4.878   6.685  0.9312 -0.0050  2.2391
   40MOL    H4536783   1.547   4.914   6.831  2.3771  0.1347 -0.7058
   40MOL    H4636784   1.713   5.152   6.521  0.6877 -1.1622 -1.7083
   40MOL    H4736785   1.532   5.089   6.370 -0.1398 -0.0631 -0.3059
   40MOL    H4836786   1.117   4.317   5.654  0.0879  0.0619  0.8386
   40MOL    O4936787   1.823   5.123   7.003 -0.1386 -0.2990 -0.3583
   40MOL    C5036788   1.849   5.022   7.094  0.6059 -0.0987  0.4875
   40MOL    C5136789   1.953   5.077   7.185  0.3838 -0.1245  0.3252
   40MOL    C5236790   1.976   4.977   7.306  0.2892 -0.1220  0.1498
   40MOL    C5336791   2.081   5.027   7.410 -0.6803 -0.2672 -0.2971
   40MOL    C5436792   2.146   4.919   7.501 -0.5085 -0.6697 -0.7930
   40MOL    C5536793   2.237   4.968   7.617 -0.7531  0.5529  0.6340
   40MOL    C5636794   2.377   5.003   7.575 -1.4107 -0.4101  0.0615
   40MOL    C5736795   2.475   5.036   7.687  0.7743  0.2253 -0.5607
   40MOL    C5836796   2.618   5.059   7.641 -0.7130 -0.3477 -0.0964
   40MOL    C5936797   2.721   5.098   7.748 -0.4316  1.0633 -0.2690
   40MOL    O6036798   2.846   5.141   7.689  0.3107 -0.0917  0.6708
   40MOL    C6136799   2.894   5.262   7.727  0.3228 -0.0470  0.1725
   40MOL    O6236800   2.829   5.347   7.793  0.3913 -0.3836  0.2084
   40MOL    C6336801   3.039   5.282   7.683  0.3284  0.4591 -0.5859
   40MOL    C6436802   3.123   5.372   7.750  0.6259  0.1387 -0.4016
   40MOL    C6536803   3.253   5.400   7.708 -0.6789  0.0740  0.1912
   40MOL    C6636804   3.302   5.337   7.590 -0.5313 -0.9201 -0.1756
   40MOL    C6736805   3.442   5.359   7.543  0.6822  0.3085 -0.0524
   40MOL    O6836806   3.478   5.355   7.429 -0.1689 -0.3897  0.1425
   40MOL    O6936807   3.523   5.390   7.652  0.1625 -0.9523  0.8022
   40MOL    C7036808   3.216   5.252   7.512 -0.3017  0.2948  0.0916
   40MOL    C7136809   3.088   5.219   7.565 -0.6433  0.0123  0.4360
   40MOL    H7236810   1.755   4.983   7.133  0.7211 -1.8166 -0.8873
   40MOL    H7336811   1.895   4.942   7.036  2.5861  0.2305  1.5431
   40MOL    H7436812   1.915   5.173   7.221 -1.7959 -0.9142  0.2171
   40MOL    H7536813   2.046   5.090   7.131 -0.5706  3.9347 -0.4410
   40MOL    H7636814   1.881   4.943   7.346  1.2270 -1.1919  1.5257
   40MOL    H7736815   2.012   4.886   7.258  1.3655  1.8661 -2.9895
   40MOL    H7836816   2.045   5.123   7.446  1.2250  1.1888 -2.1490
   40MOL    H7936817   2.162   5.064   7.348  0.4407 -1.7839  0.2327
   40MOL    H8036818   2.063   4.872   7.553 -0.2035 -0.5502 -0.1886
   40MOL    H8136819   2.192   4.833   7.452 -0.6402 -1.9598  1.2523
   40MOL    H8236820   2.192   5.037   7.688 -0.0546  0.3380  1.3037
   40MOL    H8336821   2.242   4.883   7.685 -1.7191  0.5346  0.6837
   40MOL    H8436822   2.417   4.921   7.515 -0.4199  0.7722 -0.9183
   40MOL    H8536823   2.383   5.091   7.511  0.1192  0.4861  1.3620
   40MOL    H8636824   2.434   5.122   7.739  2.3211  0.2507  0.6728
   40MOL    H8736825   2.462   4.954   7.759  0.6597  2.0433  1.5289
   40MOL    H8836826   2.625   5.142   7.572  1.2035  0.3255  0.8908
   40MOL    H8936827   2.667   4.972   7.596 -0.9087 -0.3703 -0.2708
   40MOL    H9036828   2.746   5.005   7.800  1.1155  2.1529  0.9814
   40MOL    H9136829   2.681   5.168   7.821 -0.1666 -0.3420  1.2686
   40MOL    H9236830   3.087   5.419   7.840 -0.1261  0.2863 -0.7707
   40MOL    H9336831   3.321   5.454   7.772  2.4360 -0.3439 -2.6047
   40MOL    H9436832   3.257   5.209   7.421  0.1090 -0.5562  0.6729
   40MOL    H9536833   3.035   5.140   7.515  1.7190 -0.7013 -1.0292
   40MOL    O9636834   3.647   5.462   7.616 -0.2399 -0.0909  0.0792
   40MOL    C9736835   3.758   5.371   7.598 -0.4686  0.0384  0.1846
   40MOL    C9836836   3.807   5.317   7.736  0.3886 -0.1038  0.5273
   40MOL    C9936837   3.927   5.232   7.744 -0.8338 -0.5547  0.1120
   40MOL   C10036838   3.959   5.185   7.887  0.4591 -0.1648  0.2611
   40MOL   C10136839   4.098   5.120   7.891 -0.6547 -0.0791  0.0425
   40MOL   C10236840   4.143   5.063   0.045 -0.5548 -0.0261 -0.3544
   40MOL   C10336841   4.197   5.174   0.135 -0.4605  0.8252 -0.1393
   40MOL   C10436842   4.345   5.213   0.111  0.3434 -0.1865 -0.1678
   40MOL   C10536843   4.383   5.343   0.182  0.0068  0.1147 -0.4963
   40MOL   C10636844   4.513   5.407   0.121  0.2155 -0.1166 -0.2292
   40MOL   O10736845   4.539   5.531   0.195 -0.2641 -0.5638 -0.5685
   40MOL   C10836846   4.659   5.561   0.235  0.2472  0.6497  0.3934
   40MOL   O10936847   4.749   5.483   0.233 -0.6256 -0.1782  0.1300
   40MOL   C11036848   4.679   5.700   0.282 -0.3426  0.6459 -0.3890
   40MOL   C11136849   4.808   5.735   0.334 -0.1050  0.5023 -0.5083
   40MOL   C11236850   4.826   5.865   0.385 -0.3339  0.1129  0.0315
   40MOL   C11336851   4.714   5.958   0.403 -0.3485  0.5754 -0.4108
   40MOL   C11436852   4.743   6.092   0.461 -0.4534 -0.0795 -0.7538
   40MOL   O11536853   4.858   6.140   0.477  0.0015  0.1269  0.8180
   40MOL   O11636854   4.640   6.159   0.498  0.4739  0.3175  0.0970
   40MOL   C11736855   4.585   5.909   0.367 -0.6666 -0.5594 -0.3230
   40MOL   C11836856   4.564   5.783   0.307 -0.4123  0.0702 -0.3518
   40MOL   H11936857   3.717   5.293   7.534  0.3276 -1.3216  1.3156
   40MOL   H12036858   3.836   5.436   7.559 -0.2681  0.0983  0.6874
   40MOL   H12136859   3.722   5.269   7.784  0.3035 -0.7784 -0.2951
   40MOL   H12236860   3.829   5.410   7.789 -0.1801 -1.0719  2.4848
   40MOL   H12336861   3.922   5.146   7.677 -1.1926  0.9934 -1.8687
   40MOL   H12436862   4.015   5.281   7.705 -0.9946 -1.1185 -0.9648
   40MOL   H12536863   3.878   5.129   7.936 -0.4815 -0.2906 -1.4131
   40MOL   H12636864   3.970   5.277   7.945  1.1198 -0.3820  0.4767
   40MOL   H12736865   4.105   5.036   7.822 -1.2959 -0.0987 -0.0078
   40MOL   H12836866   4.175   5.192   7.864 -2.5425  1.6368 -0.9189
   40MOL   H12936867   4.052   5.014   0.080 -0.2033 -0.4090  0.0368
   40MOL   H13036868   4.220   4.986   0.030  2.1248  2.7943 -1.6742
   40MOL   H13136869   4.129   5.260   0.132  0.4313  1.5281 -0.4593
   40MOL   H13236870   4.183   5.139   0.237  0.0552  0.8411 -0.0610
   40MOL   H13336871   4.410   5.128   0.135  0.0480  0.3242  2.5784
   40MOL   H13436872   4.361   5.227   0.004  0.9301  2.5970  0.2524
   40MOL   H13536873   4.396   5.345   0.290  3.1590  1.6648 -0.8341
   40MOL   H13636874   4.304   5.413   0.158 -1.1316 -1.5524 -1.7774
   40MOL   H13736875   4.504   5.430   0.015 -0.4447 -0.6926 -0.3052
   40MOL   H13836876   4.600   5.344   0.135  0.0767  0.1662  2.0299
   40MOL   H13936877   4.898   5.679   0.315  0.7964  1.3895  1.0652
   40MOL   H14036878   4.923   5.904   0.413 -1.1561  2.4423 -0.2220
   40MOL   H14136879   4.499   5.974   0.378  0.8752  1.5463 -0.3509
   40MOL   H14236880   4.468   5.754   0.269  0.4463  0.0425 -2.5886
   40MOL   O14336881   4.670   6.307   0.525  0.1032 -0.1189 -0.1920
   40MOL   C14436882   4.645   6.376   0.411  0.2280  0.1921 -0.4790
   40MOL   C14536883   4.582   6.514   0.455 -0.2076  0.0523  0.7066
   40MOL   C14636884   4.536   6.595   0.332 -0.1061 -0.1324  0.0275
   40MOL   C14736885   4.482   6.728   0.376 -0.4425 -0.2597  0.1026
   40MOL   C14836886   4.334   6.710   0.438  0.3113 -0.4177 -0.1100
   40MOL   C14936887   4.252   6.839   0.416  0.6890  0.2449 -0.3645
   40MOL   C15036888   4.109   6.831   0.463  0.3005 -0.1547 -0.2553
   40MOL   C15136889   4.040   6.966   0.462 -0.2921  0.2190  0.2764
   40MOL   C15236890   3.890   6.943   0.487 -0.2999  0.0107 -0.1776
   40MOL   C15336891   3.873   6.924   0.640  0.1643  0.1193 -0.8139
   40MOL   O15436892   3.734   6.905   0.668  0.5407 -0.5282  0.2945
   40MOL   C15536893   3.682   6.891   0.790 -0.5753 -0.9554  0.3296
   40MOL   O15636894   3.753   6.900   0.891  0.3982  0.1445 -0.3898
   40MOL   C15736895   3.546   6.845   0.798  0.6123  0.3417 -0.1435
   40MOL   C15836896   3.477   6.783   0.688 -0.1581  0.2486  0.0199
   40MOL   C15936897   3.348   6.725   0.707 -0.4979  0.3152 -0.2452
   40MOL   C16036898   3.288   6.722   0.832  0.1097 -0.2653 -0.1582
   40MOL   C16136899   3.149   6.673   0.849 -0.3492 -0.0025  0.3659
   40MOL   O16236900   3.083   6.609   0.762 -0.3425 -0.3080 -0.2755
   40MOL   O16336901   3.088   6.692   0.967 -0.1842  0.0947 -0.0871
   40MOL   C16436902   3.350   6.786   0.944  0.1694  0.1763  0.5774
   40MOL   C16536903   3.477   6.844   0.925  0.8394 -0.4826  0.5272
   40MOL   H16636904   4.736   6.403   0.359  0.6733  1.4138  0.9090
   40MOL   H16736905   4.576   6.322   0.346 -0.7121  1.9996 -1.0184
   40MOL   H16836906   4.652   6.564   0.523  0.8485 -1.3226  0.6540
   40MOL   H16936907   4.499   6.495   0.524 -0.2163  0.4079  0.7944
   40MOL   H17036908   4.611   6.617   0.257 -0.7055  0.9911 -0.2521
   40MOL   H17136909   4.452   6.548   0.281  0.2098  0.6335 -1.2203
   40MOL   H17236910   4.470   6.799   0.294  0.0442  1.1880  1.2657
   40MOL   H17336911   4.543   6.777   0.452 -1.6907  0.8004  0.4465
   40MOL   H17436912   4.277   6.629   0.392  0.3066 -0.0776 -0.7115
   40MOL   H17536913   4.334   6.679   0.542 -1.4389 -0.3390 -0.0789
   40MOL   H17636914   4.301   6.925   0.461 -0.5692  0.3337  0.8560
   40MOL   H17736915   4.250   6.856   0.308 -0.9152 -0.2420 -0.4240
   40MOL   H17836916   4.064   6.765   0.388  1.0097  0.6588 -1.4175
   40MOL   H17936917   4.094   6.772   0.553 -0.0393 -0.6490 -0.6320
   40MOL   H18036918   4.092   7.031   0.531 -1.6309  2.1322 -0.4814
   40MOL   H18136919   4.058   7.010   0.364 -0.6528 -0.5800 -0.1591
   40MOL   H18236920   3.848   6.859   0.433  1.6717 -1.8392  1.1113
   40MOL   H18336921   3.846   7.038   0.456 -0.3979 -0.4214 -1.3790
   40MOL   H18436922   3.922   7.000   0.700  0.3301 -0.5964 -0.0291
   40MOL   H18536923   3.920   6.828   0.663 -1.4651  0.0880  2.5879
   40MOL   H18636924   3.527   6.774   0.593 -2.4830  1.6481 -1.4030
   40MOL   H18736925   3.299   6.673   0.626 -0.8086 -0.9182  0.7095
   40MOL   H18836926   3.300   6.789   1.039  2.3213  0.2486  1.7434
   40MOL   H18936927   3.525   6.885   1.012 -2.5092  1.2001  1.6671
   40MOL   O19036928   2.945   6.650   0.976  0.8711  0.2576  0.1882
   40MOL   C19136929   2.929   6.525   1.038 -0.4862  0.9406 -0.3923
   40MOL   C19236930   2.797   6.464   1.004  0.4822  0.3660  0.2204
   40MOL   C19336931   2.674   6.557   1.042 -0.1159  0.0763 -0.3719
   40MOL   C19436932   2.542   6.512   0.972  0.6626 -0.8197 -0.4060
   40MOL   C19536933   2.422   6.602   1.011  0.1195 -0.0584  0.2297
   40MOL   C19636934   2.377   6.570   1.160  0.3985  0.1158  0.3612
   40MOL   C19736935   2.248   6.642   1.196  0.5857  0.1121 -0.7989
   40MOL   C19836936   2.207   6.606   1.341  0.3276 -0.3629 -0.0541
   40MOL   C19936937   2.059   6.645   1.358 -0.6932 -0.0417  0.4967
   40MOL   C20036938   2.004   6.625   1.496 -0.4711 -0.7775 -0.2117
   40MOL   O20136939   1.879   6.700   1.494 -0.2914 -0.2751 -0.2436
   40MOL   C20236940   1.835   6.746   1.611  0.4862 -0.3174  0.2346
   40MOL   O20336941   1.870   6.698   1.720  0.0737 -0.2209 -0.3387
   40MOL   C20436942   1.742   6.864   1.604  0.2778 -0.4720 -0.2191
   40MOL   C20536943   1.770   6.967   1.509 -0.3678 -0.2574 -0.0340
   40MOL   C20636944   1.692   7.081   1.499  0.1297 -0.3499  0.2540
   40MOL   C20736945   1.583   7.097   1.580  0.0978  0.0623 -0.3609
   40MOL   C20836946   1.486   7.204   1.551  0.5701  0.8984 -0.9123
   40MOL   O20936947   1.368   7.181   1.571  0.3471  0.1635 -0.2270
   40MOL   O21036948   1.537   7.315   1.489  0.3694  0.1974  0.2958
   40MOL   C21136949   1.560   7.009   1.688  0.0429  0.2057 -1.0669
   40MOL   C21236950   1.636   6.890   1.696  0.7896 -0.0652  0.3864
   40MOL   H21336951   3.008   6.456   1.008  1.1965  2.1119  1.1824
   40MOL   H21436952   2.947   6.552   1.142  2.1637  2.9017 -1.2769
   40MOL   H21536953   2.796   6.369   1.057  1.9149 -0.2131 -0.7594
   40MOL   H21636954   2.792   6.456   0.896 -1.7629  2.6450  0.1141
   40MOL   H21736955   2.665   6.570   1.150  0.7481 -1.6730 -0.0765
   40MOL   H21836956   2.686   6.661   1.011  0.8845 -0.3137 -1.2968
   40MOL   H21936957   2.522   6.409   1.004  0.6197 -0.4087  0.9556
   40MOL   H22036958   2.557   6.505   0.865  1.9214  0.6341 -0.3460
   40MOL   H22136959   2.451   6.707   1.001  0.8352 -0.1950  0.7409
   40MOL   H22236960   2.334   6.597   0.948  0.0719  3.3856 -0.0693
   40MOL   H22336961   2.367   6.466   1.191 -1.6361  0.2996  0.4096
   40MOL   H22436962   2.457   6.602   1.227  1.2726  0.3840 -0.7981
   40MOL   H22536963   2.253   6.750   1.180  0.1119  0.1890 -0.4289
   40MOL   H22636964   2.176   6.608   1.122  0.3996 -0.4623 -0.3547
   40MOL   H22736965   2.222   6.501   1.368  0.9715  0.0481  1.2256
   40MOL   H22836966   2.268   6.656   1.417  0.3252 -0.3676 -0.0494
   40MOL   H22936967   1.996   6.582   1.295  1.9248 -1.5275 -0.7167
   40MOL   H23036968   2.050   6.752   1.342  0.9093 -0.2198 -1.9419
   40MOL   H23136969   2.079   6.654   1.570 -0.3452 -0.2273 -0.5585
   40MOL   H23236970   1.981   6.521   1.523  0.3401 -0.7258  0.7281
   40MOL   H23336971   1.839   6.951   1.427 -1.0633  2.2751 -1.1745
   40MOL   H23436972   1.712   7.154   1.422  0.7132 -0.9582 -0.1828
   40MOL   H23536973   1.486   7.032   1.763 -0.2393 -1.4300 -0.8362
   40MOL   H23636974   1.620   6.809   1.765 -0.0237  0.4987  0.8810
   40MOL   O23736975   1.428   7.406   1.440  0.3288  0.4529 -0.4640
   40MOL   C23836976   1.402   7.508   1.533 -0.0065 -0.5706 -0.0145
   40MOL   C23936977   1.293   7.608   1.474 -0.2789 -0.4153 -0.1430
   40MOL   C24036978   1.322   7.677   1.341  0.2674 -0.6059 -0.2456
   40MOL   C24136979   1.203   7.736   1.276  0.5931  0.2441  0.4012
   40MOL   C24236980   1.100   7.645   1.202 -0.2816  0.1966 -0.4027
   40MOL   C24336981   0.985   7.737   1.148 -0.3168 -0.6041 -0.2459
   40MOL   C24436982   0.890   7.677   1.050  0.1482 -0.3330 -0.4723
   40MOL   C24536983   0.813   7.780   0.971 -0.4401  0.5802  0.6556
   40MOL   C24636984   0.876   7.811   0.834  0.4252  0.4690 -0.0583
   40MOL   C24736985   0.830   7.708   0.732 -0.0653 -0.1570  0.0610
   40MOL   O24836986   0.879   7.752   0.609  0.2796  0.2812  0.3336
   40MOL   C24936987   0.843   7.676   0.506  0.0265  0.5280  0.0978
   40MOL   O25036988   0.763   7.580   0.518 -0.2931  0.5930  0.0098
   40MOL   C25136989   0.915   7.714   0.381  0.4211 -0.0936  0.5031
   40MOL   C25236990   0.993   7.828   0.368 -0.2336 -0.2410  1.4461
   40MOL   C25336991   1.063   7.850   0.249 -0.3088  0.0384 -0.2844
   40MOL   C25436992   1.067   7.759   0.145 -0.5694 -0.0875 -0.5248
   40MOL   C25536993   1.156   7.776   0.030 -0.3369  0.3521  0.0582
   40MOL   O25636994   1.229   7.874   0.025  0.0940  0.4003  0.7562
   40MOL   O25736995   1.141   7.679   7.906  0.1944 -0.1520 -0.2801
   40MOL   C25836996   0.988   7.641   0.156 -0.5621  0.4133 -0.1966
   40MOL   C25936997   0.916   7.621   0.277  0.1011  0.2571 -0.1608
   40MOL   H26036998   1.366   7.466   1.627 -0.4821 -1.9300 -0.7990
   40MOL   H26136999   1.499   7.551   1.557  0.8120 -0.9382 -2.5760
   40MOL   H26237000   1.250   7.669   1.554  0.5075 -1.2832  0.9584
   40MOL   H26337001   1.206   7.546   1.449 -0.3527  0.4676 -2.1095
   40MOL   H26437002   1.402   7.750   1.358  0.0908 -0.4541 -0.0648
   40MOL   H26537003   1.371   7.609   1.271 -0.0935 -1.4349  0.3036
   40MOL   H26637004   1.247   7.811   1.211 -1.4398  2.3196  1.3268
   40MOL   H26737005   1.147   7.791   1.351 -0.0377  0.0022  0.1158
   40MOL   H26837006   1.146   7.588   1.121 -1.6786 -1.4719 -0.0428
   40MOL   H26937007   1.063   7.576   1.279  2.6288 -1.0446 -0.0559
   40MOL   H27037008   0.925   7.785   1.224  0.9779 -0.6508  0.8284
   40MOL   H27137009   1.039   7.823   1.107  0.7660 -0.7984  0.7601
   40MOL   H27237010   0.938   7.607   0.982  3.9032  0.6494  1.0887
   40MOL   H27337011   0.815   7.632   1.116 -1.3351  3.2979  0.4218
   40MOL   H27437012   0.708   7.763   0.946 -0.2617 -0.3306  0.5070
   40MOL   H27537013   0.807   7.874   1.026 -0.6330 -0.0074  1.6616
   40MOL   H27637014   0.982   7.833   0.841  0.2060  2.8013 -3.1379
   40MOL   H27737015   0.838   7.911   0.815 -0.7638  0.0172 -0.1646
   40MOL   H27837016   0.721   7.707   0.726 -0.0820 -1.1854  0.2816
   40MOL   H27937017   0.875   7.610   0.752  0.6152 -0.4350 -2.6937
   40MOL   H28037018   0.995   7.908   0.441 -0.0463  0.6344  0.4833
   40MOL   H28137019   1.109   7.947   0.234 -2.9296  1.3798 -0.0270
   40MOL   H28237020   0.983   7.567   0.077 -0.6873  1.4902 -1.2212
   40MOL   H28337021   0.848   7.538   0.288 -0.3807  0.5110 -1.1604
   40MOL   O28437022   1.243   7.681   7.802 -0.1463 -0.1397  0.3106
   40MOL   C28537023   1.193   7.704   7.672  0.8189 -0.6169 -0.3873
   40MOL   C28637024   1.287   7.653   7.559  0.1432 -0.2942  0.1630
   40MOL   C28737025   1.224   7.680   7.421 -0.0096 -0.5516 -0.4471
   40MOL   C28837026   1.323   7.646   7.308  0.1388 -0.0856 -0.2058
   40MOL   C28937027   1.260   7.637   7.172 -0.1808 -0.2496 -0.0830
   40MOL   C29037028   1.354   7.607   7.052  0.9939 -0.0264  0.4001
   40MOL   C29137029   1.431   7.473   7.060 -1.0672 -0.1338 -0.1046
   40MOL   C29237030   1.541   7.477   6.940  0.6798  0.2276 -0.4156
   40MOL   C29337031   1.626   7.357   6.945 -0.3214  0.5092 -0.0084
   40MOL   C29437032   1.720   7.339   6.826 -0.0853  0.4407 -0.6373
   40MOL   O29537033   1.767   7.206   6.833  0.4649 -0.4395  0.3676
   40MOL   C29637034   1.844   7.163   6.728  0.1163 -0.5358 -0.1715
   40MOL   O29737035   1.874   7.231   6.630 -0.1525 -0.0667 -0.3409
   40MOL   C29837036   1.902   7.027   6.754 -0.2184  0.1495  0.1990
   40MOL   C29937037   1.977   6.952   6.652 -0.0215  0.1435  0.1297
   40MOL   C30037038   2.026   6.827   6.680  0.2321 -0.1739 -0.4321
   40MOL   C30137039   1.997   6.762   6.807 -0.2743 -0.2438  0.5214
   40MOL   C30237040   2.038   6.623   6.838  0.4846 -0.0918  0.4432
   40MOL   O30337041   2.116   6.557   6.768  0.5020  0.1045  0.5761
   40MOL   O30437042   1.970   6.561   6.937 -0.0936 -0.7241  0.0741
   40MOL   C30537043   1.920   6.834   6.906 -0.1176  0.6655  0.2383
   40MOL   C30637044   1.880   6.963   6.881  0.9542  0.5973  0.4572
   40MOL   H30737045   1.099   7.651   7.659 -1.0766  2.2683  0.7866
   40MOL   H30837046   1.182   7.813   7.667  0.4349 -0.7352 -2.2887
   40MOL   H30937047   1.309   7.547   7.556  0.5394 -0.2606  1.4531
   40MOL   H31037048   1.379   7.711   7.562 -0.8938  1.3679  0.9073
   40MOL   H31137049   1.133   7.620   7.413  0.2724 -0.7715 -2.0149
   40MOL   H31237050   1.186   7.780   7.402 -0.5214 -0.6643 -0.0538
   40MOL   H31337051   1.375   7.553   7.331 -1.9502 -1.2889 -0.2537
   40MOL   H31437052   1.405   7.719   7.310 -0.3907  0.5114 -0.1811
   40MOL   H31537053   1.192   7.553   7.178 -0.4565 -0.2261 -2.4615
   40MOL   H31637054   1.199   7.724   7.148 -1.6774 -1.6675 -1.5834
   40MOL   H31737055   1.301   7.622   6.958 -0.9221  0.9056  1.6080
   40MOL   H31837056   1.422   7.692   7.057  2.1981 -0.9098 -0.6149
   40MOL   H31937057   1.488   7.464   7.153 -0.3751 -2.3202 -0.7094
   40MOL   H32037058   1.362   7.389   7.068 -0.2228 -1.0021 -1.6792
   40MOL   H32137059   1.479   7.462   6.851  1.5091 -1.2430 -0.7687
   40MOL   H32237060   1.597   7.570   6.933 -0.3308  0.9342  0.6274
   40MOL   H32337061   1.572   7.264   6.956  1.0864 -0.4137 -0.8018
   40MOL   H32437062   1.678   7.359   7.041  1.3750 -0.8881 -0.8739
   40MOL   H32537063   1.805   7.407   6.833  0.2065  0.0453 -0.3016
   40MOL   H32637064   1.658   7.344   6.737 -2.3895 -0.2677  0.8715
   40MOL   H32737065   1.985   6.989   6.551 -3.8869 -1.3192 -0.7870
   40MOL   H32837066   2.081   6.770   6.606  0.0907 -1.1595  0.2151
   40MOL   H32937067   1.896   6.785   6.999 -1.0203  0.0720 -0.2925
   40MOL   H33037068   1.835   7.024   6.958  0.6595 -0.7254  1.3387
   40MOL   O33137069   2.002   6.419   6.976 -0.7245 -0.6129  0.1035
   40MOL   C33237070   2.108   6.428   7.071  0.3627 -0.1869  0.1323
   40MOL   C33337071   2.128   6.291   7.141  0.6887 -0.3273  0.0451
   40MOL   C33437072   2.244   6.310   7.235 -0.1603  0.0721  0.6172
   40MOL   C33537073   2.217   6.410   7.349 -0.1702 -0.2754 -0.3883
   40MOL   C33637074   2.099   6.388   7.435  0.4989 -0.1716 -0.1142
   40MOL   C33737075   2.085   6.491   7.550  1.0700 -0.5050 -0.2844
   40MOL   C33837076   2.011   6.617   7.501  0.1647 -0.0070 -0.3451
   40MOL   C33937077   1.976   6.704   7.620 -0.1209 -0.2098  0.7308
   40MOL   C34037078   1.883   6.813   7.583 -0.4695  0.1464  0.2393
   40MOL   C34137079   1.846   6.911   7.700  0.1366  0.1864  0.0461
   40MOL   O34237080   1.962   6.958   7.767 -0.5685 -0.2545 -0.1424
   40MOL   C34337081   2.038   7.067   7.724 -0.2329  0.6177 -0.3035
   40MOL   O34437082   2.013   7.139   7.626 -0.1495 -0.0527 -0.3193
   40MOL   C34537083   2.159   7.081   7.813  0.4159 -0.4005  0.2782
   40MOL   C34637084   2.234   7.194   7.793  0.0029  0.1278  0.2141
   40MOL   C34737085   2.341   7.221   7.883 -0.0602  0.1917 -0.3200
   40MOL   C34837086   2.359   7.141   0.020 -0.6626  0.3021 -0.6234
   40MOL   C34937087   2.455   7.180   0.129  0.2812  0.6081 -0.0666
   40MOL   O35037088   2.528   7.279   0.120 -0.0312  0.0816  0.1873
   40MOL   O35137089   2.444   7.098   0.236 -0.3961  0.0182 -0.5911
   40MOL   C35237090   2.279   7.023   0.032  0.1130  0.5584 -0.0169
   40MOL   C35337091   2.186   6.991   7.916  0.3384 -0.2769 -0.2187
   40MOL   H35437092   2.200   6.464   7.025 -0.0844 -0.2337 -0.8302
   40MOL   H35537093   2.076   6.504   7.142  2.0660  1.5941 -0.9567
   40MOL   H35637094   2.169   6.217   7.072 -3.1810 -1.2139 -1.4007
   40MOL   H35737095   2.041   6.237   7.177  1.5422 -1.4685  0.4317
   40MOL   H35837096   2.278   6.213   7.272  1.1954  0.1469 -0.3961
   40MOL   H35937097   2.331   6.348   7.182 -1.3372  2.5933  0.4539
   40MOL   H36037098   2.203   6.511   7.310  2.8399 -0.1500 -1.3157
   40MOL   H36137099   2.312   6.413   7.403 -0.4945  2.6280  0.1173
   40MOL   H36237100   2.010   6.383   7.372 -0.7378  0.1357  1.5441
   40MOL   H36337101   2.105   6.291   7.483  3.5047 -0.3452 -0.7610
   40MOL   H36437102   2.021   6.456   7.631  0.1339  0.2482 -0.6896
   40MOL   H36537103   2.183   6.498   7.599  0.4558  1.0853  0.7628
   40MOL   H36637104   2.052   6.671   7.416 -1.0617  4.0381  1.5027
   40MOL   H36737105   1.919   6.578   7.459  0.3411 -0.3412 -0.4227
   40MOL   H36837106   1.930   6.654   7.705  1.1724  2.2108  2.9360
   40MOL   H36937107   2.067   6.750   7.657  0.3540  1.1140 -1.9177
   40MOL   H37037108   1.792   6.769   7.543 -0.4457  1.1483 -0.9500
   40MOL   H37137109   1.930   6.883   7.514  0.8161  1.9851  2.8669
   40MOL   H37237110   1.788   6.853   7.771  0.9774  0.3678  0.8936
   40MOL   H37337111   1.780   6.983   7.651 -0.2311 -0.9402 -1.1556
   40MOL   H37437112   2.205   7.264   7.717  1.5545  0.0204 -0.4790
   40MOL   H37537113   2.403   7.309   7.871  0.3336  0.0511  0.6835
   40MOL   H37637114   2.281   6.951   0.112  0.0022 -1.2825 -1.6284
   40MOL   H37737115   2.139   6.896   7.940 -1.0638  0.4875  0.1080
   40MOL   O37837116   2.552   7.129   0.337 -0.3211  0.1526  0.5791
   40MOL   C37937117   2.489   7.199   0.442 -0.3631 -0.1612 -0.1752
   40MOL   C38037118   2.560   7.173   0.575 -0.4650  0.5521  0.0795
   40MOL   C38137119   2.495   7.241   0.703  0.5406  0.0862 -0.2013
   40MOL   C38237120   2.552   7.203   0.843 -0.0359  0.1775 -1.0175
   40MOL   C38337121   2.459   7.233   0.966  0.2906 -0.6837 -0.0096
   40MOL   C38437122   2.522   7.199   1.096  0.5530  0.6583 -0.3123
   40MOL   C38537123   2.513   7.046   1.132 -0.2659 -0.0442  0.5600
   40MOL   C38637124   2.598   7.019   1.257 -0.1108  0.6782 -0.1256
   40MOL   C38737125   2.603   6.867   1.301 -0.1949 -0.2199 -0.4474
   40MOL   C38837126   2.693   6.833   1.425 -0.3908  0.0425  0.2753
   40MOL   O38937127   2.736   6.699   1.443 -0.1053  0.1542 -0.2096
   40MOL   C39037128   2.804   6.669   1.548 -0.0331 -0.3445  0.2245
   40MOL   O39137129   2.837   6.748   1.639 -0.0601 -0.0653 -0.0702
   40MOL   C39237130   2.831   6.523   1.555  0.0418 -0.3840  0.1090
   40MOL   C39337131   2.898   6.466   1.667 -0.4211  0.2471 -0.4100
   40MOL   C39437132   2.943   6.329   1.656 -0.0945 -0.1628 -0.2549
   40MOL   C39537133   2.900   6.239   1.553  0.0774  0.5367 -0.6029
   40MOL   C39637134   2.902   6.094   1.565  0.4551  0.6603 -0.6306
   40MOL   O39737135   2.847   6.028   1.475  0.9574  0.1655 -0.4857
   40MOL   O39837136   2.965   6.044   1.677  0.2853  0.1263 -0.1627
   40MOL   C39937137   2.833   6.301   1.452 -0.5699 -0.2079  0.0536
   40MOL   C40037138   2.806   6.439   1.447 -0.5849 -0.3252 -1.0875
   40MOL   H40137139   2.488   7.304   0.411 -0.7789  0.6353  2.3848
   40MOL   H40237140   2.386   7.166   0.449 -0.5309  0.1934 -0.8881
   40MOL   H40337141   2.668   7.189   0.580 -0.3342 -0.3898  0.2670
   40MOL   H40437142   2.564   7.065   0.581  0.0490  0.6884  2.5995
   40MOL   H40537143   2.503   7.349   0.695  2.3802  0.0281  0.6086
   40MOL   H40637144   2.388   7.218   0.701  0.3576  0.7147  1.2855
   40MOL   H40737145   2.650   7.247   0.862 -0.1066 -0.5439  1.1789
   40MOL   H40837146   2.564   7.095   0.852 -2.8256 -0.1717 -1.1256
   40MOL   H40937147   2.423   7.336   0.961  0.4452 -0.6702 -0.9860
   40MOL   H41037148   2.362   7.184   0.966 -0.5520  0.9431  1.3550
   40MOL   H41137149   2.624   7.237   1.096  0.7199  0.2248 -1.2623
   40MOL   H41237150   2.477   7.260   1.174 -0.2745 -1.2689  0.7732
   40MOL   H41337151   2.408   7.018   1.143 -0.1155 -1.7007 -1.7907
   40MOL   H41437152   2.552   6.992   1.046 -0.1324  0.4569  0.3026
   40MOL   H41537153   2.693   7.050   1.214  1.1010 -1.8651  0.5651
   40MOL   H41637154   2.571   7.086   1.339 -0.4706  2.2307 -1.5131
   40MOL   H41737155   2.641   6.814   1.213 -0.6780 -1.0350 -0.1689
   40MOL   H41837156   2.500   6.836   1.317 -0.8289  1.0318 -1.9448
   40MOL   H41937157   2.635   6.865   1.511  0.5710  2.1207  0.1906
   40MOL   H42037158   2.790   6.883   1.418  0.9933 -2.5989 -0.0170
   40MOL   H42137159   2.935   6.529   1.747  2.5275 -0.3875 -1.2260
   40MOL   H42237160   3.005   6.295   1.738 -1.1056  0.6229  0.8602
   40MOL   H42337161   2.801   6.248   1.363  2.0117 -3.6447  1.0591
   40MOL   H42437162   2.760   6.476   1.357  0.1761 -0.9149 -1.7177
   40MOL   O42537163   2.986   5.897   1.676 -0.0500 -0.1802 -0.2670
   40MOL   C42637164   3.111   5.866   1.617  0.3792  0.9231  0.2783
   40MOL   C42737165   3.149   5.723   1.650 -0.0346 -0.2049  0.4474
   40MOL   C42837166   3.066   5.638   1.564 -0.1383  1.0092  0.0049
   40MOL   C42937167   3.117   5.496   1.562 -0.1325 -0.2910 -0.1013
   40MOL   C43037168   3.008   5.390   1.526  0.0801  0.2932  0.3991
   40MOL   C43137169   3.047   5.251   1.473  0.2071  0.5876 -0.3215
   40MOL   C43237170   2.943   5.148   1.477  0.3097 -0.1022  0.0067
   40MOL   C43337171   2.982   5.024   1.391  0.1478 -0.6218 -0.6875
   40MOL   C43437172   2.888   4.904   1.416  0.6365 -0.9891  0.7617
   40MOL   C43537173   2.899   4.794   1.308  0.5220 -0.1918 -0.0869
   40MOL   O43637174   2.831   4.667   1.338  0.1805  0.3118 -0.5496
   40MOL   C43737175   2.837   4.570   1.243 -0.4315 -0.0186  0.7461
   40MOL   O43837176   2.907   4.577   1.141 -0.2472 -0.0999 -0.1984
   40MOL   C43937177   2.757   4.455   1.274  0.4111 -0.0213  0.5279
   40MOL   C44037178   2.671   4.465   1.393  0.1267  0.4304 -0.3667
   40MOL   C44137179   2.603   4.348   1.432  0.0877 -0.5074 -0.0225
   40MOL   C44237180   2.615   4.227   1.360 -0.5331  0.1077  0.6688
   40MOL   C44337181   2.542   4.103   1.414  0.0181 -0.6220  0.2846
   40MOL   O44437182   2.457   4.115   1.504  0.2803 -0.4536 -0.5019
   40MOL   O44537183   2.595   3.986   1.378 -0.3203 -0.3732  0.2882
   40MOL   C44637184   2.690   4.224   1.239 -0.5921  0.1668  0.1816
   40MOL   C44737185   2.765   4.334   1.195 -0.1708  0.2737 -0.9361
   40MOL   H44837186   3.097   5.884   1.510  0.3792 -0.3869  0.0495
   40MOL   H44937187   3.191   5.931   1.652  1.6682 -0.3367 -0.2454
   40MOL   H45037188   3.131   5.694   1.754 -3.0124  0.6185  0.2261
   40MOL   H45137189   3.254   5.734   1.626 -0.2467  0.6887 -0.1036
   40MOL   H45237190   2.967   5.645   1.607 -0.3253 -1.5323  0.0218
   40MOL   H45337191   3.052   5.679   1.464  0.8359  0.6288 -0.2944
   40MOL   H45437192   3.161   5.476   1.659  0.0735  0.6583 -0.0014
   40MOL   H45537193   3.194   5.510   1.485 -1.9239  0.4045 -1.8106
   40MOL   H45637194   2.939   5.394   1.610 -1.4766 -0.5486 -0.8033
   40MOL   H45737195   2.955   5.443   1.446 -1.1449 -0.8928  0.4071
   40MOL   H45837196   3.082   5.255   1.370 -2.5143  2.0264 -1.2532
   40MOL   H45937197   3.132   5.214   1.531 -0.1278 -0.5163 -0.5345
   40MOL   H46037198   2.920   5.116   1.579 -1.0471  1.3732  0.1933
   40MOL   H46137199   2.852   5.186   1.429 -1.3352 -0.7285  2.5203
   40MOL   H46237200   2.982   5.059   1.288 -2.1500 -0.3349 -0.6132
   40MOL   H46337201   3.083   4.992   1.418 -0.1096 -1.2441 -0.4516
   40MOL   H46437202   2.786   4.942   1.417  1.0111  0.3268 -2.8343
   40MOL   H46537203   2.916   4.854   1.509  0.1268 -0.5430  1.1594
   40MOL   H46637204   3.004   4.770   1.291  1.0116  1.7961  0.0162
   40MOL   H46737205   2.854   4.823   1.214  0.5368  0.7181  0.1827
   40MOL   H46837206   2.658   4.553   1.454 -2.1722 -0.7022  0.8651
   40MOL   H46937207   2.531   4.346   1.512  1.8964  0.1939  1.6508
   40MOL   H47037208   2.691   4.133   1.180  0.2136  1.9250 -2.5753
   40MOL   H47137209   2.817   4.319   1.102 -2.9836 -3.0405 -2.1098
   40MOL   O47237210   2.522   3.869   1.424  0.4002  0.0950  0.1634
   40MOL   C47337211   2.586   3.823   1.545 -0.6190 -0.1802 -0.2669
   40MOL   C47437212   2.518   3.701   1.598  0.0525 -0.1862 -0.6451
   40MOL   C47537213   2.374   3.714   1.647  0.0421 -0.5003  0.0592
   40MOL   C47637214   2.356   3.801   1.778  0.0379  0.0220  0.1248
   40MOL   C47737215   2.418   3.751   1.905  0.0910 -1.0602  0.5796
   40MOL   C47837216   2.394   3.850   2.020 -0.0455  0.0648 -0.7675
   40MOL   C47937217   2.462   3.806   2.145  0.0237  0.2030 -0.0197
   40MOL   C48037218   2.496   3.929   2.239  0.9642  0.2498 -0.4028
   40MOL   C48137219   2.573   3.905   2.369  0.6859 -0.6173  0.1694
   40MOL   C48237220   2.588   4.044   2.445  0.6116  0.2143  0.4232
   40MOL   O48337221   2.625   4.027   2.576 -0.1334  0.0542 -0.1298
   40MOL   C48437222   2.754   3.989   2.609 -0.0386 -0.8521  0.4714
   40MOL   O48537223   2.836   3.965   2.518  0.5371 -0.4824  0.2284
   40MOL   C48637224   2.778   3.983   2.756 -0.1333  0.5761  0.5576
   40MOL   C48737225   2.899   3.939   2.809  0.1240  0.0653  0.0588
   40MOL   C48837226   2.925   3.937   2.951  0.0275 -0.2678  0.6929
   40MOL   C48937227   2.827   3.988   3.036  0.5742  0.2425  0.2771
   40MOL   C49037228   2.841   3.997   3.186 -0.9601  0.6056  0.2897
   40MOL   O49137229   2.750   4.019   3.268 -0.0624 -0.5309  0.1002
   40MOL   O49237230   2.977   3.987   3.224 -0.2090  0.1512  0.2973
   40MOL   C49337231   2.693   4.016   2.985  0.0535 -0.7927  0.5453
   40MOL   C49437232   2.681   4.028   2.844  0.0065  0.0119  1.2689
   40MOL   H49537233   2.691   3.802   1.524  0.0876  2.1265  0.7481
   40MOL   H49637234   2.585   3.911   1.611 -0.7188 -0.3893  0.0143
   40MOL   H49737235   2.572   3.656   1.682 -1.0493 -1.1170 -0.4314
   40MOL   H49837236   2.513   3.627   1.518  2.4686 -0.8828 -0.2148
   40MOL   H49937237   2.316   3.758   1.565 -0.2452  1.7733  1.4434
   40MOL   H50037238   2.337   3.612   1.662 -1.2906  0.1942  1.6316
   40MOL   H50137239   2.252   3.821   1.805 -0.4355 -1.7375 -0.3272
   40MOL   H50237240   2.391   3.904   1.765 -2.1100  0.9636  1.4901
   40MOL   H50337241   2.378   3.653   1.932  0.1806 -0.9979  0.9405
   40MOL   H50437242   2.522   3.731   1.879  0.2162 -0.2672  0.4567
   40MOL   H50537243   2.439   3.944   1.985  1.2197 -0.1377  0.2549
   40MOL   H50637244   2.289   3.875   2.029  0.3813  1.3558  0.8785
   40MOL   H50737245   2.411   3.734   2.209 -0.1372  1.4042  1.2221
   40MOL   H50837246   2.555   3.758   2.113  1.6891  2.0894  1.8666
   40MOL   H50937247   2.559   3.995   2.180 -0.3770  1.7919 -0.1430
   40MOL   H51037248   2.409   3.990   2.260  0.6927 -0.8326  1.8861
   40MOL   H51137249   2.666   3.851   2.351 -0.0964 -1.9192 -0.0417
   40MOL   H51237250   2.510   3.835   2.423 -0.9158 -1.3518 -2.5579
   40MOL   H51337251   2.489   4.090   2.447 -0.6956 -2.5410  1.5035
   40MOL   H51437252   2.662   4.104   2.393  1.0780 -0.1605  0.6597
   40MOL   H51537253   2.977   3.901   2.744 -0.7062 -2.0815  0.2645
   40MOL   H51637254   3.028   3.916   2.979  1.0958  1.5851 -1.6363
   40MOL   H51737255   2.617   4.057   3.050  1.9043  2.0925  1.0022
   40MOL   H51837256   2.584   4.068   2.818  0.8344 -0.7663 -3.4530
   40MOL   O51937257   3.001   4.036   3.359  0.2867 -0.4109  0.1334
   40MOL   C52037258   3.001   3.923   3.440 -0.4936 -0.2812 -0.6245
   40MOL   C52137259   3.000   3.956   3.586 -0.3530  0.2993  0.7013
   40MOL   C52237260   2.864   3.991   3.636  0.0994 -0.2810 -0.5761
   40MOL   C52337261   2.805   4.122   3.594  0.1394  0.0955  0.0996
   40MOL   C52437262   2.647   4.129   3.622 -0.0703  0.6694 -0.4716
   40MOL   C52537263   2.577   4.261   3.584 -0.6766  0.2846 -0.2397
   40MOL   C52637264   2.560   4.275   3.434  0.2660 -0.4307  0.8365
   40MOL   C52737265   2.537   4.419   3.384  0.0451  0.7415 -0.6294
   40MOL   C52837266   2.541   4.425   3.229 -0.4474 -0.2767 -0.0252
   40MOL   C52937267   2.678   4.419   3.156  0.1664  0.3687  0.6600
   40MOL   O53037268   2.665   4.410   3.016  0.4092  0.0355  0.2952
   40MOL   C53137269   2.771   4.364   2.942 -0.0559  0.2298  0.0770
   40MOL   O53237270   2.883   4.329   2.993  0.1398  0.2805  0.5325
   40MOL   C53337271   2.740   4.368   2.791 -0.0948  0.1499 -0.1802
   40MOL   C53437272   2.617   4.424   2.743 -0.0081  0.7264 -0.5719
   40MOL   C53537273   2.587   4.421   2.604 -0.2087 -0.4071  0.1863
   40MOL   C53637274   2.681   4.374   2.508  0.7891  1.4028 -0.5132
   40MOL   C53737275   2.673   4.389   2.360 -0.3307  0.2093  0.1589
   40MOL   O53837276   2.750   4.330   2.287  0.4093  0.0963 -0.4739
   40MOL   O53937277   2.574   4.475   2.324 -0.0254  0.4420 -0.7945
   40MOL   C54037278   2.799   4.317   2.561  1.3041 -0.1754 -0.3720
   40MOL   C54137279   2.835   4.315   2.699  0.1156  0.7544 -0.1404
   40MOL   H54237280   2.927   3.850   3.408 -0.3109  0.8671 -3.7863
   40MOL   H54337281   3.092   3.866   3.424  0.3458  1.0090 -0.4944
   40MOL   H54437282   3.066   4.038   3.616  0.1967 -0.5033  1.7247
   40MOL   H54537283   3.039   3.872   3.644 -0.3583  0.2080  0.5743
   40MOL   H54637284   2.787   3.917   3.613 -2.4613  1.8216  0.9819
   40MOL   H54737285   2.869   4.001   3.744 -2.9016 -1.4241 -0.2747
   40MOL   H54837286   2.815   4.138   3.487  0.1684 -0.0713  0.0775
   40MOL   H54937287   2.849   4.205   3.650 -1.8398  0.1174  1.6775
   40MOL   H55037288   2.587   4.055   3.570  0.0799 -0.3339  0.7394
   40MOL   H55137289   2.618   4.098   3.723 -1.6891 -0.9450 -1.4184
   40MOL   H55237290   2.487   4.279   3.642 -1.0767  1.5663 -1.2254
   40MOL   H55337291   2.643   4.340   3.621 -1.1539  0.4576  0.2465
   40MOL   H55437292   2.658   4.242   3.399  0.3642 -0.8469  1.4961
   40MOL   H55537293   2.485   4.207   3.393 -0.4156  0.9341 -0.2118
   40MOL   H55637294   2.433   4.435   3.412  0.3649  0.5267  0.7613
   40MOL   H55737295   2.607   4.490   3.429 -0.2969  0.4837  0.3206
   40MOL   H55837296   2.485   4.514   3.200 -0.9999 -0.8267 -0.6802
   40MOL   H55937297   2.484   4.340   3.190 -0.4661 -0.2258 -0.1088
   40MOL   H56037298   2.734   4.332   3.191 -0.9905 -0.8117 -0.3720
   40MOL   H56137299   2.742   4.506   3.175 -0.0513  0.9648 -1.2235
   40MOL   H56237300   2.549   4.472   2.812 -1.4678  1.8344 -2.7015
   40MOL   H56337301   2.500   4.468   2.561  1.1731  1.9835 -0.1257
   40MOL   H56437302   2.879   4.273   2.504 -0.0966 -2.0741 -0.8974
   40MOL   H56537303   2.924   4.266   2.736  1.3862  2.7027 -0.5569
   40MOL   O56637304   2.578   4.500   2.179  0.2040  0.2055 -0.2021
   40MOL   C56737305   2.664   4.612   2.149  0.0704 -0.2213 -0.0634
   40MOL   C56837306   2.655   4.728   2.248 -0.1253 -0.2574 -0.0562
   40MOL   C56937307   2.685   4.864   2.186 -0.6899 -0.0590  0.6759
   40MOL   C57037308   2.631   4.981   2.273 -0.1083  0.2143 -0.2578
   40MOL   C57137309   2.659   5.127   2.221 -0.0129 -0.5172 -0.6701
   40MOL   C57237310   2.572   5.234   2.289  0.2133 -0.4920  0.1870
   40MOL   C57337311   2.640   5.296   2.406  0.0966 -0.1419 -0.3479
   40MOL   C57437312   2.557   5.398   2.485  0.3620 -0.1048 -0.9847
   40MOL   C57537313   2.469   5.324   2.583 -0.2225  0.1349 -0.6907
   40MOL   C57637314   2.353   5.404   2.633 -0.2241 -0.0650 -0.3859
   40MOL   O57737315   2.257   5.323   2.709 -0.2434  0.6201 -0.5119
   40MOL   C57837316   2.282   5.302   2.843 -0.7804 -0.1484 -0.7940
   40MOL   O57937317   2.372   5.363   2.906 -0.0755 -0.0785 -0.2131
   40MOL   C58037318   2.181   5.216   2.908  0.6408  0.1923  0.7767
   40MOL   C58137319   2.187   5.197   3.047  0.0296 -0.2832  0.5807
   40MOL   C58237320   2.100   5.108   3.112  0.2279  0.6064  0.2351
   40MOL   C58337321   2.014   5.024   3.039  0.0808 -0.5777  0.6907
   40MOL   C58437322   1.930   4.913   3.096  0.2287  0.1332  0.6533
   40MOL   O58537323   1.861   4.839   3.027  0.3735  0.3138 -0.4905
   40MOL   O58637324   1.944   4.908   3.227 -0.0403 -0.3065  0.0451
   40MOL   C58737325   2.012   5.049   2.897 -0.0595  0.0365  0.0354
   40MOL   C58837326   2.091   5.147   2.830  0.4334 -0.3211 -0.5291
   40MOL   H58937327   2.767   4.581   2.136  0.2991  1.2003 -1.9126
   40MOL   H59037328   2.629   4.644   2.050 -1.6190 -1.2613  0.1808
   40MOL   H59137329   2.710   4.702   2.338  0.7427  0.0609 -0.4863
   40MOL   H59237330   2.555   4.736   2.290 -0.5512  1.2886 -1.2856
   40MOL   H59337331   2.792   4.876   2.166 -0.9476  0.3261 -0.5063
   40MOL   H59437332   2.644   4.880   2.086  0.4052  2.9957  0.6468
   40MOL   H59537333   2.664   4.969   2.376  0.5790  2.8420 -0.1372
   40MOL   H59637334   2.524   4.973   2.295 -0.4218  0.2060 -1.7146
   40MOL   H59737335   2.765   5.152   2.227 -0.1289  0.5057 -2.5841
   40MOL   H59837336   2.632   5.115   2.116 -1.0754 -2.2705 -0.2081
   40MOL   H59937337   2.552   5.315   2.219 -0.0694 -0.7323 -0.0126
   40MOL   H60037338   2.478   5.194   2.326 -1.1083  1.6944 -0.6955
   40MOL   H60137339   2.672   5.215   2.472 -0.2351  0.5115  0.6211
   40MOL   H60237340   2.734   5.337   2.371  0.3346  0.4291  0.9414
   40MOL   H60337341   2.626   5.467   2.534 -1.0709  0.1556  0.7206
   40MOL   H60437342   2.501   5.471   2.426 -1.1748 -0.3282  0.1592
   40MOL   H60537343   2.528   5.296   2.670 -1.7504 -2.0944 -0.3361
   40MOL   H60637344   2.437   5.226   2.548  1.3749 -0.8184  0.4668
   40MOL   H60737345   2.283   5.448   2.561 -2.2909 -0.2239  1.4424
   40MOL   H60837346   2.390   5.487   2.691 -2.2281  0.3962  0.2943
   40MOL   H60937347   2.268   5.242   3.102  1.7040 -0.1577 -1.9238
   40MOL   H61037348   2.116   5.104   3.219  3.3308 -2.6188 -0.2571
   40MOL   H61137349   1.948   4.982   2.841 -0.0490  0.0132  0.0522
   40MOL   H61237350   2.084   5.152   2.722 -1.3543  0.4760 -0.3864
   40MOL   O61337351   1.865   4.794   3.285 -0.3959  0.3809  0.3560
   40MOL   C61437352   1.769   4.849   3.361  0.0112  0.0681  0.1217
   40MOL   C61537353   1.829   4.880   3.500  0.8597 -0.1364 -0.3182
   40MOL   C61637354   1.732   4.931   3.605  0.5865  0.2595  0.0051
   40MOL   C61737355   1.796   4.964   3.745 -0.7667  0.1620  0.3077
   40MOL   C61837356   1.774   5.110   3.782 -0.4366  0.2947  0.3164
   40MOL   C61937357   1.841   5.146   3.916  0.4606 -0.5950  0.3959
   40MOL   C62037358   1.815   5.296   3.958  0.1277 -0.2611  0.4945
   40MOL   C62137359   1.672   5.352   3.971  0.0186  0.1170  0.0190
   40MOL   C62237360   1.655   5.498   4.014  0.4374  0.0111  0.9119
   40MOL   C62337361   1.606   5.518   4.158 -0.0219 -0.1810 -0.0081
   40MOL   O62437362   1.710   5.510   4.252  0.0938  0.5204  0.9806
   40MOL   C62537363   1.737   5.393   4.316 -0.0919  0.4382  0.4574
   40MOL   O62637364   1.679   5.289   4.298 -0.3840  0.0135  0.5154
   40MOL   C62737365   1.849   5.410   4.411  0.0800  0.4589  0.5418
   40MOL   C62837366   1.880   5.306   4.501  0.1838 -0.1573 -0.1372
   40MOL   C62937367   1.990   5.320   4.588 -0.1285 -1.0454 -0.0834
   40MOL   C63037368   2.074   5.434   4.589  0.3446  0.3546 -0.8128
   40MOL   C63137369   2.192   5.444   4.677 -0.2816 -0.1539 -0.1993
   40MOL   O63237370   2.211   5.372   4.774  0.3193 -0.5791 -0.3242
   40MOL   O63337371   2.277   5.543   4.646  0.8042 -0.0028 -0.3090
   40MOL   C63437372   2.048   5.528   4.488 -0.1437 -0.4627  1.3369
   40MOL   C63537373   1.929   5.520   4.407 -0.5638 -0.8256 -0.2387
   40MOL   H63637374   1.725   4.936   3.312 -3.7978 -0.3252  2.6729
   40MOL   H63737375   1.685   4.783   3.384 -1.8326  1.5297 -2.1164
   40MOL   H63837376   1.910   4.953   3.492  0.8172  0.4177  3.3980
   40MOL   H63937377   1.861   4.782   3.536  1.1106 -0.1359 -0.5349
   40MOL   H64037378   1.699   5.022   3.555  2.1475  0.8343 -0.0094
   40MOL   H64137379   1.653   4.860   3.629  1.1040 -0.7637 -1.2499
   40MOL   H64237380   1.901   4.933   3.745 -0.3475  1.4225 -2.8640
   40MOL   H64337381   1.754   4.897   3.820 -1.5724 -0.6598 -0.8517
   40MOL   H64437382   1.809   5.181   3.706 -1.3691  0.7310  0.2940
   40MOL   H64537383   1.666   5.120   3.784 -0.7347 -2.6884  0.2658
   40MOL   H64637384   1.814   5.076   3.995 -1.5420  0.4507  0.6855
   40MOL   H64737385   1.948   5.136   3.899  0.6680  0.5180  0.9735
   40MOL   H64837386   1.860   5.305   4.057  0.6806  0.7229  0.1565
   40MOL   H64937387   1.863   5.361   3.885  2.1012 -1.5878  0.5537
   40MOL   H65037388   1.631   5.343   3.870  1.4740 -0.7957 -0.5212
   40MOL   H65137389   1.607   5.284   4.026 -1.7875  1.9887  0.2507
   40MOL   H65237390   1.583   5.545   3.946 -0.5359 -1.6284  0.7842
   40MOL   H65337391   1.747   5.554   4.001  0.6095 -0.6206 -0.6584
   40MOL   H65437392   1.513   5.468   4.183 -0.2311  0.2870  0.1642
   40MOL   H65537393   1.570   5.621   4.163  0.3715  0.0733 -2.0593
   40MOL   H65637394   1.814   5.222   4.511 -3.1232  2.2716 -0.7552
   40MOL   H65737395   2.016   5.238   4.654  1.1201  1.0333  2.0662
   40MOL   H65837396   2.113   5.608   4.458 -1.2990 -0.3008 -0.8605
   40MOL   H65937397   1.904   5.607   4.349 -0.2677  0.5059  1.5632
   40MOL   O66037398   2.394   5.546   4.746 -0.1243  0.1368 -0.3420
   40MOL   C66137399   2.387   5.675   4.815  0.0465 -0.0928  0.7334
   40MOL   C66237400   2.516   5.687   4.882 -0.2766 -0.3878  0.2348
   40MOL   C66337401   2.538   5.807   4.976 -0.4487  0.2521  0.7033
   40MOL   C66437402   2.689   5.838   5.006 -0.8732 -0.8502 -0.1042
   40MOL   C66537403   2.708   5.981   5.049  0.0798 -0.0549 -0.1258
   40MOL   C66637404   2.655   6.017   5.184  0.4724  0.5540 -0.3099
   40MOL   C66737405   2.710   6.144   5.236 -0.8344 -0.0343 -0.1125
   40MOL   C66837406   2.686   6.275   5.151 -0.2006  0.3582  0.7843
   40MOL   C66937407   2.543   6.295   5.102 -0.4120 -0.1797 -0.5412
   40MOL   C67037408   2.528   6.437   5.063 -0.3444  0.5459  0.3031
   40MOL   O67137409   2.402   6.465   5.004 -0.5568  1.1386 -0.3980
   40MOL   C67237410   2.369   6.590   4.972 -0.3666  0.3985  0.0082
   40MOL   O67337411   2.435   6.688   4.988  0.6187 -0.9374 -0.2915
   40MOL   C67437412   2.232   6.595   4.912  0.4741  0.3783 -0.1914
   40MOL   C67537413   2.155   6.476   4.892 -0.0652  0.7643  0.0368
   40MOL   C67637414   2.027   6.487   4.844  0.2774 -0.5354 -0.1364
   40MOL   C67737415   1.976   6.609   4.792  0.1186  0.7134 -0.1531
   40MOL   C67837416   1.847   6.623   4.726 -0.3977  0.1405 -0.4620
   40MOL   O67937417   1.790   6.722   4.709 -0.0424 -0.3146  0.2717
   40MOL   O68037418   1.817   6.501   4.669 -0.5756  0.0003  0.5828
   40MOL   C68137419   2.046   6.725   4.814  0.0447 -0.5852 -0.0427
   40MOL   C68237420   2.175   6.720   4.875  0.0496  0.2688 -0.6085
   40MOL   H68337421   2.373   5.756   4.743  0.8493 -0.5171  0.0807
   40MOL   H68437422   2.302   5.679   4.882 -1.6526 -2.4844 -1.1597
   40MOL   H68537423   2.592   5.693   4.805  1.3300  2.0585  1.9409
   40MOL   H68637424   2.545   5.597   4.938 -0.4640 -1.4189 -1.3047
   40MOL   H68737425   2.490   5.891   4.926  1.9089  1.1190 -0.1944
   40MOL   H68837426   2.482   5.785   5.067 -1.1410  0.5621  0.3530
   40MOL   H68937427   2.758   5.805   4.928  0.0372  1.3841 -0.2615
   40MOL   H69037428   2.724   5.777   5.089  0.2763 -0.1728 -0.0843
   40MOL   H69137429   2.816   5.990   5.061  0.4324 -5.5058  1.9534
   40MOL   H69237430   2.676   6.041   4.964  0.4766 -0.0349 -0.2651
   40MOL   H69337431   2.547   6.026   5.179  0.4682  0.5557 -0.2244
   40MOL   H69437432   2.658   5.944   5.265 -1.5849 -0.5075 -1.1538
   40MOL   H69537433   2.645   6.163   5.321 -1.1346  2.1555 -0.7850
   40MOL   H69637434   2.812   6.128   5.272 -1.3018  1.3313  1.8782
   40MOL   H69737435   2.712   6.365   5.207 -0.1754  1.4533 -0.9768
   40MOL   H69837436   2.754   6.270   5.066 -2.1631 -1.1534 -0.7490
   40MOL   H69937437   2.478   6.275   5.187 -0.6179 -0.0251 -0.6604
   40MOL   H70037438   2.519   6.237   5.013 -0.9546 -0.5656 -0.1471
   40MOL   H70137439   2.602   6.462   4.987  1.0670 -0.5996  1.2802
   40MOL   H70237440   2.556   6.491   5.153 -1.3131 -0.0340  0.9644
   40MOL   H70337441   2.198   6.380   4.918  1.8871  1.2115 -1.4173
   40MOL   H70437442   1.975   6.392   4.837  3.2367 -2.1629 -0.8119
   40MOL   H70537443   2.011   6.822   4.782  0.8254 -0.4195 -0.4126
   40MOL   H70637444   2.241   6.801   4.899  1.6796 -1.1705 -0.0862
   40MOL   O70737445   1.685   6.505   4.589  0.1464  0.5164  0.8177
   40MOL   C70837446   1.723   6.511   4.453  0.8664  0.1487 -0.2687
   40MOL   C70937447   1.609   6.452   4.368 -0.2075  0.0467 -0.2594
   40MOL   C71037448   1.487   6.539   4.352  0.1162  0.0472 -0.2636
   40MOL   C71137449   1.367   6.470   4.282 -0.2375  0.3257  1.1324
   40MOL   C71237450   1.236   6.546   4.301  0.0415 -0.0348 -0.9980
   40MOL   C71337451   1.104   6.469   4.268  0.1798 -0.4083  0.0107
   40MOL   C71437452   0.976   6.562   4.271 -0.1545  0.1628 -0.0811
   40MOL   C71537453   0.848   6.478   4.245 -0.5004  0.0788  0.5544
   40MOL   C71637454   0.717   6.546   4.291  0.4870 -0.1155 -0.0960
   40MOL   C71737455   0.592   6.473   4.250 -0.0630 -0.3354  0.0355
   40MOL   O71837456   0.595   6.344   4.305  0.2070  0.2145 -0.6484
   40MOL   C71937457   0.484   6.268   4.308 -0.2956 -0.5918  0.2755
   40MOL   O72037458   0.380   6.296   4.248  0.2386 -0.2038 -0.1163
   40MOL   C72137459   0.505   6.148   4.401  0.1207  1.1246  0.7038
   40MOL   C72237460   0.624   6.124   4.461  1.1230  0.1800 -0.2064
   40MOL   C72337461   0.641   6.017   4.548 -0.9760 -0.3637 -0.3777
   40MOL   C72437462   0.535   5.930   4.576  0.3562 -0.6437 -0.1870
   40MOL   C72537463   0.562   5.821   4.671 -0.6797  0.1578 -0.5165
   40MOL   O72637464   0.675   5.779   4.700  0.6463 -0.3317  0.2490
   40MOL   O72737465   0.453   5.755   4.718  0.0086 -0.3333  0.8298
   40MOL   C72837466   0.406   5.951   4.520  0.5818 -0.3991  0.0372
   40MOL   C72937467   0.394   6.059   4.425 -0.4195 -0.0278 -0.0209
   40MOL   H73037468   1.725   6.617   4.426  1.1042  0.5324  1.1881
   40MOL   H73137469   1.819   6.469   4.424  1.1565  0.7939 -0.2572
   40MOL   H73237470   1.580   6.351   4.394  1.2551  0.0335  1.4163
   40MOL   H73337471   1.644   6.428   4.268 -2.1263  0.1015 -0.9537
   40MOL   H73437472   1.459   6.568   4.453  0.3045  0.3401 -0.2947
   40MOL   H73537473   1.515   6.640   4.322  2.3087 -0.6913 -0.8399
   40MOL   H73637474   1.343   6.371   4.322  0.4828 -1.0878 -1.8121
   40MOL   H73737475   1.382   6.458   4.175 -0.3403  0.2828  1.1221
   40MOL   H73837476   1.229   6.573   4.406 -0.3379  0.2184 -1.0837
   40MOL   H73937477   1.235   6.632   4.234  0.6798  1.2305  0.5707
   40MOL   H74037478   1.109   6.439   4.163  0.3272  0.9092 -0.3689
   40MOL   H74137479   1.091   6.378   4.327 -0.7651 -0.3831 -0.1544
   40MOL   H74237480   0.961   6.615   4.364  2.4617 -1.4596  1.3351
   40MOL   H74337481   0.978   6.637   4.192 -2.7442 -1.0466 -1.3880
   40MOL   H74437482   0.830   6.458   4.139 -0.7348 -2.0042  0.9734
   40MOL   H74537483   0.853   6.383   4.297 -1.7249  0.0575  0.6526
   40MOL   H74637484   0.704   6.643   4.244 -1.1027 -0.3167 -0.0955
   40MOL   H74737485   0.696   6.564   4.396 -1.9413 -2.8231 -0.0545
   40MOL   H74837486   0.608   6.463   4.143 -1.9751  0.9746 -0.4021
   40MOL   H74937487   0.502   6.533   4.266 -0.4744 -0.5713 -1.3421
   40MOL   H75037488   0.711   6.185   4.441  1.7666 -0.8334 -0.5165
   40MOL   H75137489   0.732   6.003   4.604 -0.2341 -0.1374 -1.5048
   40MOL   H75237490   0.319   5.892   4.546 -0.0034  1.4087  2.3896
   40MOL   H75337491   0.296   6.079   4.383 -0.8741 -1.3325  0.3827
   40MOL   O75437492   0.479   5.627   4.791 -0.5804 -0.0325 -0.8523
   40MOL   C75537493   0.440   5.661   4.923  0.2003  0.1482 -0.0362
   40MOL   C75637494   0.447   5.529   5.002 -0.1289  0.5535 -0.3102
   40MOL   C75737495   0.423   5.541   5.153 -0.2379 -0.3538 -0.1461
   40MOL   C75837496   0.419   5.413   5.230  0.4167 -0.1237 -0.3388
   40MOL   C75937497   0.440   5.433   5.378 -0.1831  0.2388  0.4846
   40MOL   C76037498   0.421   5.300   5.460  0.1991  0.1081  1.0154
   40MOL   C76137499   0.278   5.275   5.490 -0.1492 -0.3433 -0.4105
   40MOL   C76237500   0.230   5.361   5.613 -0.0122  0.6368 -0.1103
   40MOL   C76337501   0.097   5.318   5.676 -0.5569 -0.0793 -0.1788
   40MOL   C76437502   0.055   5.417   5.786 -0.0202 -0.1157  0.4437
   40MOL   O76537503   7.911   5.362   5.843 -0.1604 -0.1783  0.2811
   40MOL   C76637504   7.839   5.435   5.932  0.6364  0.5358  0.0490
   40MOL   O76737505   7.862   5.553   5.960  0.0123  0.1972 -0.5432
   40MOL   C76837506   7.718   5.361   5.985 -0.3424  0.0945 -0.0762
   40MOL   C76937507   7.649   5.415   6.095 -0.2635  0.3692 -0.6844
   40MOL   C77037508   7.535   5.348   6.146 -0.0416  0.0731 -0.2807
   40MOL   C77137509   7.471   5.246   6.074  0.0085 -0.0282  0.0918
   40MOL   C77237510   7.343   5.199   6.120 -0.2610  0.8124 -0.0573
   40MOL   O77337511   7.289   5.248   6.216 -0.4283 -0.0830 -0.1728
   40MOL   O77437512   7.287   5.110   6.037 -0.1338 -0.6048 -0.0702
   40MOL   C77537513   7.546   5.186   5.968 -0.0647  0.4449 -0.2386
   40MOL   C77637514   7.668   5.242   5.920 -0.0109  0.1749 -0.0093
   40MOL   H77737515   0.513   5.726   4.971 -2.6767  1.3194  2.9115
   40MOL   H77837516   0.340   5.703   4.926 -0.1005 -0.5254 -0.4591
   40MOL   H77937517   0.535   5.478   4.963 -1.5736 -0.2518 -2.6061
   40MOL   H78037518   0.375   5.454   4.969 -0.7467  0.7555  0.5819
   40MOL   H78137519   0.502   5.596   5.203 -0.7275  0.2467 -0.0365
   40MOL   H78237520   0.324   5.585   5.165  0.3910  0.7681  1.0001
   40MOL   H78337521   0.497   5.349   5.190  2.7835  1.3741  1.6928
   40MOL   H78437522   0.318   5.379   5.210 -0.1920  0.1350  2.1919
   40MOL   H78537523   0.544   5.463   5.379 -0.1862  0.2361  2.2506
   40MOL   H78637524   0.384   5.521   5.408  1.0560  1.2549 -0.1470
   40MOL   H78737525   0.469   5.213   5.415 -0.8412 -1.0414  2.0856
   40MOL   H78837526   0.468   5.307   5.558 -0.9232 -2.1731  1.7436
   40MOL   H78937527   0.211   5.276   5.404 -2.9554  0.2129  1.7135
   40MOL   H79037528   0.294   5.174   5.527 -0.7456 -0.2543  0.0955
   40MOL   H79137529   0.302   5.354   5.695 -3.1817  0.4975  2.7699
   40MOL   H79237530   0.225   5.463   5.575 -1.4737  0.0443 -1.5939
   40MOL   H79337531   0.116   5.218   5.716  0.1373  0.2320  0.2929
   40MOL   H79437532   0.023   5.306   5.597 -0.8770  0.1898  0.0822
   40MOL   H79537533   0.039   5.508   5.729 -2.7089 -0.8448 -0.0429
   40MOL   H79637534   0.130   5.435   5.863 -0.2121 -0.9463  0.8291
   40MOL   H79737535   7.684   5.509   6.135 -0.4041 -0.6244  1.9397
   40MOL   H79837536   7.482   5.397   6.226  1.9921 -1.2434  1.9139
   40MOL   H79937537   7.502   5.104   5.913  1.5713 -0.1757 -0.6416
   40MOL   H80037538   7.722   5.195   5.839  1.2755 -1.9057  1.9711
   40MOL   O80137539   7.148   5.072   6.091  0.6904 -0.1913  0.1240
   40MOL   C80237540   7.143   4.948   6.145  0.1026 -0.2860 -0.0798
   40MOL   C80337541   7.156   4.842   6.038  0.0382 -0.2068  0.1234
   40MOL   C80437542   7.038   4.836   5.944  0.1186 -0.7619 -0.1460
   40MOL   C80537543   7.051   4.754   5.812  0.8284 -0.6588  0.0984
   40MOL   C80637544   7.114   4.619   5.829 -0.0586  0.2701 -0.2117
   40MOL   C80737545   7.134   4.546   5.693 -0.2016  0.0265 -0.2382
   40MOL   C80837546   7.236   4.424   5.699 -0.1999  0.0049  0.1448
   40MOL   C80937547   7.244   4.340   5.565 -0.2489  0.8127 -0.1507
   40MOL   C81037548   7.346   4.223   5.577 -0.3574 -0.0292  0.3504
   40MOL   C81137549   7.341   4.131   5.704 -0.9897  0.0187  0.1225
   40MOL   O81237550   7.356   4.204   5.826 -0.1380  0.6943  0.4341
   40MOL   C81337551   7.347   4.140   5.945  0.8805 -0.0712 -0.0531
   40MOL   O81437552   7.337   4.020   5.956  0.2918  0.1943  0.1239
   40MOL   C81537553   7.349   4.232   6.060  0.0536 -0.4778 -0.2381
   40MOL   C81637554   7.359   4.376   6.048 -0.0601  0.4815 -0.3072
   40MOL   C81737555   7.332   4.464   6.154  0.3021  0.1809  0.0691
   40MOL   C81837556   7.318   4.411   6.278  0.2075  0.1953 -0.4756
   40MOL   C81937557   7.298   4.506   6.391  0.0259 -0.4188  0.2952
   40MOL   O82037558   7.301   4.468   6.508 -0.3296  0.0910  0.0107
   40MOL   O82137559   7.255   4.635   6.358 -0.3510 -0.2113  0.1682
   40MOL   C82237560   7.319   4.271   6.299 -0.6673  0.6853 -0.1899
   40MOL   C82337561   7.319   4.182   6.192  0.7897 -0.0666  0.3981
   40MOL   H82437562   7.232   4.938   6.208 -1.7921  0.3439  2.7915
   40MOL   H82537563   7.052   4.937   6.205  0.7656 -0.0534  0.9870
   40MOL   H82637564   7.150   4.743   6.084  1.8637  0.1565  1.1991
   40MOL   H82737565   7.245   4.848   5.977 -0.5140 -1.9746 -0.8936
   40MOL   H82837566   6.955   4.785   5.991 -1.0510 -0.9124 -2.3104
   40MOL   H82937567   6.985   4.928   5.917  1.9320  0.3475 -0.0434
   40MOL   H83037568   7.098   4.820   5.738 -1.2255  1.8753  0.9693
   40MOL   H83137569   6.950   4.740   5.774  0.9250  0.3465 -0.5368
   40MOL   H83237570   7.210   4.628   5.880  0.0831  0.8295 -0.5827
   40MOL   H83337571   7.060   4.557   5.901  1.1446 -1.4103 -0.7316
   40MOL   H83437572   7.041   4.522   5.642 -0.4417 -2.8495  1.4160
   40MOL   H83537573   7.177   4.617   5.623  2.2942 -0.7379  0.4676
   40MOL   H83637574   7.332   4.469   5.724 -0.1134  0.6959 -1.3325
   40MOL   H83737575   7.207   4.364   5.784 -2.2298  0.7721  0.0254
   40MOL   H83837576   7.143   4.308   5.537  0.3027 -1.0362 -0.0745
   40MOL   H83937577   7.289   4.401   5.487  0.3941 -1.4996 -1.6343
   40MOL   H84037578   7.443   4.273   5.568  0.0561 -1.1401 -1.5830
   40MOL   H84137579   7.329   4.157   5.493  1.6965  0.1245 -0.2070
   40MOL   H84237580   7.426   4.064   5.692  1.1818  2.9433 -1.2699
   40MOL   H84337581   7.256   4.063   5.701  0.4767 -1.8855  0.8643
   40MOL   H84437582   7.367   4.425   5.952  0.5725 -3.5285 -2.4163
   40MOL   H84537583   7.318   4.568   6.128  0.4080  0.2395  0.2495
   40MOL   H84637584   7.296   4.232   6.397  1.5070 -1.3314 -0.4368
   40MOL   H84737585   7.317   4.075   6.210  0.1896  0.1808  1.8494
   40MOL   O84837586   7.256   4.727   6.484  0.5044  0.4506  0.5022
   40MOL   C84937587   7.125   4.758   6.518 -0.5003 -0.4608  0.2378
   40MOL   C85037588   7.117   4.847   6.637  0.2774 -0.1796 -0.0437
   40MOL   C85137589   7.184   4.991   6.606 -0.9796  0.6146  0.3121
   40MOL   C85237590   7.163   5.100   6.711  0.0165 -0.3368 -0.2441
   40MOL   C85337591   7.254   5.219   6.680 -0.2338 -0.3211  0.0313
   40MOL   C85437592   7.197   5.312   6.581  0.0590  0.4696  0.4148
   40MOL   C85537593   7.288   5.435   6.574 -0.3343  0.2816 -0.1038
   40MOL   C85637594   7.231   5.537   6.473  0.4529 -0.0001 -0.2322
   40MOL   C85737595   7.307   5.668   6.476 -0.5877 -0.7001  0.3425
   40MOL   C85837596   7.420   5.676   6.366  0.3359 -0.0003 -0.8987
   40MOL   O85937597   7.478   5.803   6.371 -0.0738 -0.1872 -0.2053
   40MOL   C86037598   7.550   5.858   6.268 -0.4790 -0.0472 -0.2416
   40MOL   O86137599   7.566   5.803   6.160 -0.2303  0.5104  0.0277
   40MOL   C86237600   7.606   5.991   6.305 -0.2632  0.4278  0.2228
   40MOL   C86337601   7.568   6.069   6.417  0.5178  0.4083 -0.5783
   40MOL   C86437602   7.646   6.178   6.462 -0.1958  0.2564  0.1812
   40MOL   C86537603   7.752   6.221   6.379  0.0167 -0.0552  0.1376
   40MOL   C86637604   7.849   6.336   6.419 -0.2101  0.4004  0.0729
   40MOL   O86737605   7.934   6.378   6.336  0.2401  0.3345  0.0125
   40MOL   O86837606   7.845   6.379   6.546 -0.9720 -0.3213  0.3727
   40MOL   C86937607   7.782   6.154   6.253 -0.4291  0.1119 -0.3568
   40MOL   C87037608   7.710   6.037   6.227 -0.1815 -0.2426  0.0319
   40MOL   H87137609   7.069   4.796   6.433  1.8027  2.1425 -0.2015
   40MOL   H87237610   7.084   4.659   6.536  0.7920 -0.6803  2.1657
   40MOL   H87337611   7.165   4.790   6.717 -0.6271  1.2145  1.5376
   40MOL   H87437612   7.015   4.864   6.670  0.3046  0.5417 -0.3209
   40MOL   H87537613   7.292   4.977   6.601 -1.1392 -0.1629 -0.9624
   40MOL   H87637614   7.157   5.028   6.508  0.0418 -0.2342 -0.3011
   40MOL   H87737615   7.182   5.059   6.810  2.1861 -0.1346 -0.5497
   40MOL   H87837616   7.058   5.130   6.707 -0.1400 -1.0261 -2.2268
   40MOL   H87937617   7.266   5.273   6.774 -0.1040 -0.9810  0.3930
   40MOL   H88037618   7.361   5.203   6.661  0.0106  1.2897 -0.0684
   40MOL   H88137619   7.188   5.269   6.481 -1.8932  1.5432  0.1045
   40MOL   H88237620   7.092   5.333   6.602 -0.1857 -0.5652  0.2755
   40MOL   H88337621   7.315   5.468   6.674 -0.9882 -0.3395  0.2874
   40MOL   H88437622   7.381   5.405   6.525  0.0262 -1.1728  1.4081
   40MOL   H88537623   7.211   5.500   6.373 -0.8967  0.6149 -0.2073
   40MOL   H88637624   7.129   5.562   6.504  0.7006  2.6401 -1.3860
   40MOL   H88737625   7.339   5.693   6.577  0.2944 -1.0028  0.1371
   40MOL   H88837626   7.228   5.732   6.437  1.7923  1.3788 -1.2458
   40MOL   H88937627   7.380   5.659   6.267 -0.1367 -0.4611 -0.6307
   40MOL   H89037628   7.487   5.593   6.388  0.1209  0.1003  0.1704
   40MOL   H89137629   7.488   6.028   6.476  2.0153  0.3624  1.4716
   40MOL   H89237630   7.627   6.237   6.550 -1.1703 -0.7742  0.6799
   40MOL   H89337631   7.865   6.188   6.194 -1.3794  0.1573 -1.6974
   40MOL   H89437632   7.746   5.979   6.144  0.2850 -3.0185  2.1115
   40MOL   O89537633   7.965   6.468   6.581 -0.5631 -0.6098 -0.0731
   40MOL   C89637634   7.933   6.604   6.557  0.6051  0.2366 -0.6508
   40MOL   C89737635   0.088   6.676   6.579 -0.2004 -0.1470  0.1363
   40MOL   C89837636   0.093   6.825   6.615  0.5816  0.6178  0.3218
   40MOL   C89937637   0.240   6.868   6.625  0.0954 -0.1675 -0.6973
   40MOL   C90037638   0.259   6.995   6.701  0.1534  0.4291  0.3819
   40MOL   C90137639   0.402   7.031   6.709 -0.9589  0.2605  0.2228
   40MOL   C90237640   0.463   6.979   6.844  0.1451  0.4870 -0.2161
   40MOL   C90337641   0.611   7.015   6.874 -0.5446  0.4923 -0.1405
   40MOL   C90437642   0.654   6.972   7.019  0.2099 -0.6249 -0.1303
   40MOL   C90537643   0.804   6.970   7.044 -0.3710 -0.0808 -0.0707
   40MOL   O90637644   0.833   6.903   7.167  0.6818  0.2915  0.7495
   40MOL   C90737645   0.959   6.872   7.202 -0.9486 -0.2363  0.4712
   40MOL   O90837646   1.062   6.889   7.134 -0.0901  0.0793  0.0231
   40MOL   C90937647   0.954   6.808   7.330  0.8480  0.0676 -0.8001
   40MOL   C91037648   0.858   6.707   7.361 -0.9680  0.1067 -0.3631
   40MOL   C91137649   0.859   6.645   7.483  0.3238 -0.4980 -0.2999
   40MOL   C91237650   0.960   6.674   7.579 -0.2456  0.6311  0.3273
   40MOL   C91337651   0.961   6.615   7.719  0.7630  0.1032  0.3248
   40MOL   O91437652   1.053   6.634   7.797 -0.6592 -0.3011 -0.5710
   40MOL   O91537653   0.851   6.542   7.741  0.1170  0.3470  0.0491
   40MOL   C91637654   1.066   6.760   7.547 -0.5992  0.5326 -0.5535
   40MOL   C91737655   1.062   6.826   7.422  0.2774  0.0535  0.2757
   40MOL   H91837656   7.884   6.624   6.462  0.5731  2.1225 -0.2510
   40MOL   H91937657   7.862   6.641   6.631  0.3216  0.7061 -1.1524
   40MOL   H92037658   0.149   6.656   6.491  1.3271 -1.1516  1.3990
   40MOL   H92137659   0.136   6.630   6.665 -1.5634  0.5562  1.2888
   40MOL   H92237660   0.044   6.880   6.535  1.2702  1.1388  0.2507
   40MOL   H92337661   0.048   6.838   6.714  0.6362 -2.0320  0.7326
   40MOL   H92437662   0.288   6.859   6.527 -0.8491  0.0207 -1.1796
   40MOL   H92537663   0.286   6.790   6.685 -2.3768 -1.9468 -1.0339
   40MOL   H92637664   0.192   7.064   6.648 -0.9315 -0.6322  0.3529
   40MOL   H92737665   0.227   6.987   6.805  1.9714 -0.0170  0.9161
   40MOL   H92837666   0.455   6.979   6.630  0.0587  1.6436 -0.0291
   40MOL   H92937667   0.411   7.140   6.703 -1.6543  0.3007 -0.0635
   40MOL   H93037668   0.410   7.020   6.931  0.9804  2.1246 -0.4538
   40MOL   H93137669   0.449   6.871   6.842 -1.3774  0.6862 -0.6785
   40MOL   H93237670   0.675   6.974   6.796 -1.1618 -1.1215  0.1745
   40MOL   H93337671   0.628   7.123   6.870 -1.4066  0.7285  1.9377
   40MOL   H93437672   0.615   6.871   7.024 -0.0491 -0.5999 -1.5704
   40MOL   H93537673   0.604   7.038   7.090  0.2447  2.1247 -2.5621
   40MOL   H93637674   0.854   7.067   7.040 -0.8501  0.1774  0.2174
   40MOL   H93737675   0.851   6.912   6.964  2.1436  0.9557  0.6186
   40MOL   H93837676   0.770   6.694   7.300 -0.6266  0.9398 -1.0376
   40MOL   H93937677   0.769   6.587   7.501  1.8455 -3.3097 -1.4146
   40MOL   H94037678   1.147   6.768   7.617  0.6255  0.7264 -1.9536
   40MOL   H94137679   1.140   6.893   7.390  1.9730 -1.5393  0.9962
   40MOL   H94237680   0.849   6.512   7.830  1.8650  1.2495  0.4029
   41MOL     O137681   0.493   5.100   6.094  0.3361  0.5661  0.3362
   41MOL     C237682   0.497   5.001   5.992  0.6474 -0.2329 -0.5093
   41MOL     C337683   0.354   4.965   5.952 -0.1533 -0.9208 -0.0019
   41MOL     C437684   0.283   4.895   6.068  0.0325  0.9536 -0.5674
   41MOL     C537685   0.140   4.841   6.029  0.3235 -0.4641  0.5178
   41MOL     C637686   0.029   4.951   6.008 -0.3008 -0.7422 -0.3604
   41MOL     C737687   7.865   4.895   5.985  0.3340 -0.0603 -0.5598
   41MOL     C837688   7.852   4.803   5.860  0.2439  0.4929 -0.0166
   41MOL     C937689   7.709   4.750   5.832 -0.2987  0.2304 -0.3214
   41MOL    C1037690   7.595   4.848   5.813 -0.1149  0.0156 -0.3021
   41MOL    C1137691   7.460   4.778   5.778  0.9316  0.0936  0.1802
   41MOL    O1237692   7.461   4.714   5.654  0.2012  0.1021 -0.1414
   41MOL    C1337693   7.410   4.767   5.542  0.1454  0.4756 -0.4113
   41MOL    O1437694   7.352   4.877   5.537 -0.4390 -0.1367  0.6660
   41MOL    C1537695   7.429   4.675   5.427 -0.6656 -0.4676 -0.1886
   41MOL    C1637696   7.356   4.711   5.313 -0.3885 -0.4339 -0.1808
   41MOL    C1737697   7.379   4.641   5.192  0.5091 -0.6016 -0.1149
   41MOL    C1837698   7.468   4.536   5.182 -0.9654  0.2693 -0.7576
   41MOL    C1937699   7.500   4.481   5.047 -0.4407  0.3038 -0.3714
   41MOL    O2037700   7.475   4.535   4.940  0.3331 -0.2264 -0.4746
   41MOL    O2137701   7.571   4.362   5.056  0.6786 -0.0914 -0.4834
   41MOL    C2237702   7.533   4.494   5.305 -0.6568 -0.2162  0.3595
   41MOL    C2337703   7.518   4.568   5.420 -0.2676  0.1155 -0.0207
   41MOL    H2437704   0.550   5.019   5.898  0.3195 -1.3349 -0.9183
   41MOL    H2537705   0.541   4.913   6.039  0.9528 -1.1777 -2.4864
   41MOL    H2637706   0.366   4.897   5.867  3.3239  1.8734 -1.8894
   41MOL    H2737707   0.305   5.057   5.920  2.5097  1.1906  1.7939
   41MOL    H2837708   0.344   4.817   6.113 -0.6325  0.9808  0.4079
   41MOL    H2937709   0.278   4.959   6.155  0.5595 -2.2691  1.9218
   41MOL    H3037710   0.100   4.772   6.103  0.4908 -0.4553  0.6180
   41MOL    H3137711   0.143   4.793   5.931  2.6754 -0.3396  0.4897
   41MOL    H3237712   0.018   5.012   6.098  0.1902  0.8338 -1.3476
   41MOL    H3337713   0.056   5.011   5.921  0.3045 -0.0412  0.2942
   41MOL    H3437714   7.848   4.840   6.077  2.4920  1.8674  1.0689
   41MOL    H3537715   7.790   4.975   5.983  1.8521  1.3884 -2.1704
   41MOL    H3637716   7.868   4.857   5.767 -1.1726  0.8941 -0.0418
   41MOL    H3737717   7.918   4.716   5.864 -0.1766  0.1660 -0.0817
   41MOL    H3837718   7.712   4.689   5.741  0.2900  1.1255 -0.9047
   41MOL    H3937719   7.679   4.678   5.908 -0.6486 -1.5062 -2.0556
   41MOL    H4037720   7.623   4.910   5.728  0.9013  1.2032  0.8716
   41MOL    H4137721   7.589   4.912   5.901  0.0071  0.7033 -0.7846
   41MOL    H4237722   7.393   4.864   5.772  1.6474  0.6752  0.4764
   41MOL    H4337723   7.427   4.707   5.853 -0.4354  0.5991  0.0764
   41MOL    H4437724   7.282   4.790   5.315  2.5376  2.3731  1.2696
   41MOL    H4537725   7.326   4.675   5.104  0.5250  0.7781  0.3835
   41MOL    H4637726   7.608   4.417   5.304  2.5715  2.8264 -0.5314
   41MOL    H4737727   7.578   4.539   5.506 -1.1951 -3.1060 -0.3903
   41MOL    H4837728   0.440   5.170   6.057  1.8377  2.3589  1.4609
   41MOL    O4937729   7.659   4.337   4.935  0.7153  0.5073 -0.3135
   41MOL    C5037730   7.587   4.252   4.850 -0.6566 -0.2588 -0.1861
   41MOL    C5137731   7.651   4.266   4.709  0.9052  0.3715 -0.3280
   41MOL    C5237732   7.626   4.403   4.647  0.2162 -0.0184  0.9704
   41MOL    C5337733   7.686   4.406   4.503  0.2740  0.5039  0.8613
   41MOL    C5437734   7.680   4.544   4.444 -1.1857 -0.0860 -0.1610
   41MOL    C5537735   7.712   4.535   4.294 -0.0835  0.3414  0.1290
   41MOL    C5637736   7.685   4.667   4.220  0.1523  0.1026 -0.6926
   41MOL    C5737737   7.571   4.654   4.120 -0.2789  0.0591  0.4183
   41MOL    C5837738   7.524   4.785   4.050 -0.0312 -0.0444 -0.4166
   41MOL    C5937739   7.404   4.763   3.957  0.0624 -0.3316 -0.0892
   41MOL    O6037740   7.362   4.893   3.922  0.1242  0.5892  0.4621
   41MOL    C6137741   7.274   4.912   3.821 -0.6382 -0.6979  0.1131
   41MOL    O6237742   7.236   4.819   3.750  0.5392 -0.3228  0.1415
   41MOL    C6337743   7.246   5.052   3.783  0.2299  0.1483 -0.2308
   41MOL    C6437744   7.169   5.076   3.666  0.3886  0.7076 -0.3398
   41MOL    C6537745   7.159   5.203   3.613  0.4382 -0.0982 -0.1261
   41MOL    C6637746   7.210   5.314   3.689  0.3531  0.1544 -0.2402
   41MOL    C6737747   7.196   5.449   3.642 -0.1435 -0.3598 -0.3343
   41MOL    O6837748   7.277   5.534   3.674  0.1871  0.6176  0.2884
   41MOL    O6937749   7.095   5.473   3.546  0.2242 -0.3421 -0.3621
   41MOL    C7037750   7.296   5.289   3.800  0.3643  0.3389 -0.5651
   41MOL    C7137751   7.298   5.160   3.853 -0.8049  0.0382  0.2978
   41MOL    H7237752   7.593   4.147   4.880 -0.4671 -0.8525 -2.2253
   41MOL    H7337753   7.483   4.285   4.851 -0.6151 -0.1211 -0.3976
   41MOL    H7437754   7.588   4.196   4.653 -0.1167  1.4540 -0.5595
   41MOL    H7537755   7.756   4.237   4.711  0.5513 -0.8832  0.7715
   41MOL    H7637756   7.521   4.429   4.650  0.6963  1.8815  2.1449
   41MOL    H7737757   7.671   4.483   4.706  0.6602  0.0728  0.5135
   41MOL    H7837758   7.630   4.335   4.443  0.4062  0.6904  0.5133
   41MOL    H7937759   7.785   4.363   4.489 -0.1173  0.3200 -1.5493
   41MOL    H8037760   7.580   4.586   4.461 -1.9616 -0.0756 -4.2389
   41MOL    H8137761   7.745   4.607   4.504  0.8267 -0.1685 -2.2135
   41MOL    H8237762   7.818   4.521   4.277 -0.2755  0.9325 -1.6761
   41MOL    H8337763   7.652   4.460   4.242 -0.9481  1.3137 -0.3194
   41MOL    H8437764   7.650   4.736   4.296 -1.9640  0.0226 -1.5733
   41MOL    H8537765   7.771   4.721   4.179  0.5738 -0.3202 -0.3744
   41MOL    H8637766   7.595   4.567   4.059  0.7357  0.1721  0.6547
   41MOL    H8737767   7.490   4.610   4.179 -1.1360  0.3810 -0.5059
   41MOL    H8837768   7.607   4.851   4.025 -0.4256  1.2999  1.7037
   41MOL    H8937769   7.488   4.843   4.135  0.5720 -2.4586  1.5750
   41MOL    H9037770   7.323   4.711   4.007 -0.5300  0.0570 -0.6359
   41MOL    H9137771   7.424   4.705   3.867 -0.2093  0.5936 -0.7514
   41MOL    H9237772   7.117   4.996   3.615  1.9068  0.9849 -2.4146
   41MOL    H9337773   7.097   5.226   3.528  0.7028 -2.1534 -0.9034
   41MOL    H9437774   7.337   5.370   3.859 -1.2367  0.9005 -0.1730
   41MOL    H9537775   7.371   5.145   3.932  0.9428 -0.8251 -1.4309
   41MOL    O9637776   7.087   5.617   3.482  0.4463 -0.1150  0.0490
   41MOL    C9737777   6.983   5.691   3.549 -0.0424  0.3661 -0.5231
   41MOL    C9837778   6.841   5.697   3.475 -0.8254 -0.5751 -0.1147
   41MOL    C9937779   6.741   5.800   3.522  0.2324  0.2428  1.1405
   41MOL   C10037780   6.695   5.774   3.664 -0.4275 -0.0100 -0.5317
   41MOL   C10137781   6.602   5.658   3.685 -0.7139 -0.4438  0.0798
   41MOL   C10237782   6.509   5.673   3.809  0.1767 -0.1301 -0.0881
   41MOL   C10337783   6.426   5.548   3.841 -0.5497 -0.1499 -0.5783
   41MOL   C10437784   6.275   5.571   3.815 -0.1936 -0.3060 -0.1194
   41MOL   C10537785   6.227   5.556   3.673 -0.0523 -1.0717  0.7890
   41MOL   C10637786   6.083   5.613   3.663  0.1667 -0.2463  0.4340
   41MOL   O10737787   6.019   5.561   3.545  0.5083 -0.5007  0.1787
   41MOL   C10837788   5.891   5.598   3.528 -0.6589  0.2376  0.6810
   41MOL   O10937789   5.832   5.670   3.610  0.3765 -0.4361  0.4227
   41MOL   C11037790   5.824   5.544   3.406 -0.3773 -0.3302 -0.1053
   41MOL   C11137791   5.681   5.550   3.398 -0.2399  0.2552  0.0188
   41MOL   C11237792   5.613   5.484   3.297  0.8174 -0.3748  0.8589
   41MOL   C11337793   5.685   5.406   3.204  0.8330  0.1400 -0.2366
   41MOL   C11437794   5.601   5.326   3.113  0.5605  1.3068 -0.5643
   41MOL   O11537795   5.488   5.283   3.139  0.0219  0.0311  0.1069
   41MOL   O11637796   5.649   5.324   2.990 -0.0940  0.5241  0.3106
   41MOL   C11737797   5.825   5.394   3.209 -0.1244 -1.1959  0.6178
   41MOL   C11837798   5.899   5.469   3.307  0.4112 -0.8607 -0.2089
   41MOL   H11937799   6.965   5.637   3.642  1.8603  1.2013  0.3591
   41MOL   H12037800   7.016   5.787   3.590 -1.1188  0.7924 -0.6175
   41MOL   H12137801   6.784   5.604   3.478 -1.4184 -0.2387 -0.8886
   41MOL   H12237802   6.860   5.710   3.369 -0.8469  0.2462 -0.0234
   41MOL   H12337803   6.792   5.896   3.514 -0.2365  0.2633 -1.9408
   41MOL   H12437804   6.660   5.813   3.451  1.4253 -0.2046 -0.3365
   41MOL   H12537805   6.649   5.869   3.694 -0.8087 -0.9320  1.9335
   41MOL   H12637806   6.776   5.756   3.735 -1.5351  1.8751  1.2847
   41MOL   H12737807   6.539   5.646   3.597 -0.8101 -0.7643  0.1903
   41MOL   H12837808   6.667   5.572   3.699  0.5556  0.8929  2.7651
   41MOL   H12937809   6.570   5.699   3.896 -2.0514  3.9246  0.3743
   41MOL   H13037810   6.444   5.761   3.810  1.6396  0.9854 -0.8907
   41MOL   H13137811   6.457   5.463   3.780 -0.3805 -1.8447  1.8320
   41MOL   H13237812   6.435   5.525   3.947  0.6857 -1.9344 -1.0556
   41MOL   H13337813   6.227   5.488   3.866  2.2501 -1.3006  0.6107
   41MOL   H13437814   6.238   5.668   3.849  1.1841 -0.0482  0.6857
   41MOL   H13537815   6.220   5.449   3.653 -0.8091 -1.1801  1.6624
   41MOL   H13637816   6.299   5.608   3.608  0.0435 -0.8549  1.0669
   41MOL   H13737817   6.077   5.721   3.667  2.3872 -0.0212 -1.4681
   41MOL   H13837818   6.030   5.581   3.752  3.1174 -0.6111  2.1355
   41MOL   H13937819   5.620   5.603   3.469 -1.8831 -0.8764 -0.5384
   41MOL   H14037820   5.505   5.478   3.303  0.5904  2.3335 -0.0043
   41MOL   H14137821   5.878   5.335   3.136  1.0178  0.8475 -0.2497
   41MOL   H14237822   6.004   5.450   3.320  0.2225 -0.2124  2.5928
   41MOL   O14337823   5.557   5.276   2.879  0.5018 -0.6152 -0.1395
   41MOL   C14437824   5.567   5.129   2.874 -0.5600  0.0791 -0.0396
   41MOL   C14537825   5.709   5.069   2.855  0.3826  0.3348 -0.7803
   41MOL   C14637826   5.704   4.916   2.824  0.4842  0.7049  0.0878
   41MOL   C14737827   5.835   4.841   2.860 -0.8049  0.0403  0.1854
   41MOL   C14837828   5.833   4.685   2.845  0.3411  0.0099  0.9064
   41MOL   C14937829   5.767   4.626   2.958 -0.8022 -0.1284 -0.1171
   41MOL   C15037830   5.740   4.475   2.929  0.3208 -0.3604 -0.5792
   41MOL   C15137831   5.672   4.399   3.038  0.7693  0.5029 -0.4533
   41MOL   C15237832   5.533   4.437   3.088 -0.4539 -0.6973  0.2416
   41MOL   C15337833   5.423   4.369   3.013 -0.1875  0.3264  0.4746
   41MOL   O15437834   5.291   4.416   3.048 -0.5124 -0.3736  0.0179
   41MOL   C15537835   5.194   4.390   2.970 -0.2955  0.7928 -0.7568
   41MOL   O15637836   5.206   4.321   2.868 -0.5098  0.3370 -0.2867
   41MOL   C15737837   5.068   4.451   3.019 -0.0787 -0.2117  0.4959
   41MOL   C15837838   5.070   4.557   3.114 -0.0609 -0.2466 -0.2920
   41MOL   C15937839   4.949   4.601   3.167 -0.4179  0.4974  0.1534
   41MOL   C16037840   4.828   4.540   3.136  0.0610  0.0055  0.5799
   41MOL   C16137841   4.700   4.599   3.187 -0.3929  0.2439 -0.7181
   41MOL   O16237842   4.594   4.558   3.153  1.0174  0.2175 -0.5506
   41MOL   O16337843   4.726   4.706   3.277  0.2985  0.1651  0.3474
   41MOL   C16437844   4.823   4.446   3.026  0.9920 -0.9580  0.0429
   41MOL   C16537845   4.944   4.409   2.964  0.5573 -0.3655 -0.7029
   41MOL   H16637846   5.514   5.084   2.958 -2.1146  1.0409 -0.4685
   41MOL   H16737847   5.510   5.096   2.787  1.1499 -1.7656 -0.4782
   41MOL   H16837848   5.761   5.087   2.949 -0.6410 -0.5093 -0.0471
   41MOL   H16937849   5.762   5.129   2.781 -1.7796  1.9903 -1.0294
   41MOL   H17037850   5.607   4.882   2.862 -0.1235  1.6712 -0.5641
   41MOL   H17137851   5.697   4.907   2.716  2.3120 -3.1431  0.2061
   41MOL   H17237852   5.879   4.863   2.957 -0.5007  1.1014 -0.1924
   41MOL   H17337853   5.903   4.884   2.787  0.1542  1.2588  1.7614
   41MOL   H17437854   5.790   4.642   2.755  0.5430  2.0200 -0.1814
   41MOL   H17537855   5.936   4.649   2.847  0.4623  0.3197  0.4287
   41MOL   H17637856   5.830   4.634   3.047 -0.0287 -0.4913 -0.6230
   41MOL   H17737857   5.672   4.679   2.968 -0.4312  0.6650 -0.7250
   41MOL   H17837858   5.677   4.464   2.841 -1.0942  2.4657  0.0292
   41MOL   H17937859   5.834   4.424   2.906  0.2035 -0.3897 -0.9966
   41MOL   H18037860   5.672   4.297   3.002  1.6392 -0.3930  2.0066
   41MOL   H18137861   5.751   4.407   3.112  1.1618 -1.2912 -0.6614
   41MOL   H18237862   5.525   4.546   3.092  0.5434 -0.6670  1.9385
   41MOL   H18337863   5.515   4.411   3.192  0.0144  1.3802  0.8739
   41MOL   H18437864   5.421   4.260   3.015 -0.5683  0.2976 -0.7960
   41MOL   H18537865   5.432   4.391   2.907  1.5718 -1.2011  0.3013
   41MOL   H18637866   5.165   4.603   3.136 -0.6138  1.1488 -0.7986
   41MOL   H18737867   4.956   4.681   3.239  1.2827 -1.1653  1.9177
   41MOL   H18837868   4.728   4.407   2.993  1.4155 -0.4027 -1.9031
   41MOL   H18937869   4.931   4.329   2.893 -1.2707 -0.1861 -0.6088
   41MOL   O19037870   4.596   4.770   3.338 -0.1731 -0.5052  0.2806
   41MOL   C19137871   4.564   4.721   3.468 -0.6460  0.4736 -0.1671
   41MOL   C19237872   4.455   4.611   3.470 -0.2658  0.4057 -0.4426
   41MOL   C19337873   4.434   4.589   3.617 -0.0963  0.6877  0.0639
   41MOL   C19437874   4.330   4.488   3.650  0.1159 -0.1857 -0.6322
   41MOL   C19537875   4.356   4.335   3.604 -0.2478  0.8630 -0.0803
   41MOL   C19637876   4.469   4.258   3.682  0.0475 -0.0429  0.5452
   41MOL   C19737877   4.489   4.116   3.631  0.2665 -0.0937 -0.4527
   41MOL   C19837878   4.574   4.106   3.498  0.6828 -0.0034  0.1384
   41MOL   C19937879   4.505   4.135   3.361 -0.4641  0.2431 -0.8047
   41MOL   C20037880   4.577   4.246   3.288  0.3012  0.8158 -0.0586
   41MOL   O20137881   4.712   4.222   3.258  0.1696  0.1336  0.0924
   41MOL   C20237882   4.748   4.138   3.157  0.2024  0.3298 -0.3567
   41MOL   O20337883   4.665   4.085   3.080  0.0707  0.0675  0.3363
   41MOL   C20437884   4.894   4.118   3.154  0.7920 -0.7677  0.3668
   41MOL   C20537885   4.951   4.051   3.040 -0.5874 -0.3625  0.2438
   41MOL   C20637886   5.092   4.012   3.038 -0.1100  0.4443  0.5262
   41MOL   C20737887   5.172   4.047   3.150  0.3837  0.7298 -0.4039
   41MOL   C20837888   5.314   4.011   3.168  0.5935  0.1443  0.1071
   41MOL   O20937889   5.393   4.053   3.252 -0.3346 -0.0882  0.2867
   41MOL   O21037890   5.353   3.925   3.070  0.2496  0.0074 -0.2249
   41MOL   C21137891   5.113   4.121   3.257 -0.1541 -0.4198  0.0548
   41MOL   C21237892   4.981   4.153   3.263  0.1756 -0.3079  0.3866
   41MOL   H21337893   4.656   4.701   3.522 -0.6086  2.0837  0.4121
   41MOL   H21437894   4.530   4.805   3.528  1.4339  0.8898  0.4802
   41MOL   H21537895   4.496   4.523   3.419  1.9725  1.2242 -0.0918
   41MOL   H21637896   4.367   4.645   3.416 -1.2806  0.5767  1.2857
   41MOL   H21737897   4.531   4.552   3.652  0.3180  0.8457 -0.9147
   41MOL   H21837898   4.423   4.682   3.672 -2.9234  0.4398 -0.0197
   41MOL   H21937899   4.233   4.525   3.617  1.4048  1.9684 -2.0378
   41MOL   H22037900   4.305   4.489   3.756 -0.4818 -0.9866 -0.7606
   41MOL   H22137901   4.259   4.284   3.607 -0.7823  1.8948  0.5409
   41MOL   H22237902   4.400   4.340   3.504  1.5118 -2.1787  0.5065
   41MOL   H22337903   4.559   4.317   3.672  0.5407 -0.6704  1.1812
   41MOL   H22437904   4.443   4.263   3.788  1.1395  1.2542  0.7604
   41MOL   H22537905   4.534   4.053   3.708  1.3078 -1.1844 -1.9128
   41MOL   H22637906   4.392   4.079   3.597 -0.6208 -0.6011  2.5285
   41MOL   H22737907   4.673   4.152   3.501  1.1618 -1.0304  0.3341
   41MOL   H22837908   4.589   3.998   3.489 -1.6460 -0.2922 -0.6579
   41MOL   H22937909   4.406   4.178   3.379 -0.3614 -0.3783  1.4113
   41MOL   H23037910   4.479   4.050   3.299 -2.5212  0.8427 -0.8391
   41MOL   H23137911   4.594   4.339   3.341 -0.6478  1.4555 -0.8732
   41MOL   H23237912   4.530   4.283   3.197  1.1002  2.2813  0.1143
   41MOL   H23337913   4.890   4.013   2.960 -1.9878  0.0564  1.0975
   41MOL   H23437914   5.142   3.966   2.955  1.5804  0.6735  1.4013
   41MOL   H23537915   5.171   4.142   3.346  2.2857  2.2478 -2.0446
   41MOL   H23637916   4.941   4.209   3.346  0.9337  1.1681 -0.2420
   41MOL   O23737917   5.494   3.881   3.077 -0.1319  0.1226  0.0899
   41MOL   C23837918   5.507   3.753   3.137  0.3781 -0.9462  0.4013
   41MOL   C23937919   5.650   3.745   3.179  0.2941  0.7949  0.3004
   41MOL   C24037920   5.679   3.600   3.216  0.0713  0.2838 -0.2236
   41MOL   C24137921   5.828   3.581   3.261  0.1256 -0.3100  0.4723
   41MOL   C24237922   5.930   3.591   3.139  0.1556  0.2774  0.2928
   41MOL   C24337923   6.073   3.632   3.183 -0.5116  0.3190  0.2567
   41MOL   C24437924   6.081   3.772   3.239  0.9916  0.3422 -0.1016
   41MOL   C24537925   6.232   3.806   3.271 -0.3561 -0.7416  0.0265
   41MOL   C24637926   6.243   3.947   3.326 -0.5739 -0.5405 -0.2770
   41MOL   C24737927   6.384   4.002   3.333 -0.6962  0.6836  0.4581
   41MOL   O24837928   6.370   4.137   3.374  0.1745  0.9068  0.1976
   41MOL   C24937929   6.481   4.203   3.374 -0.0108 -0.3773  0.1541
   41MOL   O25037930   6.586   4.149   3.329 -0.2085 -0.4607  0.6032
   41MOL   C25137931   6.468   4.342   3.436 -0.3519  0.2959  0.3067
   41MOL   C25237932   6.583   4.425   3.441 -0.5098  0.0994  0.3449
   41MOL   C25337933   6.578   4.553   3.497 -0.4528  0.5914 -0.9601
   41MOL   C25437934   6.464   4.606   3.561 -0.3869 -0.1611  0.2143
   41MOL   C25537935   6.470   4.747   3.616 -0.1785  0.4654 -0.1269
   41MOL   O25637936   6.564   4.826   3.596  0.3949 -0.1941  0.1044
   41MOL   O25737937   6.363   4.779   3.684 -0.1378  0.6658  0.0537
   41MOL   C25837938   6.350   4.526   3.560  0.5584 -0.6103  0.2669
   41MOL   C25937939   6.345   4.398   3.496  0.2447  0.0096 -0.6660
   41MOL   H26037940   5.431   3.729   3.212 -0.9290  0.0800 -0.5501
   41MOL   H26137941   5.487   3.682   3.057 -2.2624 -0.0330  0.1719
   41MOL   H26237942   5.668   3.816   3.259  1.0116  1.2066 -0.2170
   41MOL   H26337943   5.711   3.790   3.100 -0.7018  2.6928  0.5960
   41MOL   H26437944   5.625   3.568   3.305 -0.2364  0.1979 -0.4412
   41MOL   H26537945   5.652   3.521   3.145 -1.0269 -0.8469  1.4030
   41MOL   H26637946   5.837   3.480   3.300 -0.8007 -0.1623  1.0671
   41MOL   H26737947   5.853   3.645   3.345 -0.2442 -0.7228  0.9007
   41MOL   H26837948   5.942   3.500   3.079  1.6520  1.5108 -1.3132
   41MOL   H26937949   5.888   3.672   3.080 -0.0281  1.6521  2.2469
   41MOL   H27037950   6.127   3.562   3.247  1.2308 -1.1956 -2.7419
   41MOL   H27137951   6.135   3.644   3.094 -2.3307 -0.3332 -1.1260
   41MOL   H27237952   6.051   3.840   3.159 -1.2673 -0.4886  0.0071
   41MOL   H27337953   6.016   3.782   3.326 -1.2866  3.2010 -2.0229
   41MOL   H27437954   6.282   3.733   3.335 -1.7729 -2.3443 -0.6593
   41MOL   H27537955   6.293   3.805   3.182  1.1909 -0.9010  1.0675
   41MOL   H27637956   6.191   3.952   3.421 -0.2297  0.9090 -0.1525
   41MOL   H27737957   6.191   4.013   3.256 -0.2505  0.6220  0.5565
   41MOL   H27837958   6.442   3.980   3.244 -0.6906 -0.3212  0.6996
   41MOL   H27937959   6.423   3.932   3.407  0.9981  0.2197 -0.8420
   41MOL   H28037960   6.679   4.398   3.399 -0.4557  0.0335  0.5121
   41MOL   H28137961   6.656   4.625   3.480 -2.8224  3.4176 -0.3473
   41MOL   H28237962   6.255   4.559   3.599  0.0328 -0.0825 -1.3726
   41MOL   H28337963   6.251   4.347   3.483 -0.4196  1.2946 -0.9363
   41MOL   O28437964   6.370   4.924   3.735 -0.8759 -0.9032  0.0787
   41MOL   C28537965   6.406   4.924   3.870 -0.2279  0.1473 -0.0095
   41MOL   C28637966   6.414   5.068   3.914 -0.3516  0.2938 -0.0624
   41MOL   C28737967   6.279   5.117   3.971 -0.1834  0.2351 -0.4506
   41MOL   C28837968   6.177   5.125   3.862 -0.3195  0.5409  0.5593
   41MOL   C28937969   6.038   5.160   3.909  0.0226 -0.3793 -0.0770
   41MOL   C29037970   5.939   5.175   3.796  0.9202  0.2127  0.5389
   41MOL   C29137971   5.794   5.199   3.849  0.0601  0.1891  0.5948
   41MOL   C29237972   5.697   5.231   3.735  0.1498  0.0765  0.4464
   41MOL   C29337973   5.555   5.176   3.734  0.1668 -0.4995  0.1695
   41MOL   C29437974   5.468   5.233   3.620 -0.9719 -0.3437 -0.2451
   41MOL   O29537975   5.332   5.214   3.624  0.6614  0.5326  0.4677
   41MOL   C29637976   5.274   5.097   3.566 -0.0029  0.1262  0.2753
   41MOL   O29737977   5.345   5.021   3.496 -0.0601 -0.3271 -0.4408
   41MOL   C29837978   5.133   5.082   3.585 -0.2643 -0.8637 -0.4348
   41MOL   C29937979   5.057   5.194   3.624  0.0022 -0.8399  0.0141
   41MOL   C30037980   4.922   5.172   3.660  0.2384 -0.4775 -0.8425
   41MOL   C30137981   4.862   5.044   3.640 -0.0000 -0.1931  0.4193
   41MOL   C30237982   4.734   5.011   3.701  0.2745 -0.1638  0.0115
   41MOL   O30337983   4.682   4.899   3.692  0.0344 -0.4324 -0.7581
   41MOL   O30437984   4.673   5.118   3.762  0.3321 -0.1962 -0.1555
   41MOL   C30537985   4.935   4.937   3.593 -0.5208 -0.0561  0.1210
   41MOL   C30637986   5.072   4.957   3.564 -0.2391  0.5992 -0.1352
   41MOL   H30737987   6.330   4.871   3.928 -0.4217 -0.2367 -0.6132
   41MOL   H30837988   6.503   4.880   3.892  0.1289  2.2305  2.9376
   41MOL   H30937989   6.460   5.131   3.837  0.2652 -1.2354 -0.9762
   41MOL   H31037990   6.477   5.075   4.003 -0.0421  0.7462 -0.3105
   41MOL   H31137991   6.243   5.047   4.045 -1.1544 -1.3471 -2.3593
   41MOL   H31237992   6.288   5.209   4.029 -0.2462  1.0750 -1.7299
   41MOL   H31337993   6.178   5.043   3.790  0.6516  1.9076 -1.0133
   41MOL   H31437994   6.191   5.216   3.803 -0.0976 -0.7909 -1.4787
   41MOL   H31537995   5.990   5.079   3.964 -0.0449  0.1919  0.7085
   41MOL   H31637996   6.031   5.254   3.964  0.4302  1.5670 -3.2520
   41MOL   H31737997   5.970   5.261   3.737 -0.7359  2.0622  2.2827
   41MOL   H31837998   5.938   5.081   3.740  0.8632  0.7063 -0.2898
   41MOL   H31937999   5.757   5.114   3.906  1.4537 -0.8836 -0.0745
   41MOL   H32038000   5.797   5.288   3.912 -2.1995  1.1565 -0.6170
   41MOL   H32138001   5.691   5.340   3.739 -0.3916  0.0680 -0.0717
   41MOL   H32238002   5.745   5.218   3.638 -0.0662  0.2422  0.3188
   41MOL   H32338003   5.499   5.210   3.822  0.0612 -0.3100  0.0274
   41MOL   H32438004   5.554   5.067   3.728 -1.1603 -0.5198  0.5028
   41MOL   H32538005   5.506   5.209   3.521 -1.2208  0.5723 -0.5679
   41MOL   H32638006   5.495   5.339   3.624 -1.1275 -0.1407 -3.4151
   41MOL   H32738007   5.102   5.290   3.643  0.4539 -1.0939  0.2561
   41MOL   H32838008   4.872   5.256   3.707  0.7104 -0.1223 -0.9734
   41MOL   H32938009   4.893   4.839   3.573 -0.8161 -0.0780  0.8423
   41MOL   H33038010   5.131   4.880   3.516  0.7026  0.8938  0.5168
   41MOL   O33138011   4.541   5.097   3.821 -0.2418 -0.2434 -0.2443
   41MOL   C33238012   4.559   5.052   3.951 -0.2222 -0.7895 -0.1764
   41MOL   C33338013   4.427   5.067   4.030  0.0437 -0.3356 -0.0508
   41MOL   C33438014   4.383   5.209   4.060 -0.4125  0.1267 -0.0266
   41MOL   C33538015   4.243   5.216   4.128  0.9192 -0.6653  0.5130
   41MOL   C33638016   4.123   5.164   4.049 -0.1483  0.0003 -0.1209
   41MOL   C33738017   3.991   5.182   4.128  1.0222 -0.7703  0.8497
   41MOL   C33838018   3.863   5.115   4.065 -0.0229 -0.1865  0.3036
   41MOL   C33938019   3.727   5.135   4.152 -0.4079 -0.2443 -0.5244
   41MOL   C34038020   3.610   5.053   4.101 -0.4612  0.5380  0.4366
   41MOL   C34138021   3.493   5.061   4.204  0.0922  0.4923  0.1653
   41MOL   O34238022   3.442   5.194   4.203 -0.0977 -0.7954  0.0206
   41MOL   C34338023   3.344   5.222   4.299 -0.2885 -0.1663  0.6588
   41MOL   O34438024   3.319   5.144   4.392 -0.4343  0.1514  0.0227
   41MOL   C34538025   3.295   5.363   4.284 -0.1500 -0.6108 -0.1035
   41MOL   C34638026   3.341   5.460   4.194 -0.8830 -0.7297  0.1102
   41MOL   C34738027   3.267   5.579   4.181 -0.4558 -0.4152 -0.0777
   41MOL   C34838028   3.154   5.608   4.255  0.6761  0.6300 -1.2307
   41MOL   C34938029   3.084   5.735   4.227 -0.4177 -0.5432 -0.0407
   41MOL   O35038030   3.122   5.816   4.145 -0.2258  0.0331  0.3596
   41MOL   O35138031   2.962   5.750   4.283  0.3858 -0.1205  0.5402
   41MOL   C35238032   3.118   5.519   4.360  0.6570 -0.0208 -0.0400
   41MOL   C35338033   3.198   5.404   4.371  0.2388  0.6365  0.0282
   41MOL   H35438034   4.583   4.946   3.944  1.5346 -0.3750 -0.7962
   41MOL   H35538035   4.637   5.105   4.007 -0.2745 -2.0780  1.1403
   41MOL   H35638036   4.443   5.025   4.130  1.5107 -0.4141 -0.3029
   41MOL   H35738037   4.358   5.006   3.973  0.5594 -0.7589 -0.2230
   41MOL   H35838038   4.455   5.253   4.129  0.3546 -1.2986  0.1084
   41MOL   H35938039   4.379   5.269   3.969 -2.5296  1.2909  0.8009
   41MOL   H36038040   4.214   5.316   4.160  1.2212 -0.7619  1.1076
   41MOL   H36138041   4.258   5.151   4.214 -0.9720 -1.7068  0.0774
   41MOL   H36238042   4.109   5.232   3.966  1.5074 -1.3287 -1.5197
   41MOL   H36338043   4.133   5.060   4.018  0.2136  0.6502 -2.2026
   41MOL   H36438044   3.988   5.131   4.224 -1.3936 -0.3227  1.0594
   41MOL   H36538045   3.961   5.282   4.160 -0.3794 -0.6993 -0.5954
   41MOL   H36638046   3.851   5.165   3.969 -0.2861  0.5431  0.7158
   41MOL   H36738047   3.875   5.009   4.042 -0.2288 -0.4599  1.3967
   41MOL   H36838048   3.737   5.108   4.258 -2.9153  0.5529 -0.0626
   41MOL   H36938049   3.707   5.242   4.149  1.1545  0.0582 -0.6521
   41MOL   H37038050   3.644   4.950   4.089  0.9943  0.7716  2.2561
   41MOL   H37138051   3.573   5.095   4.008 -2.9789 -0.6070  0.8696
   41MOL   H37238052   3.527   5.030   4.303 -1.5117 -0.2960  0.4750
   41MOL   H37338053   3.413   4.991   4.179  2.5881 -1.9025 -1.4222
   41MOL   H37438054   3.416   5.425   4.124 -0.0605 -0.4018  0.8258
   41MOL   H37538055   3.295   5.632   4.091 -0.7534 -0.8399 -0.4216
   41MOL   H37638056   3.039   5.537   4.432  1.1921  0.1805  0.4997
   41MOL   H37738057   3.165   5.323   4.434  0.1644 -0.9621 -1.9890
   41MOL   O37838058   2.904   5.884   4.253  0.0869 -0.0004 -0.1595
   41MOL   C37938059   2.911   5.961   4.371 -0.0364  0.0281 -0.3459
   41MOL   C38038060   2.861   6.101   4.330 -0.0405 -0.2670  0.4653
   41MOL   C38138061   2.730   6.097   4.250  0.4159 -0.0263  0.1345
   41MOL   C38238062   2.663   6.221   4.201  0.7826  0.4972  0.0066
   41MOL   C38338063   2.509   6.201   4.195  0.3949  0.1557  0.5608
   41MOL   C38438064   2.470   6.097   4.086 -0.7348  0.0037  0.0310
   41MOL   C38538065   2.319   6.073   4.082  0.1125 -1.0244  0.0900
   41MOL   C38638066   2.249   6.189   4.006  0.5736  0.0764  0.9573
   41MOL   C38738067   2.091   6.171   3.993  0.1245  0.1808 -0.2455
   41MOL   C38838068   2.018   6.238   4.097  0.2520 -0.2129  0.3560
   41MOL   O38938069   2.055   6.201   4.230 -0.3556 -0.3517 -0.1523
   41MOL   C39038070   2.095   6.292   4.321 -0.6936 -0.0325  0.1022
   41MOL   O39138071   2.110   6.409   4.295  0.1855  0.2241 -0.3346
   41MOL   C39238072   2.122   6.224   4.454  0.4734  0.8153 -0.4946
   41MOL   C39338073   2.092   6.086   4.489  0.4522 -0.3960 -0.2960
   41MOL   C39438074   2.126   6.033   4.612  0.0436  0.7991  0.4090
   41MOL   C39538075   2.196   6.106   4.706 -0.4271  0.3146  0.1533
   41MOL   C39638076   2.227   6.055   4.835  0.1345  0.1735 -0.5828
   41MOL   O39738077   2.219   5.936   4.867  0.3658 -0.2085  0.2560
   41MOL   O39838078   2.270   6.149   4.920  0.1029  0.2642  0.7431
   41MOL   C39938079   2.229   6.241   4.667  0.5648 -0.6648  0.4321
   41MOL   C40038080   2.187   6.303   4.550 -1.1488  0.2909  0.3739
   41MOL   H40138081   2.856   5.895   4.439  1.5428  0.7460  1.6703
   41MOL   H40238082   3.012   5.973   4.409 -0.3573 -0.5507  0.7243
   41MOL   H40338083   2.940   6.147   4.271 -0.5966 -2.2556 -1.8803
   41MOL   H40438084   2.858   6.166   4.418  0.8920  0.9132 -0.3618
   41MOL   H40538085   2.743   6.027   4.167 -0.4786 -2.2116  1.7769
   41MOL   H40638086   2.670   6.038   4.319  0.6855  0.2784  0.6353
   41MOL   H40738087   2.710   6.259   4.111  1.2244 -0.4217 -0.1514
   41MOL   H40838088   2.684   6.293   4.280  0.0246  0.9572 -0.2039
   41MOL   H40938089   2.468   6.182   4.294 -2.0581  2.1990  0.0031
   41MOL   H41038090   2.470   6.297   4.163  0.8417  0.0450 -0.3529
   41MOL   H41138091   2.513   6.131   3.992  0.7297  1.4945  1.2110
   41MOL   H41238092   2.522   6.003   4.104 -0.9494  0.4438  3.4662
   41MOL   H41338093   2.294   5.980   4.031 -2.2201 -0.8960  0.9568
   41MOL   H41438094   2.271   6.069   4.180 -2.1284  0.6567 -0.8700
   41MOL   H41538095   2.261   6.289   4.047  0.8308  0.5409 -0.2221
   41MOL   H41638096   2.298   6.183   3.909  0.8562 -4.1857  1.2441
   41MOL   H41738097   2.061   6.066   3.996 -0.1341  0.2192 -1.2812
   41MOL   H41838098   2.064   6.212   3.896  0.8175 -0.5866 -0.7720
   41MOL   H41938099   1.911   6.222   4.080 -0.0064  2.7647 -1.3003
   41MOL   H42038100   2.025   6.346   4.082 -1.8176  0.2869  2.6667
   41MOL   H42138101   2.040   6.021   4.420 -0.6330  2.2758 -2.0291
   41MOL   H42238102   2.102   5.929   4.631  1.6733  0.6426  1.7610
   41MOL   H42338103   2.289   6.306   4.729 -0.2208  0.9473 -0.4575
   41MOL   H42438104   2.221   6.404   4.536  1.1769 -0.2054  2.0210
   41MOL   O42538105   2.305   6.099   5.060  0.1754  0.3133  0.4743
   41MOL   C42638106   2.208   6.147   5.149  0.4536  0.3313  0.0493
   41MOL   C42738107   2.248   6.128   5.294  0.4951 -0.4827  0.1155
   41MOL   C42838108   2.264   5.980   5.329 -0.6087 -0.0332 -0.2509
   41MOL   C42938109   2.367   5.952   5.440  0.9452  0.0010  0.5772
   41MOL   C43038110   2.374   5.798   5.468  0.2289  0.1563 -0.0291
   41MOL   C43138111   2.254   5.741   5.551 -0.1883 -0.2678  0.1448
   41MOL   C43238112   2.263   5.583   5.566  0.1824  0.1518 -1.2959
   41MOL   C43338113   2.147   5.543   5.657  0.2085 -0.6075 -0.3290
   41MOL   C43438114   2.165   5.405   5.716  0.5218 -0.2441 -0.8481
   41MOL   C43538115   2.034   5.360   5.790  0.3739 -0.0114  1.4000
   41MOL   O43638116   1.944   5.351   5.675 -0.0642  0.3177  0.8620
   41MOL   C43738117   1.876   5.241   5.635 -0.1955  0.3734  0.2453
   41MOL   O43838118   1.861   5.149   5.715 -0.5914 -0.2019 -0.5867
   41MOL   C43938119   1.842   5.231   5.487  0.1274 -0.1218 -0.2058
   41MOL   C44038120   1.733   5.153   5.450 -0.5907 -0.1265 -0.3169
   41MOL   C44138121   1.699   5.138   5.315  0.0744 -0.0464 -0.5335
   41MOL   C44238122   1.767   5.213   5.212 -0.2104  0.2538 -0.4338
   41MOL   C44338123   1.719   5.211   5.073 -0.4222 -0.7118 -0.5264
   41MOL   O44438124   1.621   5.148   5.036 -0.4941 -0.0193  1.0754
   41MOL   O44538125   1.792   5.285   4.989 -0.2387 -0.1288  0.1417
   41MOL   C44638126   1.871   5.308   5.253 -0.0921  0.6680  0.1017
   41MOL   C44738127   1.908   5.309   5.388  0.5462  0.4072 -0.3404
   41MOL   H44838128   2.203   6.254   5.132  2.6616  0.6577  1.2297
   41MOL   H44938129   2.117   6.092   5.126  1.3260 -1.1425 -0.0116
   41MOL   H45038130   2.181   6.178   5.364  0.0018 -0.2757 -0.5113
   41MOL   H45138131   2.341   6.183   5.309 -0.2673  0.3430  2.0499
   41MOL   H45238132   2.166   5.936   5.348 -1.4139  1.2530 -1.3421
   41MOL   H45338133   2.299   5.912   5.250  0.4603 -0.6834  0.7671
   41MOL   H45438134   2.335   6.002   5.532 -0.2271 -2.6262  1.6624
   41MOL   H45538135   2.466   5.984   5.408  1.0457  0.4000  1.2592
   41MOL   H45638136   2.386   5.743   5.375 -0.1886  2.3560 -1.4162
   41MOL   H45738137   2.456   5.774   5.537 -0.1527 -0.5870  0.1768
   41MOL   H45838138   2.255   5.788   5.650  1.0288  1.4640 -0.6636
   41MOL   H45938139   2.163   5.771   5.501  0.2613  2.7634  1.0242
   41MOL   H46038140   2.254   5.538   5.467 -2.1657 -0.8062 -0.6911
   41MOL   H46138141   2.357   5.559   5.616 -0.5970  0.7146  0.4742
   41MOL   H46238142   2.123   5.604   5.744  0.8614 -2.2552  1.0227
   41MOL   H46338143   2.062   5.554   5.590  0.2368 -1.1838 -0.4578
   41MOL   H46438144   2.239   5.408   5.796  0.5883 -0.5677 -0.8980
   41MOL   H46538145   2.208   5.341   5.639  2.3359  1.4400 -1.2794
   41MOL   H46638146   1.989   5.441   5.848 -2.1590  0.8152 -1.5775
   41MOL   H46738147   2.047   5.269   5.848  0.2173 -1.4499 -0.7614
   41MOL   H46838148   1.679   5.100   5.527 -0.4982 -0.4283 -0.4595
   41MOL   H46938149   1.613   5.075   5.296 -0.4346  0.8209 -1.1511
   41MOL   H47038150   1.928   5.362   5.179 -1.8780  1.3465 -0.8319
   41MOL   H47138151   1.991   5.372   5.415  0.2835  1.0169 -0.9474
   41MOL   O47238152   1.750   5.276   4.843 -0.3845  0.1599  0.0594
   41MOL   C47338153   1.712   5.402   4.803  0.0357 -0.2100 -0.2551
   41MOL   C47438154   1.569   5.441   4.839  0.0497 -0.3521 -0.2140
   41MOL   C47538155   1.541   5.581   4.780  0.2003  0.3867 -0.5618
   41MOL   C47638156   1.402   5.643   4.821  0.4905 -0.2489 -0.9494
   41MOL   C47738157   1.287   5.551   4.768  0.0908 -0.2468  0.1955
   41MOL   C47838158   1.143   5.599   4.792 -0.2386 -0.4712 -0.0465
   41MOL   C47938159   1.042   5.488   4.795  0.2771 -0.1351 -0.1518
   41MOL   C48038160   0.897   5.531   4.797  0.4794  0.3470 -0.6192
   41MOL   C48138161   0.855   5.580   4.938 -0.6321 -0.5057  0.2088
   41MOL   C48238162   0.854   5.476   5.043  0.1881  0.1906 -0.7933
   41MOL   O48338163   0.911   5.529   5.166  0.2584 -0.2899 -0.5441
   41MOL   C48438164   0.899   5.476   5.287 -0.5920  0.4582  0.1408
   41MOL   O48538165   0.819   5.386   5.315 -0.1053 -0.5291  0.1757
   41MOL   C48638166   0.977   5.547   5.392 -0.4181 -0.6732  0.2989
   41MOL   C48738167   1.067   5.658   5.367  0.5583  0.5285 -0.8803
   41MOL   C48838168   1.137   5.720   5.468  0.0376  0.0249  0.3322
   41MOL   C48938169   1.122   5.689   5.606 -0.5426 -0.1237 -0.2512
   41MOL   C49038170   1.198   5.757   5.713 -0.6607 -0.0104  0.6547
   41MOL   O49138171   1.202   5.724   5.835  0.3592 -0.0896  0.3835
   41MOL   O49238172   1.279   5.858   5.661  0.8390  0.8266  0.0284
   41MOL   C49338173   1.031   5.579   5.629 -1.0584 -0.0859 -0.3637
   41MOL   C49438174   0.967   5.507   5.526  0.0964  0.3430 -0.3397
   41MOL   H49538175   1.785   5.476   4.834 -2.2566  1.9484  0.1873
   41MOL   H49638176   1.715   5.381   4.696  3.0971  0.4274 -0.3136
   41MOL   H49738177   1.542   5.455   4.944 -0.2075 -0.5022 -0.2582
   41MOL   H49838178   1.498   5.367   4.801  1.0662 -0.3117 -2.2460
   41MOL   H49938179   1.609   5.662   4.807 -1.0515  0.9235  1.0972
   41MOL   H50038180   1.549   5.577   4.672  2.8146  0.5838 -0.4181
   41MOL   H50138181   1.396   5.742   4.775 -1.0003 -0.2246 -0.7300
   41MOL   H50238182   1.388   5.664   4.927 -2.2559 -2.2526 -0.8597
   41MOL   H50338183   1.312   5.542   4.662  1.4283 -0.2914  0.5015
   41MOL   H50438184   1.305   5.459   4.823  1.9795  0.4611  0.8181
   41MOL   H50538185   1.137   5.653   4.887  1.1210 -0.1858 -0.1151
   41MOL   H50638186   1.120   5.676   4.719  0.0133  0.5371  0.9146
   41MOL   H50738187   1.051   5.427   4.705  4.1689  1.7141 -1.1400
   41MOL   H50838188   1.052   5.415   4.875 -1.4944 -0.7212 -0.4534
   41MOL   H50938189   0.874   5.612   4.728 -3.3868  0.9343  1.2203
   41MOL   H51038190   0.828   5.448   4.782  0.1369  0.4852  0.1504
   41MOL   H51138191   0.755   5.622   4.941 -0.4284 -0.0394  0.4693
   41MOL   H51238192   0.935   5.646   4.970 -0.0465 -0.6754 -0.8652
   41MOL   H51338193   0.925   5.395   5.024  0.0382  0.3385 -2.0163
   41MOL   H51438194   0.751   5.440   5.051  0.2098  0.2924 -0.0746
   41MOL   H51538195   1.095   5.691   5.268 -0.1472 -1.5964 -1.8117
   41MOL   H51638196   1.224   5.780   5.444  0.0946  0.9347  2.6115
   41MOL   H51738197   1.018   5.545   5.730  0.0504  0.9399  0.1282
   41MOL   H51838198   0.910   5.422   5.561  1.1066  0.0842  0.6893
   41MOL   O51938199   1.362   5.930   5.751 -0.1846  0.3554  0.8733
   41MOL   C52038200   1.292   6.046   5.784 -0.2114 -0.0801  1.0141
   41MOL   C52138201   1.384   6.128   5.875 -0.8888  0.3793 -0.8006
   41MOL   C52238202   1.386   6.080   6.018 -0.4786  0.0667 -0.1542
   41MOL   C52338203   1.480   6.155   6.118 -0.7733 -0.0634  0.7466
   41MOL   C52438204   1.463   6.098   6.260 -0.2990  0.0128 -0.4094
   41MOL   C52538205   1.559   6.163   6.354  0.3426 -0.3533 -0.1416
   41MOL   C52638206   1.564   6.120   6.501 -0.2267  0.0451 -0.1658
   41MOL   C52738207   1.653   6.216   6.583 -0.4134 -0.1751  0.6487
   41MOL   C52838208   1.634   6.213   6.733 -0.0154  0.0425 -0.0533
   41MOL   C52938209   1.743   6.293   6.809  0.6108  0.3575  1.0411
   41MOL   O53038210   1.714   6.311   6.942 -0.0409  0.1409 -0.5338
   41MOL   C53138211   1.715   6.213   7.032  0.4854 -0.2730 -0.5756
   41MOL   O53238212   1.715   6.093   6.997 -0.3075 -0.4330 -0.3410
   41MOL   C53338213   1.703   6.259   7.180  0.6020 -0.0780  0.4923
   41MOL   C53438214   1.731   6.391   7.216  0.1831 -0.3997 -0.7058
   41MOL   C53538215   1.718   6.428   7.347 -0.0873 -0.4205 -0.0439
   41MOL   C53638216   1.688   6.334   7.447 -0.1812 -0.1656 -0.3836
   41MOL   C53738217   1.682   6.383   7.592  0.2920 -0.0490 -0.3074
   41MOL   O53838218   1.679   6.503   7.618  0.2378 -0.3523 -0.4464
   41MOL   O53938219   1.679   6.279   7.685 -0.2312 -0.4030  0.0617
   41MOL   C54038220   1.684   6.202   7.410  0.1040  0.0709  0.2101
   41MOL   C54138221   1.686   6.161   7.279  0.3425 -0.2385  0.9817
   41MOL   H54238222   1.265   6.100   5.693 -0.4966 -0.9575  0.5783
   41MOL   H54338223   1.203   6.029   5.844 -0.6858  0.3197  0.4252
   41MOL   H54438224   1.350   6.232   5.885  1.5006  1.1281 -0.2761
   41MOL   H54538225   1.486   6.118   5.840 -1.0737 -1.6942 -0.7769
   41MOL   H54638226   1.282   6.083   6.050 -0.9547 -0.4706 -1.5777
   41MOL   H54738227   1.400   5.972   6.014  1.1227  0.2944 -1.3181
   41MOL   H54838228   1.439   6.256   6.109 -0.7688 -0.1131  0.1316
   41MOL   H54938229   1.582   6.160   6.081 -0.9013 -0.5781  0.3180
   41MOL   H55038230   1.368   6.121   6.308 -1.0647  0.2330 -1.9864
   41MOL   H55138231   1.470   5.990   6.270  1.3328  0.2146  0.8558
   41MOL   H55238232   1.659   6.159   6.311  1.5682  1.5857  2.4107
   41MOL   H55338233   1.543   6.270   6.366  3.5775 -0.1065  2.5329
   41MOL   H55438234   1.462   6.130   6.538 -0.4069  1.5394 -1.0085
   41MOL   H55538235   1.582   6.014   6.517 -0.1775  0.0843  0.0263
   41MOL   H55638236   1.756   6.187   6.561 -1.4276 -2.7289 -0.8842
   41MOL   H55738237   1.648   6.323   6.563 -0.7005 -0.3808 -0.3937
   41MOL   H55838238   1.636   6.106   6.754  0.1066  0.2180  0.8269
   41MOL   H55938239   1.534   6.245   6.761 -0.5528 -1.2208 -0.4838
   41MOL   H56038240   1.750   6.395   6.770  0.7233  1.0697  2.9006
   41MOL   H56138241   1.841   6.252   6.784 -0.4438 -0.5117 -1.9632
   41MOL   H56238242   1.761   6.461   7.140 -0.2111 -1.7776 -2.1638
   41MOL   H56338243   1.729   6.534   7.363 -1.5276 -0.3656  0.7086
   41MOL   H56438244   1.686   6.122   7.483  1.1121 -0.3569 -0.2616
   41MOL   H56538245   1.693   6.057   7.251  1.2395  0.0457  0.1520
   41MOL   O56638246   1.665   6.319   7.826 -0.1683  0.3152  0.2802
   41MOL   C56738247   1.549   6.256   7.870  0.4232 -0.7749  0.4636
   41MOL   C56838248   1.531   6.271   0.042  0.2024  0.3917 -0.0120
   41MOL   C56938249   1.627   6.187   0.129  0.0793  0.5669 -0.2982
   41MOL   C57038250   1.772   6.253   0.132  0.4516  0.4270  0.6626
   41MOL   C57138251   1.855   6.189   0.246  0.3159 -0.8081  0.7481
   41MOL   C57238252   1.992   6.253   0.272  0.7634  0.5711 -0.0466
   41MOL   C57338253   2.074   6.169   0.370  0.0115 -0.2229  0.0379
   41MOL   C57438254   2.210   6.223   0.397 -0.4901  0.0012 -0.0201
   41MOL   C57538255   2.283   6.135   0.493  0.5614 -0.5169 -0.1535
   41MOL   C57638256   2.429   6.189   0.511 -0.2464  0.0272  0.2260
   41MOL   O57738257   2.497   6.109   0.608 -0.0168 -0.5084  0.1174
   41MOL   C57838258   2.512   6.146   0.736 -0.3452  0.1313 -0.5065
   41MOL   O57938259   2.467   6.257   0.770  0.3729 -0.1457  0.2467
   41MOL   C58038260   2.581   6.043   0.817 -0.4258  0.0682  0.5382
   41MOL   C58138261   2.617   5.917   0.768  1.0182 -0.2534  0.4503
   41MOL   C58238262   2.658   5.813   0.848 -0.5871  0.1412 -1.0118
   41MOL   C58338263   2.682   5.832   0.989  0.9670  0.1021  0.3522
   41MOL   C58438264   2.718   5.721   1.079 -0.2354  0.0240 -0.0322
   41MOL   O58538265   2.773   5.617   1.039  0.4394 -0.1855 -0.7884
   41MOL   O58638266   2.675   5.738   1.206 -0.3759  0.0137 -0.0590
   41MOL   C58738267   2.660   5.960   1.036  0.4628  0.1362  0.3949
   41MOL   C58838268   2.606   6.063   0.954 -0.1544  0.3810  0.4460
   41MOL   H58938269   1.465   6.301   7.816 -2.3844 -4.4195  1.5452
   41MOL   H59038270   1.538   6.150   7.848 -1.8916 -0.7291  1.1887
   41MOL   H59138271   1.431   6.235   0.064  0.2888  0.1146 -0.0667
   41MOL   H59238272   1.528   6.374   0.076 -0.6928  0.2133  0.4786
   41MOL   H59338273   1.586   6.190   0.230 -0.9011  0.2717 -0.6814
   41MOL   H59438274   1.638   6.081   0.108  0.1019  0.4697  0.2158
   41MOL   H59538275   1.774   6.360   0.154  2.0097  0.2552  1.4580
   41MOL   H59638276   1.817   6.237   0.034 -0.0384 -0.1296  0.5267
   41MOL   H59738277   1.801   6.199   0.341 -0.1967  3.5460  0.0992
   41MOL   H59838278   1.868   6.081   0.235  0.4294 -1.0010  2.5736
   41MOL   H59938279   2.041   6.290   0.182 -2.0581  0.8587 -1.5467
   41MOL   H60038280   1.965   6.340   0.331 -0.2323 -1.0919  2.0159
   41MOL   H60138281   2.022   6.152   0.464  2.4932  0.1343  1.5339
   41MOL   H60238282   2.093   6.072   0.325  1.2166 -0.7999  1.7352
   41MOL   H60338283   2.271   6.245   0.309  1.8392  1.3601  1.8569
   41MOL   H60438284   2.205   6.322   0.442  0.1997  0.0435 -0.0208
   41MOL   H60538285   2.294   6.034   0.454 -0.0159  0.1070 -1.9954
   41MOL   H60638286   2.240   6.141   0.592  0.7509  0.9322 -0.1513
   41MOL   H60738287   2.426   6.298   0.521 -0.1838  0.2146 -1.7223
   41MOL   H60838288   2.478   6.173   0.415 -0.1459  0.7163  0.1559
   41MOL   H60938289   2.606   5.897   0.662  1.0261 -3.2876  0.9877
   41MOL   H61038290   2.685   5.712   0.820  1.0416 -0.5370  2.6220
   41MOL   H61138291   2.684   5.983   1.139  0.3202 -0.2341  0.5098
   41MOL   H61238292   2.579   6.157   1.000  0.2686  0.9339 -0.4214
   41MOL   O61338293   2.703   5.618   1.290 -0.5324 -0.1259 -0.0674
   41MOL   C61438294   2.580   5.551   1.324  0.0199  0.0799  0.1313
   41MOL   C61538295   2.603   5.401   1.327 -0.6547 -0.6830 -0.7363
   41MOL   C61638296   2.644   5.349   1.192  0.9225  1.1394 -0.9684
   41MOL   C61738297   2.641   5.196   1.176  0.3404  1.0319 -0.3114
   41MOL   C61838298   2.716   5.149   1.050 -0.4092 -0.2189 -0.1838
   41MOL   C61938299   2.703   4.996   1.026  0.9206 -1.3605 -0.1669
   41MOL   C62038300   2.804   4.948   0.924 -0.3927 -0.3724  0.1598
   41MOL   C62138301   2.779   4.817   0.854 -0.0554  1.0610  0.3249
   41MOL   C62238302   2.875   4.778   0.745 -0.1029  0.2956 -0.4545
   41MOL   C62338303   2.863   4.632   0.690  0.2567 -0.1234 -0.3251
   41MOL   O62438304   2.728   4.620   0.642  0.2441 -0.0145 -0.9655
   41MOL   C62538305   2.693   4.572   0.526  0.4999 -0.4300 -0.1343
   41MOL   O62638306   2.779   4.549   0.434  0.0759 -0.3886  0.2864
   41MOL   C62738307   2.545   4.557   0.519 -1.1210  0.0779 -0.7711
   41MOL   C62838308   2.455   4.599   0.622 -0.2590  0.6099 -0.1246
   41MOL   C62938309   2.317   4.580   0.609  0.6042  0.7510  0.2655
   41MOL   C63038310   2.264   4.511   0.498  0.2149 -0.0338 -0.5184
   41MOL   C63138311   2.118   4.491   0.473 -0.2813  0.4553  0.0768
   41MOL   O63238312   2.077   4.447   0.358 -0.0555 -0.3521 -0.6780
   41MOL   O63338313   2.039   4.532   0.572  0.2668 -0.3445  0.0896
   41MOL   C63438314   2.357   4.471   0.396 -0.5755  1.1471 -0.9619
   41MOL   C63538315   2.494   4.498   0.404 -0.1515 -0.3804 -0.3643
   41MOL   H63638316   2.536   5.576   1.420 -0.2678  1.7601 -0.4123
   41MOL   H63738317   2.516   5.585   1.242 -0.3280 -0.7910  0.0399
   41MOL   H63838318   2.510   5.354   1.359  1.0468 -2.6483  1.5417
   41MOL   H63938319   2.676   5.364   1.398 -1.5045  0.6096  0.8418
   41MOL   H64038320   2.571   5.392   1.124  0.2732  3.8625  1.3589
   41MOL   H64138321   2.742   5.392   1.171  2.7312 -1.0351  2.6187
   41MOL   H64238322   2.541   5.155   1.165  0.5668  0.7188 -1.2280
   41MOL   H64338323   2.695   5.149   1.259 -1.6788 -0.9626 -0.0714
   41MOL   H64438324   2.683   5.211   0.967  2.0782 -0.0764 -1.0944
   41MOL   H64538325   2.820   5.176   1.063 -1.0297  0.6212  3.7953
   41MOL   H64638326   2.715   4.939   1.118 -1.0384  0.4874  1.3022
   41MOL   H64738327   2.599   4.974   1.001  0.5002 -0.1098  0.4131
   41MOL   H64838328   2.827   5.027   0.853  1.3327  0.0029  1.1206
   41MOL   H64938329   2.899   4.925   0.972 -0.7323  1.4173  1.7182
   41MOL   H65038330   2.784   4.734   0.924  1.3405 -0.7188 -1.8212
   41MOL   H65138331   2.679   4.831   0.814  1.4132 -1.4599 -4.6599
   41MOL   H65238332   2.979   4.794   0.773  0.4315  0.4185 -2.4201
   41MOL   H65338333   2.867   4.857   0.671  1.9480  0.3488 -0.6648
   41MOL   H65438334   2.878   4.555   0.766  1.8088  0.7718  0.3064
   41MOL   H65538335   2.942   4.620   0.616  0.7701 -2.6419  0.5756
   41MOL   H65638336   2.490   4.650   0.711 -0.9848  0.5126  0.2197
   41MOL   H65738337   2.261   4.612   0.696  0.2475 -0.9945  0.6943
   41MOL   H65838338   2.310   4.432   0.307  2.2569 -0.4215 -1.8330
   41MOL   H65938339   2.556   4.478   0.318  1.0216 -0.0565  0.3924
   41MOL   O66038340   1.897   4.544   0.527 -0.5016  0.0510 -0.4547
   41MOL   C66138341   1.822   4.458   0.617 -0.2535 -0.1194 -0.0529
   41MOL   C66238342   1.686   4.528   0.627  0.2967 -0.7832  0.7761
   41MOL   C66338343   1.576   4.478   0.727 -0.4095  0.0552  0.2184
   41MOL   C66438344   1.430   4.542   0.709  0.0861 -0.1458  0.4103
   41MOL   C66538345   1.359   4.497   0.579  0.1013  0.2729  0.3381
   41MOL   C66638346   1.224   4.563   0.573 -0.3718 -0.0450 -0.7525
   41MOL   C66738347   1.142   4.510   0.456  0.0211 -0.0772  0.8966
   41MOL   C66838348   1.000   4.561   0.447  0.3224 -0.0108  0.1971
   41MOL   C66938349   0.930   4.503   0.320 -0.7065 -0.1909  0.4596
   41MOL   C67038350   0.784   4.540   0.310  0.4982  0.0423 -0.3582
   41MOL   O67138351   0.725   4.509   0.182  0.0097  1.0113 -0.3715
   41MOL   C67238352   0.632   4.579   0.129 -0.5561 -0.2238  1.2639
   41MOL   O67338353   0.591   4.680   0.182 -0.5801  0.1992 -0.3639
   41MOL   C67438354   0.600   4.535   7.965 -0.2171 -0.6527 -0.2311
   41MOL   C67538355   0.667   4.432   7.900  0.1477 -0.6143 -0.4822
   41MOL   C67638356   0.625   4.386   7.776  0.0356 -0.1415  0.6306
   41MOL   C67738357   0.520   4.451   7.708 -0.6948  0.5263  0.2003
   41MOL   C67838358   0.477   4.408   7.577 -0.1004  0.6102  0.0611
   41MOL   O67938359   0.359   4.414   7.530  0.0733  0.5627  0.2406
   41MOL   O68038360   0.585   4.351   7.522 -0.2543  0.1071  0.0575
   41MOL   C68138361   0.450   4.552   7.770 -0.4961 -0.6133  0.3436
   41MOL   C68238362   0.484   4.588   7.903 -0.1773  0.6440 -0.2144
   41MOL   H68338363   1.831   4.354   0.584  2.0819 -0.3334  1.1956
   41MOL   H68438364   1.870   4.444   0.714 -0.0798 -0.8846 -0.2449
   41MOL   H68538365   1.652   4.524   0.523 -1.1970 -0.0046  1.2216
   41MOL   H68638366   1.699   4.636   0.633  1.4323 -0.7519 -1.6414
   41MOL   H68738367   1.568   4.370   0.726  0.1514  0.0172 -0.4525
   41MOL   H68838368   1.609   4.498   0.829  1.2678 -0.3399 -0.2209
   41MOL   H68938369   1.443   4.650   0.707  0.2892 -0.1954 -1.5904
   41MOL   H69038370   1.368   4.511   0.793 -0.3578  1.4617  0.7034
   41MOL   H69138371   1.421   4.535   0.497  0.5891 -3.0099 -0.8850
   41MOL   H69238372   1.365   4.389   0.566 -0.8173  0.1674  0.7874
   41MOL   H69338373   1.162   4.535   0.658 -1.6705 -0.1971 -1.7389
   41MOL   H69438374   1.245   4.669   0.562  2.0623 -0.4581 -0.4845
   41MOL   H69538375   1.200   4.532   0.366 -1.7359 -1.1778 -0.5493
   41MOL   H69638376   1.139   4.401   0.454  0.9929 -0.1061  0.9566
   41MOL   H69738377   0.944   4.524   0.533 -1.1820  0.7958 -0.4042
   41MOL   H69838378   1.009   4.670   0.442  0.5071  0.1012  2.2610
   41MOL   H69938379   0.934   4.397   0.343 -0.5751 -0.1045  0.8363
   41MOL   H70038380   0.985   4.525   0.228 -0.7848  0.2777  0.5227
   41MOL   H70138381   0.773   4.648   0.318  0.2883  0.1503 -1.8421
   41MOL   H70238382   0.727   4.491   0.388  0.4278 -1.1104 -1.1185
   41MOL   H70338383   0.752   4.377   7.937 -0.8680 -2.3624 -0.7072
   41MOL   H70438384   0.675   4.302   7.731 -0.4938 -1.0929  1.8018
   41MOL   H70538385   0.361   4.594   7.725 -0.5840  0.8775  1.8501
   41MOL   H70638386   0.423   4.659   7.959  1.2793  1.4220  0.4063
   41MOL   O70738387   0.564   4.313   7.381 -0.0914 -0.1847  0.1879
   41MOL   C70838388   0.573   4.172   7.374  0.1573 -0.1232 -0.7574
   41MOL   C70938389   0.581   4.135   7.227 -0.2703  0.1247 -0.5175
   41MOL   C71038390   0.721   4.148   7.158 -0.5835 -0.7608 -0.0534
   41MOL   C71138391   0.723   4.075   7.022  0.0832 -0.0322  0.3128
   41MOL   C71238392   0.858   4.104   6.959 -0.2996 -0.0856 -0.4324
   41MOL   C71338393   0.859   4.060   6.817  0.0526  0.0415  0.2034
   41MOL   C71438394   0.988   4.097   6.741  0.4042  0.1795  0.2636
   41MOL   C71538395   1.018   4.257   6.736 -0.1413 -0.3721  0.0300
   41MOL   C71638396   0.919   4.340   6.664 -0.0613  0.5740  0.1512
   41MOL   C71738397   0.922   4.496   6.692 -0.2636 -0.3045 -0.4441
   41MOL   O71838398   0.886   4.536   6.816  0.2031  0.0075 -0.0686
   41MOL   C71938399   0.858   4.663   6.841 -0.6093 -0.6240 -0.0908
   41MOL   O72038400   0.873   4.747   6.752  0.1122 -0.0510 -0.0050
   41MOL   C72138401   0.814   4.683   6.987  0.0473  0.2520  0.4543
   41MOL   C72238402   0.765   4.576   7.066  0.0653 -0.0540  0.0456
   41MOL   C72338403   0.739   4.600   7.200 -0.0305  0.5811 -0.3836
   41MOL   C72438404   0.763   4.727   7.255  0.0756  0.3303  0.4409
   41MOL   C72538405   0.753   4.761   7.401 -0.2113  0.3121 -0.0860
   41MOL   O72638406   0.716   4.677   7.479  0.3916  0.5541  0.0299
   41MOL   O72738407   0.788   4.883   7.439 -0.2304 -0.0509  0.1633
   41MOL   C72838408   0.801   4.838   7.170 -0.6828 -0.8389 -0.8540
   41MOL   C72938409   0.817   4.813   7.034  0.8441  0.1026 -0.2663
   41MOL   H73038410   0.663   4.138   7.425  2.2371  1.4882 -3.2550
   41MOL   H73138411   0.492   4.136   7.438  0.1262 -0.1374 -0.8053
   41MOL   H73238412   0.494   4.179   7.179 -1.5576 -1.4010  0.3785
   41MOL   H73338413   0.568   4.027   7.231 -0.2040  0.1165 -0.5004
   41MOL   H73438414   0.729   4.256   7.145 -0.4305 -0.6776  0.7232
   41MOL   H73538415   0.800   4.111   7.222 -0.4280  1.7790  1.2737
   41MOL   H73638416   0.635   4.111   6.969 -0.1153 -1.8219 -0.5945
   41MOL   H73738417   0.705   3.968   7.032 -1.3728  0.3768  2.4009
   41MOL   H73838418   0.881   4.211   6.963 -2.5921  0.4186  0.0523
   41MOL   H73938419   0.941   4.052   7.007 -1.4436 -0.1969  1.5012
   41MOL   H74038420   0.848   3.951   6.815  1.4435 -0.0914 -1.2046
   41MOL   H74138421   0.774   4.107   6.767 -0.0821 -0.7894 -0.3673
   41MOL   H74238422   1.077   4.049   6.784 -0.5847 -2.3172 -0.3943
   41MOL   H74338423   0.974   4.063   6.639 -0.4247  0.9817  0.1047
   41MOL   H74438424   1.024   4.292   6.840 -0.1694  2.4497 -0.8697
   41MOL   H74538425   1.109   4.262   6.678  0.6646  3.4014  1.4430
   41MOL   H74638426   0.823   4.296   6.690 -0.0817  0.8392  0.5340
   41MOL   H74738427   0.945   4.318   6.560 -0.6068  1.4972 -0.1892
   41MOL   H74838428   0.857   4.552   6.624 -0.2179 -0.9831 -1.0600
   41MOL   H74938429   1.023   4.535   6.678 -0.6283  0.2598 -1.6085
   41MOL   H75038430   0.761   4.476   7.024  0.1062 -0.0259 -0.0234
   41MOL   H75138431   0.706   4.524   7.269  1.5666  0.8192  0.6765
   41MOL   H75238432   0.802   4.939   7.210 -3.8039 -1.0717 -0.0388
   41MOL   H75338433   0.847   4.893   6.968  0.8520  0.3741  0.0706
   41MOL   O75438434   0.850   4.897   7.574  0.0119  0.0522  0.2291
   41MOL   C75538435   0.749   4.934   7.667 -0.1725 -0.2115  0.1331
   41MOL   C75638436   0.807   4.948   7.802  0.5126  0.4284  0.4054
   41MOL   C75738437   0.850   4.811   7.857  0.4150 -0.2802  0.9143
   41MOL   C75838438   0.897   4.811   0.025 -0.7543  0.9630  0.4312
   41MOL   C75938439   1.040   4.866   0.042 -0.2132  0.5691 -0.0574
   41MOL   C76038440   1.107   4.825   0.178 -1.0517  0.5422  0.4715
   41MOL   C76138441   1.248   4.875   0.190 -0.4139 -0.2143 -0.4463
   41MOL   C76238442   1.317   4.846   0.329  0.3801  0.2436  0.7137
   41MOL   C76338443   1.442   4.929   0.337  0.3080 -0.1362 -0.0960
   41MOL   C76438444   1.512   4.927   0.469  0.1284 -0.1377  0.3584
   41MOL   O76538445   1.644   4.980   0.465  0.4195 -0.5638  0.3304
   41MOL   C76638446   1.737   4.907   0.420 -0.2127  0.0359 -0.2099
   41MOL   O76738447   1.735   4.783   0.393  0.0486 -0.4897  0.1735
   41MOL   C76838448   1.872   4.975   0.422  0.3979  0.5267  0.7954
   41MOL   C76938449   1.989   4.898   0.410 -0.3106  0.1037  0.1314
   41MOL   C77038450   2.122   4.964   0.414 -0.0173  0.0364  0.1000
   41MOL   C77138451   2.132   5.100   0.433  0.1774 -1.1077  0.4292
   41MOL   C77238452   2.256   5.171   0.460 -0.2872 -0.0996 -0.3713
   41MOL   O77338453   2.265   5.286   0.501 -0.2487  0.5356  0.2977
   41MOL   O77438454   2.369   5.098   0.431 -0.9252  0.5990  0.0503
   41MOL   C77538455   2.013   5.179   0.438 -0.0300 -0.0785  0.5749
   41MOL   C77638456   1.886   5.116   0.426 -0.2324 -0.1906  0.2917
   41MOL   H77738457   0.717   5.032   7.632  0.8846  0.8624  2.0499
   41MOL   H77838458   0.663   4.867   7.666  0.1701 -0.6755  1.0127
   41MOL   H77938459   0.723   4.993   7.856  0.0870 -0.4913  0.5100
   41MOL   H78038460   0.889   5.019   7.811  0.7370  0.4378 -1.6097
   41MOL   H78138461   0.775   4.733   7.842 -0.9545  1.0707  0.5503
   41MOL   H78238462   0.929   4.771   7.794 -1.0494 -0.3003 -0.9653
   41MOL   H78338463   0.899   4.706   0.057  0.7212  0.7181 -0.4055
   41MOL   H78438464   0.822   4.853   0.091 -0.9281  0.5961  0.4683
   41MOL   H78538465   1.110   4.841   7.940  1.4137  0.4410  1.3642
   41MOL   H78638466   1.033   4.975   0.043  0.4220  0.6153 -0.2866
   41MOL   H78738467   1.042   4.864   0.256 -0.2218  0.0408  1.4376
   41MOL   H78838468   1.113   4.717   0.169  1.8193  0.7142 -0.2006
   41MOL   H78938469   1.305   4.837   0.105 -0.1459 -0.4776 -0.1496
   41MOL   H79038470   1.236   4.982   0.173 -4.6791 -0.5192  0.1644
   41MOL   H79138471   1.251   4.865   0.413  2.6871  1.9267  2.1977
   41MOL   H79238472   1.340   4.740   0.337  0.4907  0.3163  1.3552
   41MOL   H79338473   1.432   5.032   0.302 -0.3055 -0.5567 -1.1750
   41MOL   H79438474   1.501   4.895   0.252  1.2574  2.3135 -0.4672
   41MOL   H79538475   1.513   4.824   0.502  1.1503 -1.3802 -3.3143
   41MOL   H79638476   1.451   4.976   0.546 -0.8784 -0.4602 -0.2206
   41MOL   H79738477   1.979   4.791   0.403 -1.4563  0.2661 -0.7349
   41MOL   H79838478   2.211   4.903   0.418  0.2288  0.4648  1.2973
   41MOL   H79938479   2.013   5.287   0.446  0.3106  0.2158 -2.7194
   41MOL   H80038480   1.799   5.178   0.410  0.4677  0.2911 -1.7757
   41MOL   O80138481   2.510   5.163   0.452  0.5984 -0.4592  0.1272
   41MOL   C80238482   2.540   5.140   0.587 -0.2233  0.2417 -0.1658
   41MOL   C80338483   2.667   5.228   0.630 -0.1499 -0.9649 -0.3635
   41MOL   C80438484   2.639   5.380   0.626 -0.8689  0.5203  0.3123
   41MOL   C80538485   2.754   5.474   0.661  0.6231  0.2180 -0.7302
   41MOL   C80638486   2.738   5.613   0.596 -0.2470  0.5129 -0.1594
   41MOL   C80738487   2.758   5.612   0.447  0.3642  0.1368  0.2214
   41MOL   C80838488   2.797   5.747   0.392  0.7824 -0.4396  0.1511
   41MOL   C80938489   2.931   5.803   0.441 -0.0769 -0.3337  0.2306
   41MOL   C81038490   2.980   5.916   0.347 -0.1141  0.0844 -0.0725
   41MOL   C81138491   3.043   5.886   0.215  0.7608  0.3604 -0.3694
   41MOL   O81238492   2.941   5.843   0.125 -0.1725 -0.0452  0.3175
   41MOL   C81338493   2.963   5.835   7.970 -0.0021  0.1774  0.5487
   41MOL   O81438494   3.064   5.888   7.917 -0.3842  0.1029  0.3423
   41MOL   C81538495   2.860   5.757   7.888  0.1239 -0.4057 -0.3184
   41MOL   C81638496   2.887   5.693   7.769  0.4204 -0.1814  0.5797
   41MOL   C81738497   2.783   5.622   7.697 -0.0405 -1.0344 -0.2811
   41MOL   C81838498   2.651   5.616   7.747  0.3834 -0.5570  0.3629
   41MOL   C81938499   2.544   5.542   7.678  0.1500  0.3522 -0.0684
   41MOL   O82038500   2.426   5.544   7.713 -0.0992 -0.5946 -0.3392
   41MOL   O82138501   2.575   5.483   7.559  0.2055 -0.2192 -0.4224
   41MOL   C82238502   2.625   5.688   7.869  0.4736 -0.4895 -0.4645
   41MOL   C82338503   2.729   5.754   7.940 -0.6413 -1.0188  0.2493
   41MOL   H82438504   2.451   5.158   0.648  0.1866 -0.5087  0.6522
   41MOL   H82538505   2.561   5.035   0.606 -0.8931 -0.3324 -2.3943
   41MOL   H82638506   2.765   5.212   0.585 -0.0596 -0.7045 -0.2610
   41MOL   H82738507   2.688   5.219   0.737  1.6823  3.4304 -0.2199
   41MOL   H82838508   2.600   5.410   0.528  0.0828  1.9131  0.3426
   41MOL   H82938509   2.559   5.407   0.695  1.1205  2.3338  1.9623
   41MOL   H83038510   2.849   5.430   0.632  0.3203  1.5302 -3.9599
   41MOL   H83138511   2.767   5.483   0.769  2.1276 -0.3437 -0.8642
   41MOL   H83238512   2.639   5.652   0.620 -0.0963  1.9965 -1.8637
   41MOL   H83338513   2.805   5.685   0.644 -0.3628  1.0676 -0.8198
   41MOL   H83438514   2.840   5.543   0.426 -0.4470 -1.0340  0.8173
   41MOL   H83538515   2.678   5.568   0.388 -2.1032  1.1051  2.7271
   41MOL   H83638516   2.804   5.723   0.286 -0.5104  1.7674 -0.4688
   41MOL   H83738517   2.714   5.817   0.393 -0.8410 -2.1387 -4.3881
   41MOL   H83838518   2.920   5.844   0.541 -0.9298  0.6319 -0.2523
   41MOL   H83938519   3.003   5.722   0.450  0.7786  0.0181 -2.9528
   41MOL   H84038520   3.041   5.982   0.408  0.2337 -0.6461  0.3789
   41MOL   H84138521   2.908   5.993   0.321 -0.5339 -0.3942 -0.3436
   41MOL   H84238522   3.121   5.811   0.225  1.5728  1.4106  1.3802
   41MOL   H84338523   3.094   5.975   0.180 -1.4278  2.1279  0.7647
   41MOL   H84438524   2.986   5.700   7.726  0.3846  1.7037  0.7717
   41MOL   H84538525   2.816   5.572   7.607  0.2026 -2.2398  0.4669
   41MOL   H84638526   2.524   5.678   7.904  1.1690  0.9691  2.0348
   41MOL   H84738527   2.708   5.785   0.063  1.9253  0.2490  0.4273
   41MOL   O84838528   2.461   5.419   7.490  0.0070 -0.2802  0.0835
   41MOL   C84938529   2.409   5.510   7.393 -0.0964 -0.4793  0.1528
   41MOL   C85038530   2.286   5.438   7.334  0.6090  0.7866 -0.5923
   41MOL   C85138531   2.219   5.512   7.209 -0.0718  0.1510  0.1304
   41MOL   C85238532   2.111   5.430   7.141  0.1370 -0.1224 -0.5609
   41MOL   C85338533   2.065   5.494   7.015 -0.3647 -0.1498 -0.6914
   41MOL   C85438534   1.916   5.456   6.995 -0.2394  0.4049  0.2242
   41MOL   C85538535   1.853   5.516   6.869  0.1752  0.5406  0.0470
   41MOL   C85638536   1.910   5.464   6.734 -0.9264 -0.0766 -0.1893
   41MOL   C85738537   1.795   5.448   6.628  0.3424  0.4317 -0.6807
   41MOL   C85838538   1.768   5.569   6.552 -0.2353 -0.6435 -0.4844
   41MOL   O85938539   1.671   5.532   6.450 -0.1923  0.1460  0.1163
   41MOL   C86038540   1.599   5.630   6.387 -0.3590  0.1162  0.5258
   41MOL   O86138541   1.646   5.746   6.394 -0.0014 -0.8767  0.7694
   41MOL   C86238542   1.485   5.589   6.301 -0.2305  0.0707  0.0053
   41MOL   C86338543   1.425   5.684   6.219  0.6659 -0.1241  0.0517
   41MOL   C86438544   1.320   5.653   6.137 -0.6626  0.5854 -0.8968
   41MOL   C86538545   1.265   5.520   6.132 -0.1568 -0.1698 -0.6080
   41MOL   C86638546   1.142   5.491   6.053  0.0461  0.0149  0.3635
   41MOL   O86738547   1.124   5.384   5.992 -0.3734  0.0019  0.0418
   41MOL   O86838548   1.059   5.589   6.061  0.3911 -0.0051  0.0634
   41MOL   C86938549   1.328   5.424   6.212 -0.3890 -0.9020  0.3097
   41MOL   C87038550   1.437   5.457   6.292  0.4855 -0.2915 -0.4843
   41MOL   H87138551   2.384   5.609   7.431  1.1860 -0.2959  0.5354
   41MOL   H87238552   2.483   5.520   7.314  0.4086  1.7562  0.8878
   41MOL   H87338553   2.204   5.434   7.406 -0.3166  1.4464 -1.6087
   41MOL   H87438554   2.315   5.335   7.314  0.5846  0.6853 -0.1257
   41MOL   H87538555   2.184   5.611   7.238  1.9762  1.1836 -0.7824
   41MOL   H87638556   2.294   5.523   7.130 -1.0341  0.1375 -0.7903
   41MOL   H87738557   2.028   5.424   7.211 -0.5226 -0.4045 -1.3629
   41MOL   H87838558   2.156   5.333   7.120 -0.8899 -0.4738 -1.1538
   41MOL   H87938559   2.064   5.603   7.028 -0.6235  0.1040 -2.7220
   41MOL   H88038560   2.133   5.467   6.934 -1.4400  0.2546 -1.7390
   41MOL   H88138561   1.903   5.348   6.985 -0.6730  0.2886  1.9653
   41MOL   H88238562   1.857   5.481   7.082 -1.1802 -0.2869 -0.2120
   41MOL   H88338563   1.749   5.485   6.880  0.3991  0.1982  1.3041
   41MOL   H88438564   1.852   5.625   6.873  1.2605  0.5799 -0.6273
   41MOL   H88538565   1.986   5.538   6.706 -0.1501 -0.0685  1.8433
   41MOL   H88638566   1.978   5.379   6.744 -2.1810 -1.1634 -0.7574
   41MOL   H88738567   1.714   5.383   6.660  2.5879 -1.2357  1.9322
   41MOL   H88838568   1.846   5.381   6.559  0.0621 -0.7101  0.1943
   41MOL   H88938569   1.861   5.613   6.516 -0.0516 -0.0907  0.6248
   41MOL   H89038570   1.731   5.645   6.621 -1.3691 -1.5363 -0.0767
   41MOL   H89138571   1.455   5.788   6.217  1.3768 -0.3448 -1.1494
   41MOL   H89238572   1.274   5.733   6.082 -3.3169  0.1759  0.6529
   41MOL   H89338573   1.300   5.320   6.202  0.5894 -1.0250 -1.3346
   41MOL   H89438574   1.481   5.373   6.343 -0.7867 -1.3100 -1.0332
   41MOL   O89538575   0.937   5.584   5.975 -0.0137  0.0096 -0.1832
   41MOL   C89638576   0.824   5.534   6.051 -0.0727  0.4065 -0.1196
   41MOL   C89738577   0.813   5.605   6.189 -0.3708  0.1712  0.4288
   41MOL   C89838578   0.677   5.592   6.254 -0.3503  0.1977  0.3994
   41MOL   C89938579   0.671   5.665   6.386 -0.3653  0.5096  0.2546
   41MOL   C90038580   0.528   5.698   6.434  0.2223 -0.5836 -0.7580
   41MOL   C90138581   0.524   5.715   6.585  0.3691 -0.9354 -0.4694
   41MOL   C90238582   0.380   5.738   6.635  0.4852  0.1838 -0.3459
   41MOL   C90338583   0.364   5.747   6.791  0.8753  0.6840  0.0809
   41MOL   C90438584   0.222   5.793   6.822 -0.3810 -0.0079 -0.5034
   41MOL   C90538585   0.210   5.843   6.966 -0.6154  0.4340 -0.0610
   41MOL   O90638586   0.228   5.738   7.058 -0.3236 -0.1413  0.1738
   41MOL   C90738587   0.221   5.749   7.192  0.2748  0.7417 -0.1538
   41MOL   O90838588   0.193   5.857   7.250  0.4234  0.4660 -0.1185
   41MOL   C90938589   0.227   5.614   7.261 -0.2703 -0.7544 -0.5496
   41MOL   C91038590   0.244   5.611   7.404  0.8641 -0.5583  0.1089
   41MOL   C91138591   0.240   5.489   7.475  0.3676 -0.2524 -0.2578
   41MOL   C91238592   0.213   5.368   7.403 -0.7453 -0.0225  0.0836
   41MOL   C91338593   0.209   5.239   7.474  0.0185 -0.1559  0.3750
   41MOL   O91438594   0.236   5.227   7.591 -0.5431 -0.0450  0.6676
   41MOL   O91538595   0.144   5.145   7.403 -0.1249  0.1886 -0.5383
   41MOL   C91638596   0.194   5.372   7.265 -0.0112 -0.0326  0.0260
   41MOL   C91738597   0.202   5.491   7.192  0.3807 -0.3689  0.7529
   41MOL   H91838598   0.729   5.555   6.002 -0.6289 -0.2523  0.6643
   41MOL   H91938599   0.836   5.426   6.059 -1.7158  0.1038 -1.3561
   41MOL   H92038600   0.833   5.711   6.172 -1.3291 -0.1029 -2.5117
   41MOL   H92138601   0.883   5.568   6.265 -0.1520 -1.5773 -0.6048
   41MOL   H92238602   0.607   5.623   6.177  0.7420  0.9585 -0.3121
   41MOL   H92338603   0.670   5.484   6.264 -0.1585  0.1580  0.0975
   41MOL   H92438604   0.730   5.756   6.385 -0.7301  0.7508  0.3920
   41MOL   H92538605   0.732   5.612   6.459 -0.3008 -0.6965 -0.6648
   41MOL   H92638606   0.492   5.789   6.385  0.9544 -0.3526 -0.8745
   41MOL   H92738607   0.465   5.618   6.394 -0.7742 -0.0468 -0.2787
   41MOL   H92838608   0.573   5.631   6.633 -0.7166 -1.5659 -0.4566
   41MOL   H92938609   0.575   5.808   6.608 -2.0897  0.0154  1.3097
   41MOL   H93038610   0.350   5.832   6.588  0.1862 -1.4107 -3.4033
   41MOL   H93138611   0.321   5.652   6.604  0.8806 -0.0833 -0.3605
   41MOL   H93238612   0.371   5.648   6.836  1.3141  0.4017 -0.6079
   41MOL   H93338613   0.442   5.816   6.823  0.9268  1.0200 -0.7586
   41MOL   H93438614   0.152   5.711   6.802  0.7605 -0.5091 -2.5502
   41MOL   H93538615   0.194   5.878   6.761 -0.0200  1.1109  0.8698
   41MOL   H93638616   0.109   5.883   6.980 -0.1671  1.1292  1.2969
   41MOL   H93738617   0.272   5.928   6.993 -1.4157  0.8178  0.5875
   41MOL   H93838618   0.258   5.705   7.456 -2.0145 -1.2242  2.2172
   41MOL   H93938619   0.270   5.488   7.579  1.2272 -0.7393 -0.5055
   41MOL   H94038620   0.171   5.280   7.213  2.8266 -0.7151 -0.1627
   41MOL   H94138621   0.187   5.489   7.085  0.1199 -0.8506  0.8024
   41MOL   H94238622   0.083   5.108   7.465  2.4327 -2.2937  0.6330
   42MOL     O138623   6.405   6.320   4.372 -0.1107 -0.0718  0.1604
   42MOL     C238624   6.427   6.318   4.507  0.0741 -0.2688 -0.2655
   42MOL     C338625   6.561   6.256   4.545  0.1026  0.4938 -0.3513
   42MOL     C438626   6.689   6.319   4.492 -0.1800 -0.3950  0.8098
   42MOL     C538627   6.820   6.268   4.560 -0.0905  0.1252  0.6065
   42MOL     C638628   6.944   6.331   4.502 -0.4789 -0.3150  0.1216
   42MOL     C738629   7.074   6.269   4.569  0.0103 -0.5629  1.0409
   42MOL     C838630   7.202   6.343   4.519  0.4449 -0.2877 -0.0698
   42MOL     C938631   7.326   6.267   4.553 -0.0441 -0.6996 -0.0501
   42MOL    C1038632   7.340   6.222   4.698  0.9017 -0.1817 -0.5229
   42MOL    C1138633   7.466   6.136   4.723  0.3721 -0.4145  0.2477
   42MOL    O1238634   7.443   6.012   4.660  0.1928  0.1274  0.2787
   42MOL    C1338635   7.527   5.910   4.655 -0.1278  0.7894  1.2060
   42MOL    O1438636   7.642   5.917   4.691  0.0831  0.3073 -0.6201
   42MOL    C1538637   7.465   5.786   4.593  0.1655  0.4200 -0.3705
   42MOL    C1638638   7.352   5.790   4.503  0.1824  0.8929 -0.2771
   42MOL    C1738639   7.305   5.671   4.439  0.3025 -0.2509 -0.1874
   42MOL    C1838640   7.356   5.541   4.473  0.2214 -0.2575 -0.7436
   42MOL    C1938641   7.304   5.420   4.407 -0.4406  0.3532 -0.3141
   42MOL    O2038642   7.226   5.419   4.308 -0.7677 -0.4666 -0.1969
   42MOL    O2138643   7.347   5.314   4.460  0.1568  0.1261  0.0721
   42MOL    C2238644   7.455   5.540   4.574  0.3498 -0.0160  0.4558
   42MOL    C2338645   7.512   5.657   4.629  0.3400 -0.9386 -0.0407
   42MOL    H2438646   6.418   6.422   4.538 -1.4549 -0.1035 -1.2124
   42MOL    H2538647   6.345   6.268   4.558 -0.6816  1.1432 -0.0505
   42MOL    H2638648   6.549   6.153   4.511 -1.6030  0.8765 -0.9962
   42MOL    H2738649   6.566   6.247   4.653 -0.4313 -1.9074 -0.4985
   42MOL    H2838650   6.689   6.323   4.383 -1.9293 -1.7127  0.7396
   42MOL    H2938651   6.683   6.423   4.524 -1.1250  0.5880 -2.3794
   42MOL    H3038652   6.822   6.160   4.544  1.5785  0.2522 -0.1298
   42MOL    H3138653   6.831   6.287   4.667 -1.7930 -1.5348  1.1034
   42MOL    H3238654   6.953   6.316   4.394  0.1962 -0.9728  0.2583
   42MOL    H3338655   6.945   6.439   4.515 -0.3970 -0.2154 -0.6922
   42MOL    H3438656   7.068   6.261   4.678  1.3210  0.7817  1.2362
   42MOL    H3538657   7.083   6.168   4.530  0.0721 -0.8720  1.8488
   42MOL    H3638658   7.199   6.348   4.410  0.4679  2.9691  0.0306
   42MOL    H3738659   7.214   6.448   4.548  1.0930 -0.4498  0.2654
   42MOL    H3838660   7.327   6.171   4.501 -0.3060 -0.5637 -0.3004
   42MOL    H3938661   7.413   6.324   4.523 -0.1781  0.0911  1.0170
   42MOL    H4038662   7.248   6.169   4.723 -0.4311  0.5606 -3.5850
   42MOL    H4138663   7.348   6.306   4.767  0.8475 -1.4380  1.0590
   42MOL    H4238664   7.460   6.131   4.832  0.5928 -3.5106  0.1687
   42MOL    H4338665   7.558   6.183   4.687 -0.4790  0.0816 -1.3547
   42MOL    H4438666   7.316   5.889   4.481  0.4367  1.6396  2.4705
   42MOL    H4538667   7.222   5.684   4.371 -2.3318  0.6442  3.0900
   42MOL    H4638668   7.507   5.450   4.604  4.0142  1.2161 -1.8480
   42MOL    H4738669   7.600   5.644   4.690 -1.1213 -1.2178  2.0860
   42MOL    H4838670   6.452   6.396   4.341 -2.0435  0.6058 -1.2105
   42MOL    O4938671   7.259   5.190   4.435 -0.5452  0.3388  0.1498
   42MOL    C5038672   7.324   5.115   4.333 -0.7406  0.0603  0.2404
   42MOL    C5138673   7.223   5.009   4.281  0.3280  0.0440 -0.4912
   42MOL    C5238674   7.191   4.894   4.381 -0.3307 -0.2752  0.2889
   42MOL    C5338675   7.075   4.797   4.339 -0.1515 -0.3589  0.5241
   42MOL    C5438676   7.110   4.678   4.248  0.1802 -0.8088 -0.9290
   42MOL    C5538677   7.184   4.564   4.328 -0.1150  0.1888 -0.7653
   42MOL    C5638678   7.240   4.460   4.232  0.3687 -0.0006 -0.1969
   42MOL    C5738679   7.350   4.372   4.304  0.1556  0.0475 -0.3451
   42MOL    C5838680   7.375   4.221   4.257 -0.7699 -0.0898  0.3736
   42MOL    C5938681   7.452   4.214   4.123  0.1931  0.1145 -0.9625
   42MOL    O6038682   7.468   4.080   4.092  0.1766  0.2154  0.1836
   42MOL    C6138683   7.490   4.047   3.966 -0.3538 -0.3684 -0.0042
   42MOL    O6238684   7.516   4.127   3.880 -0.4680  0.4513 -0.7240
   42MOL    C6338685   7.498   3.901   3.942 -0.0875 -0.4909 -0.1355
   42MOL    C6438686   7.514   3.852   3.813 -0.4478 -0.0720  1.2918
   42MOL    C6538687   7.535   3.716   3.785 -0.3961  0.1266  0.0496
   42MOL    C6638688   7.528   3.616   3.894  0.2237 -0.7478 -0.4592
   42MOL    C6738689   7.538   3.464   3.858 -0.5834 -0.0568  0.0506
   42MOL    O6838690   7.501   3.369   3.927 -0.1819  0.2688  0.3349
   42MOL    O6938691   7.600   3.437   3.748  0.5355 -0.3343  0.1872
   42MOL    C7038692   7.508   3.665   4.025 -0.3675  0.3536 -0.1335
   42MOL    C7138693   7.491   3.805   4.044  0.1143 -0.0205 -0.1501
   42MOL    H7238694   7.344   5.191   4.256 -1.5105 -1.0216 -1.0565
   42MOL    H7338695   7.417   5.072   4.368 -0.9366 -1.3475 -0.9078
   42MOL    H7438696   7.254   4.961   4.189  0.6280 -0.7612  0.0230
   42MOL    H7538697   7.143   5.078   4.255  1.2696  0.6015 -1.9622
   42MOL    H7638698   7.282   4.836   4.393 -0.4171 -0.6651 -0.8395
   42MOL    H7738699   7.171   4.926   4.483  1.7726  0.4521  0.4858
   42MOL    H7838700   6.993   4.858   4.303 -0.4797 -2.0109 -1.6180
   42MOL    H7938701   7.030   4.748   4.425 -1.4369  1.2960  0.8108
   42MOL    H8038702   7.024   4.633   4.199 -1.1608  0.2861  0.4098
   42MOL    H8138703   7.158   4.716   4.158 -0.0703  0.5083 -0.5156
   42MOL    H8238704   7.274   4.607   4.373 -1.5373  3.1007 -0.5992
   42MOL    H8338705   7.115   4.520   4.399 -2.0734  2.1048 -1.4421
   42MOL    H8438706   7.166   4.390   4.193  2.1785 -1.2702 -1.4975
   42MOL    H8538707   7.284   4.512   4.147 -1.8467 -0.0277 -1.4004
   42MOL    H8638708   7.445   4.423   4.292 -0.3429  0.4970 -2.5604
   42MOL    H8738709   7.320   4.365   4.409  0.2463 -1.7035 -0.4193
   42MOL    H8838710   7.281   4.167   4.249 -0.7055 -0.0829 -0.5375
   42MOL    H8938711   7.440   4.173   4.330  0.5320  0.0487 -0.6625
   42MOL    H9038712   7.549   4.262   4.132 -0.1750  0.6566  0.3419
   42MOL    H9138713   7.397   4.277   4.053  0.8859  2.4449  0.5209
   42MOL    H9238714   7.505   3.922   3.731 -3.4394 -1.7046  0.1748
   42MOL    H9338715   7.534   3.676   3.684  1.1465 -2.1645  0.9019
   42MOL    H9438716   7.486   3.596   4.106 -0.6715  0.8706  0.2239
   42MOL    H9538717   7.484   3.834   4.148  0.4055  2.3855 -0.7819
   42MOL    O9638718   7.628   3.289   3.728 -0.3564 -0.2887 -0.5965
   42MOL    C9738719   7.765   3.270   3.753 -0.4604  0.2895  0.3476
   42MOL    C9838720   7.821   3.125   3.750 -0.3675  0.0782 -0.4640
   42MOL    C9938721   7.845   3.074   3.614 -0.6555 -0.2564 -0.0722
   42MOL   C10038722   7.911   2.933   3.611 -0.0164  0.8894  0.5075
   42MOL   C10138723   7.928   2.884   3.463 -0.5413 -0.0627  1.0313
   42MOL   C10238724   7.975   2.735   3.453  0.5002  0.4746  0.2299
   42MOL   C10338725   7.927   2.668   3.321  0.1708  0.2086  0.2867
   42MOL   C10438726   7.976   2.737   3.192 -0.1471 -0.4016 -0.5137
   42MOL   C10538727   7.896   2.699   3.068  0.2284 -0.2224 -0.6813
   42MOL   C10638728   7.949   2.760   2.940 -0.2408  0.4858 -0.9610
   42MOL   O10738729   7.858   2.729   2.835 -0.5747 -0.3141  0.0172
   42MOL   C10838730   7.886   2.760   2.708  0.5490 -0.5683  0.2432
   42MOL   O10938731   0.015   2.792   2.666  0.4155 -0.2363  0.3330
   42MOL   C11038732   7.773   2.742   2.616 -0.2095  0.0717 -0.4689
   42MOL   C11138733   7.671   2.649   2.650 -0.7504  0.9292 -0.1559
   42MOL   C11238734   7.560   2.641   2.569  0.4096 -0.2972  0.1317
   42MOL   C11338735   7.536   2.728   2.454 -0.0831  0.4754 -0.1347
   42MOL   C11438736   7.404   2.717   2.381  0.1021  0.4306  1.1716
   42MOL   O11538737   7.321   2.627   2.397 -0.1568  0.0987  0.2688
   42MOL   O11638738   7.382   2.817   2.293 -0.3409 -0.4100  0.1419
   42MOL   C11738739   7.644   2.809   2.416 -0.2411 -0.6981  0.2069
   42MOL   C11838740   7.760   2.821   2.496  0.0153  0.4770  0.0727
   42MOL   H11938741   7.819   3.340   3.689 -0.1405  0.0162  0.3179
   42MOL   H12038742   7.772   3.306   3.856 -0.2502  1.3541 -0.0367
   42MOL   H12138743   7.758   3.062   3.814  0.4655 -0.5808 -0.2826
   42MOL   H12238744   7.913   3.123   3.808 -0.9774  0.4144  0.5381
   42MOL   H12338745   7.750   3.066   3.561  0.2406  1.9511 -2.0617
   42MOL   H12438746   7.916   3.143   3.570 -1.0702  0.1247 -0.1451
   42MOL   H12538747   7.853   2.858   3.666  2.2029 -0.9000  0.4652
   42MOL   H12638748   0.033   2.929   3.654  0.0797  1.5239  0.3419
   42MOL   H12738749   7.832   2.885   3.412  0.2435 -1.7835 -0.5227
   42MOL   H12838750   0.006   2.956   3.403 -1.8208  1.4261  1.5916
   42MOL   H12938751   0.104   2.739   3.473  0.3226 -1.2797  1.7454
   42MOL   H13038752   7.929   2.678   3.534  0.8941  2.6866  2.0315
   42MOL   H13138753   7.958   2.563   3.324 -0.2990  0.0612  0.0306
   42MOL   H13238754   7.818   2.671   3.313  0.2238  2.0644  0.1193
   42MOL   H13338755   7.970   2.846   3.193  0.0010 -0.3857 -1.1289
   42MOL   H13438756   0.104   2.715   3.184  0.2893  0.9945  1.0186
   42MOL   H13538757   7.801   2.749   3.088  1.1426  2.0588 -1.9029
   42MOL   H13638758   7.869   2.594   3.054 -1.2105 -0.1553  1.4137
   42MOL   H13738759   0.073   2.730   2.913 -0.6578 -1.4259 -0.5339
   42MOL   H13838760   7.958   2.866   2.964 -0.2353  0.1284  0.6988
   42MOL   H13938761   7.681   2.586   2.736  1.7855  1.1748 -0.2416
   42MOL   H14038762   7.479   2.576   2.600  0.0915  0.6814  1.4056
   42MOL   H14138763   7.639   2.869   2.326 -1.1824  0.6511  1.1460
   42MOL   H14238764   7.833   2.894   2.465 -0.0947  1.1956  1.4579
   42MOL   O14338765   7.260   2.797   2.193  0.4322 -0.6168 -0.0644
   42MOL   C14438766   7.309   2.732   2.076  0.3672  0.8086  0.4173
   42MOL   C14538767   7.212   2.730   1.959 -0.7002  0.3452  0.0970
   42MOL   C14638768   7.177   2.873   1.919 -0.5504  0.8735  0.0916
   42MOL   C14738769   7.058   2.866   1.819 -0.9159  0.0225 -0.6679
   42MOL   C14838770   7.010   3.004   1.774 -0.4579  0.0763  0.1039
   42MOL   C14938771   7.098   3.061   1.667 -0.0403  0.3253  0.1504
   42MOL   C15038772   7.038   3.190   1.599 -0.0469 -0.2068  0.5765
   42MOL   C15138773   7.136   3.234   1.491  0.3426  0.3470 -0.4108
   42MOL   C15238774   7.130   3.380   1.450 -0.4379  0.2101 -0.1772
   42MOL   C15338775   7.238   3.416   1.346 -1.2226  0.0733  0.0244
   42MOL   O15438776   7.203   3.360   1.220  0.0703  0.6863 -0.0883
   42MOL   C15538777   7.267   3.248   1.167 -0.1428 -0.2100  0.2397
   42MOL   O15638778   7.371   3.198   1.218 -0.5311  0.5106  0.4620
   42MOL   C15738779   7.194   3.190   1.047 -0.3333 -0.0900 -0.7357
   42MOL   C15838780   7.071   3.246   1.005 -0.5124  0.5617  0.1589
   42MOL   C15938781   7.006   3.196   0.887 -0.8742  0.2974  0.9089
   42MOL   C16038782   7.066   3.101   0.807 -0.2099 -0.8812  0.1004
   42MOL   C16138783   7.014   3.068   0.673  1.0115 -0.2874  0.2812
   42MOL   O16238784   7.072   2.985   0.600 -0.4095  0.2315  0.3210
   42MOL   O16338785   6.895   3.137   0.640  0.3976  0.4157  0.0583
   42MOL   C16438786   7.190   3.042   0.850 -0.4718 -0.3221 -1.2085
   42MOL   C16538787   7.245   3.082   0.973 -0.1099  0.1672 -0.5286
   42MOL   H16638788   7.400   2.779   2.040  0.6442 -0.3558 -0.4182
   42MOL   H16738789   7.330   2.630   2.108  0.4603  0.7883  0.2887
   42MOL   H16838790   7.129   2.659   1.959 -2.1653  2.0287 -0.7529
   42MOL   H16938791   7.274   2.688   1.879  1.2475  1.6460  0.8937
   42MOL   H17038792   7.158   2.925   2.013 -0.3318 -1.9318  1.7589
   42MOL   H17138793   7.269   2.906   1.871 -0.1948  2.0430  1.5612
   42MOL   H17238794   6.974   2.816   1.866  0.8915 -1.6832  0.8673
   42MOL   H17338795   7.085   2.802   1.735 -0.4146 -3.4995  2.0464
   42MOL   H17438796   6.915   2.987   1.723  1.1485 -1.9361 -2.3427
   42MOL   H17538797   6.993   3.072   1.858 -0.7587  1.2139 -0.8739
   42MOL   H17638798   7.190   3.095   1.714 -0.2947 -0.9829  1.6499
   42MOL   H17738799   7.127   2.986   1.593  0.6269 -0.1495  0.8951
   42MOL   H17838800   6.951   3.176   1.534 -0.5716 -0.3623  1.3116
   42MOL   H17938801   7.016   3.269   1.671 -3.5727 -0.5541 -0.0122
   42MOL   H18038802   7.236   3.211   1.526 -0.5798 -0.0633  2.0408
   42MOL   H18138803   7.121   3.178   1.398  1.4418 -0.0527 -0.3496
   42MOL   H18238804   7.156   3.437   1.539 -0.2445 -1.6263  0.9763
   42MOL   H18338805   7.025   3.393   1.425 -0.2940  1.0240 -0.3484
   42MOL   H18438806   7.334   3.374   1.378 -1.4187  1.1343  2.1535
   42MOL   H18538807   7.252   3.524   1.345 -0.5584 -0.0159 -1.4424
   42MOL   H18638808   7.020   3.320   1.065 -1.7986 -0.3443  0.2115
   42MOL   H18738809   6.911   3.242   0.865 -0.6480 -0.4321 -1.7606
   42MOL   H18838810   7.239   2.964   0.792  1.6533 -0.0514  0.1425
   42MOL   H18938811   7.339   3.042   1.009 -1.3878  0.5448  3.4809
   42MOL   O19038812   6.829   3.076   0.523  0.0650 -0.8260  0.4707
   42MOL   C19138813   6.716   2.999   0.573  0.1156 -0.5511 -0.1546
   42MOL   C19238814   6.639   2.925   0.455 -0.1285  0.2327  0.1519
   42MOL   C19338815   6.521   2.835   0.503 -0.4456  0.0370 -0.1698
   42MOL   C19438816   6.441   2.765   0.395  0.0684  0.4453 -0.0823
   42MOL   C19538817   6.362   2.647   0.448 -0.0453 -0.8950  0.2660
   42MOL   C19638818   6.317   2.545   0.338  0.6631 -0.3146  0.8232
   42MOL   C19738819   6.240   2.418   0.391  0.0402 -0.3444 -0.3328
   42MOL   C19838820   6.097   2.456   0.441  0.2816  0.0034  0.3662
   42MOL   C19938821   6.024   2.334   0.509 -0.0370  0.7130  0.1417
   42MOL   C20038822   5.891   2.372   0.570 -0.1500 -0.5526 -0.5656
   42MOL   O20138823   5.825   2.471   0.492  0.1659 -0.1617 -0.4297
   42MOL   C20238824   5.781   2.585   0.536 -0.0227  0.2783  1.0943
   42MOL   O20338825   5.762   2.606   0.657  0.6867 -0.1804  0.1819
   42MOL   C20438826   5.749   2.679   0.425  0.5986 -0.7553 -0.3176
   42MOL   C20538827   5.745   2.637   0.292 -0.0059 -0.0020 -0.2626
   42MOL   C20638828   5.726   2.729   0.188 -0.1456 -0.2608 -0.0929
   42MOL   C20738829   5.731   2.870   0.214 -0.1560 -0.4401 -0.1396
   42MOL   C20838830   5.708   2.968   0.103 -0.9483 -0.0771 -0.1611
   42MOL   O20938831   5.707   2.940   7.961 -0.0806  0.0618 -0.1559
   42MOL   O21038832   5.690   3.089   0.154  0.0564 -0.4673  0.9124
   42MOL   C21138833   5.732   2.915   0.348  0.1995 -0.0702  0.0363
   42MOL   C21238834   5.750   2.820   0.449  0.2834  0.9746  0.1331
   42MOL   H21338835   6.744   2.924   0.647 -2.2983 -0.2844  1.1019
   42MOL   H21438836   6.653   3.063   0.635  0.0221  0.2836 -1.0952
   42MOL   H21538837   6.716   2.862   0.411  0.3938  1.1651 -0.3009
   42MOL   H21638838   6.617   2.993   0.372 -0.7196 -0.0511  0.0764
   42MOL   H21738839   6.560   2.755   0.566 -0.2165  0.6375  0.4644
   42MOL   H21838840   6.450   2.896   0.559 -1.1384 -0.1125 -0.8741
   42MOL   H21938841   6.510   2.729   0.319 -0.2261 -1.8149  0.6888
   42MOL   H22038842   6.372   2.836   0.351 -1.8111 -1.0011  0.4489
   42MOL   H22138843   6.433   2.590   0.508  2.1952  1.0090 -0.4448
   42MOL   H22238844   6.288   2.681   0.520  0.0497  0.4690 -0.2531
   42MOL   H22338845   6.260   2.601   0.264 -1.3802 -2.4895  0.6841
   42MOL   H22438846   6.412   2.518   0.293  1.6502  2.5805  1.0349
   42MOL   H22538847   6.249   2.337   0.318  1.2754 -1.1464  0.6964
   42MOL   H22638848   6.294   2.380   0.478  0.2888 -0.1979 -0.4201
   42MOL   H22738849   6.089   2.542   0.507 -0.2177 -1.9013  2.8206
   42MOL   H22838850   6.043   2.499   0.357 -1.3184 -1.6575  0.5283
   42MOL   H22938851   6.084   2.270   0.574 -0.7844 -0.7709 -0.6184
   42MOL   H23038852   6.004   2.271   0.422 -0.3157 -1.0890  1.4842
   42MOL   H23138853   5.913   2.402   0.672  0.9265 -0.6769 -0.7540
   42MOL   H23238854   5.829   2.282   0.563 -0.3436 -0.4519 -0.1223
   42MOL   H23338855   5.760   2.532   0.273  1.6362 -0.0865  1.3344
   42MOL   H23438856   5.707   2.684   0.092 -1.5673 -0.8624  0.4619
   42MOL   H23538857   5.721   3.020   0.373  0.5804  0.6049 -2.4728
   42MOL   H23638858   5.762   2.851   0.552 -0.6463 -2.2376  1.2752
   42MOL   O23738859   5.678   3.194   0.042  0.3395 -0.1560 -0.3971
   42MOL   C23838860   5.538   3.220   0.024 -0.0885  0.3541  0.4614
   42MOL   C23938861   5.470   3.302   0.135  0.8444 -0.2870 -0.3657
   42MOL   C24038862   5.540   3.433   0.150  0.0517 -0.0604 -0.5115
   42MOL   C24138863   5.501   3.520   0.270 -0.1228  0.0440  0.5001
   42MOL   C24238864   5.347   3.539   0.286  0.4642  0.9466  0.1567
   42MOL   C24338865   5.290   3.421   0.371  0.1417 -0.4267  0.4715
   42MOL   C24438866   5.158   3.467   0.434  0.9024  0.0372 -0.0943
   42MOL   C24538867   5.077   3.364   0.507  0.6332  0.0458 -0.9542
   42MOL   C24638868   4.953   3.418   0.578  0.2539 -0.3539  0.3895
   42MOL   C24738869   4.844   3.315   0.620 -0.1215  0.2633 -0.0218
   42MOL   O24838870   4.898   3.243   0.734  0.4352  0.1547  0.1841
   42MOL   C24938871   4.917   3.111   0.727 -0.2054 -0.8493 -0.1987
   42MOL   O25038872   4.872   3.049   0.634 -0.5780  0.2390 -0.7000
   42MOL   C25138873   4.995   3.055   0.836  0.0155  0.0382 -0.5543
   42MOL   C25238874   5.063   3.139   0.929  0.0800 -0.0094  0.3393
   42MOL   C25338875   5.149   3.094   1.031  0.2394  0.1267  0.9212
   42MOL   C25438876   5.160   2.958   1.060  0.2645 -0.7450  0.1388
   42MOL   C25538877   5.222   2.910   1.185 -0.9048  0.3286 -0.0002
   42MOL   O25638878   5.251   2.981   1.286 -0.2108 -0.7357 -0.1585
   42MOL   O25738879   5.250   2.777   1.186 -0.5486 -0.6345 -0.0503
   42MOL   C25838880   5.095   2.871   0.969 -0.4722  0.0928 -0.0517
   42MOL   C25938881   5.015   2.916   0.859 -0.9309 -0.1906  0.2462
   42MOL   H26038882   5.528   3.267   7.904 -0.0116  1.3823  0.9414
   42MOL   H26138883   5.496   3.122   0.003 -0.0783  0.2315  1.0232
   42MOL   H26238884   5.478   3.246   0.228  0.2693 -2.4318 -1.5490
   42MOL   H26338885   5.361   3.305   0.126  0.7676 -0.1409  0.5663
   42MOL   H26438886   5.649   3.428   0.155  0.0913  0.5399 -0.7937
   42MOL   H26538887   5.519   3.494   0.063  1.7878 -1.9395 -2.3091
   42MOL   H26638888   5.532   3.625   0.262 -1.0315  0.2864  0.1862
   42MOL   H26738889   5.552   3.489   0.362 -0.4751 -0.1838  0.6202
   42MOL   H26838890   5.315   3.624   0.346 -2.0866 -0.1796  0.4431
   42MOL   H26938891   5.296   3.549   0.190 -0.6791 -1.2682  0.5076
   42MOL   H27038892   5.256   3.335   0.315 -0.2989  0.5266 -0.7508
   42MOL   H27138893   5.354   3.387   0.453  0.7136 -2.0413 -0.6376
   42MOL   H27238894   5.173   3.545   0.509  0.4240 -1.2751  1.3929
   42MOL   H27338895   5.097   3.508   0.354  0.4758  0.4440  0.4362
   42MOL   H27438896   5.039   3.307   0.422  2.1680 -1.1415 -0.8685
   42MOL   H27538897   5.143   3.311   0.577  0.7248  0.4038 -0.7688
   42MOL   H27638898   4.908   3.483   0.503 -1.0152 -0.7380  0.8094
   42MOL   H27738899   4.997   3.487   0.650  1.6676  0.3870 -1.1628
   42MOL   H27838900   4.823   3.246   0.538 -0.3718 -0.7742  0.8932
   42MOL   H27938901   4.749   3.362   0.646  1.5384  3.5492  0.2937
   42MOL   H28038902   5.043   3.245   0.929  0.1451  0.0267  2.1117
   42MOL   H28138903   5.207   3.169   1.082 -1.8309  1.5540  1.2321
   42MOL   H28238904   5.119   2.766   0.976 -0.3480  0.0657 -0.8481
   42MOL   H28338905   4.967   2.848   0.790 -1.4136 -2.0133  2.3367
   42MOL   O28438906   5.312   2.724   1.311  0.9575 -0.4626  0.4765
   42MOL   C28538907   5.457   2.735   1.305  0.0620 -0.1273 -0.1446
   42MOL   C28638908   5.507   2.599   1.361 -0.6112  0.4044  0.7652
   42MOL   C28738909   5.659   2.584   1.335 -0.4470 -0.0407  0.4201
   42MOL   C28838910   5.703   2.448   1.376  0.1508  0.5606 -0.3713
   42MOL   C28938911   5.849   2.405   1.353 -0.0534 -0.3442 -0.0311
   42MOL   C29038912   5.893   2.276   1.431  0.0648  0.6189  0.9071
   42MOL   C29138913   5.809   2.153   1.401  0.2229  0.9702  0.9699
   42MOL   C29238914   5.867   2.075   1.283  0.3972  0.6351  0.4250
   42MOL   C29338915   5.788   1.954   1.247  0.1821  0.8598 -0.2107
   42MOL   C29438916   5.639   1.964   1.233  0.4761 -0.0014 -0.5909
   42MOL   O29538917   5.608   2.086   1.168 -0.8947  0.1987 -0.3453
   42MOL   C29638918   5.488   2.147   1.153  0.7250  0.2599  0.2260
   42MOL   O29738919   5.380   2.096   1.188 -0.3090  0.0696 -0.0056
   42MOL   C29838920   5.495   2.282   1.096 -0.1768 -0.2982 -0.0299
   42MOL   C29938921   5.370   2.350   1.080  0.0272  0.2150 -0.0591
   42MOL   C30038922   5.368   2.476   1.018  0.7047  0.4790 -0.3757
   42MOL   C30138923   5.478   2.542   0.977 -0.2506 -0.4550 -0.0862
   42MOL   C30238924   5.476   2.681   0.922  0.1946  0.1487 -0.0986
   42MOL   O30338925   5.375   2.716   0.857  0.0018  0.4309  0.2633
   42MOL   O30438926   5.579   2.760   0.951  0.3173  0.4844  0.4838
   42MOL   C30538927   5.599   2.475   0.996  0.1610  0.1578 -0.2033
   42MOL   C30638928   5.613   2.347   1.054 -0.2529 -0.3269 -0.7147
   42MOL   H30738929   5.501   2.759   1.208  0.4259  0.4034  0.1490
   42MOL   H30838930   5.496   2.817   1.365  0.4774 -1.9046  2.0678
   42MOL   H30938931   5.448   2.526   1.306  1.5511 -1.6539  1.1031
   42MOL   H31038932   5.483   2.599   1.467  2.5522 -1.8075  1.5545
   42MOL   H31138933   5.678   2.592   1.228  0.0992 -1.1357  0.4270
   42MOL   H31238934   5.713   2.665   1.385  1.1683 -0.7035 -0.2089
   42MOL   H31338935   5.640   2.374   1.327 -0.7083  1.5850 -0.8525
   42MOL   H31438936   5.679   2.440   1.482  1.4236 -0.6473 -0.1732
   42MOL   H31538937   5.874   2.384   1.249  0.2137 -0.8134  0.1276
   42MOL   H31638938   5.913   2.488   1.383 -0.4786  0.2384 -0.7102
   42MOL   H31738939   5.998   2.245   1.422 -0.5316 -1.0065 -0.7792
   42MOL   H31838940   5.878   2.290   1.538  1.0964 -0.2962  1.1850
   42MOL   H31938941   5.817   2.090   1.489  1.7628 -2.1370 -1.2888
   42MOL   H32038942   5.704   2.172   1.379  0.6549  1.9806 -0.2463
   42MOL   H32138943   5.866   2.146   1.201  1.5382  0.8906  0.6319
   42MOL   H32238944   5.972   2.056   1.306 -0.4226 -0.2668  3.7646
   42MOL   H32338945   5.797   1.872   1.319 -0.2979  1.0542  0.0727
   42MOL   H32438946   5.827   1.896   1.163 -1.7662  3.4698 -2.9804
   42MOL   H32538947   5.601   1.957   1.335  0.8292  0.0183 -0.4564
   42MOL   H32638948   5.591   1.879   1.184  0.2520 -0.2428  0.0369
   42MOL   H32738949   5.278   2.308   1.118 -0.3009  1.4985  0.5803
   42MOL   H32838950   5.271   2.521   1.022  0.2695 -0.4449 -0.4427
   42MOL   H32938951   5.692   2.514   0.958 -0.2261  1.6222  0.2976
   42MOL   H33038952   5.712   2.304   1.049  0.6577  1.4316  1.4142
   42MOL   O33138953   5.577   2.886   0.868 -0.2209 -0.2335  0.1984
   42MOL   C33238954   5.487   2.987   0.925 -0.2176 -0.2179 -0.2126
   42MOL   C33338955   5.479   3.099   0.820  0.8425 -0.1134  0.2227
   42MOL   C33438956   5.620   3.156   0.804  0.1003 -0.2310 -0.6055
   42MOL   C33538957   5.625   3.246   0.683 -0.4171 -0.1833  0.1163
   42MOL   C33638958   5.749   3.316   0.652 -0.3855  0.4493 -0.1870
   42MOL   C33738959   5.859   3.231   0.570  0.7095  0.4283 -0.3015
   42MOL   C33838960   5.996   3.290   0.548  0.2767 -0.5189  0.7563
   42MOL   C33938961   6.072   3.302   0.681 -0.0761 -0.0538 -0.1892
   42MOL   C34038962   6.078   3.178   0.778  0.2865 -0.2536  0.1383
   42MOL   C34138963   6.186   3.076   0.739  0.4475 -0.3540 -0.5944
   42MOL   O34238964   6.182   3.037   0.606 -0.0618 -0.3249 -0.5142
   42MOL   C34338965   6.097   2.938   0.553 -0.4064  0.6426 -0.2577
   42MOL   O34438966   6.015   2.874   0.624 -0.0660  0.3868 -1.4777
   42MOL   C34538967   6.120   2.922   0.409 -0.2342  0.2076  0.1355
   42MOL   C34638968   6.068   2.808   0.354 -0.1140  0.6204  0.3845
   42MOL   C34738969   6.064   2.795   0.210 -0.3499  0.3342 -0.4549
   42MOL   C34838970   6.118   2.898   0.131  0.4434  0.5321  0.2464
   42MOL   C34938971   6.112   2.905   7.961  0.0820  0.0038  0.0728
   42MOL   O35038972   6.165   2.994   7.896  0.2617  0.0694 -0.5029
   42MOL   O35138973   6.045   2.802   7.908  0.0685 -0.3902 -0.0690
   42MOL   C35238974   6.176   3.006   0.194  0.3015  0.4469  0.0733
   42MOL   C35338975   6.184   3.022   0.332 -0.2498  0.2392  0.1235
   42MOL   H35438976   5.383   2.955   0.926 -1.0570  2.3897  0.7559
   42MOL   H35538977   5.504   3.025   1.026  0.8411  1.2943 -0.9527
   42MOL   H35638978   5.412   3.174   0.862  0.8656 -0.8470  1.6139
   42MOL   H35738979   5.432   3.067   0.727  0.9074  1.1451 -0.2592
   42MOL   H35838980   5.639   3.220   0.890  1.5209  0.4596 -1.4133
   42MOL   H35938981   5.702   3.084   0.806 -0.3172 -0.7445 -1.8567
   42MOL   H36038982   5.554   3.327   0.698 -0.1840  0.1819 -0.7063
   42MOL   H36138983   5.592   3.195   0.592 -4.0032 -1.1379  1.8651
   42MOL   H36238984   5.724   3.404   0.592 -1.1907 -0.5222 -1.3048
   42MOL   H36338985   5.799   3.342   0.745  0.2678  0.3666 -0.5134
   42MOL   H36438986   5.868   3.133   0.616  0.7108 -0.2668 -1.7597
   42MOL   H36538987   5.816   3.223   0.470 -1.8813 -2.2303  0.9368
   42MOL   H36638988   6.046   3.239   0.467  2.5585  0.6589  1.3681
   42MOL   H36738989   5.990   3.389   0.502 -1.7189 -0.3431  1.3414
   42MOL   H36838990   6.167   3.349   0.657  1.5632 -3.3185 -0.3094
   42MOL   H36938991   6.026   3.375   0.748 -1.3341 -0.7148 -0.3180
   42MOL   H37038992   5.978   3.135   0.781 -0.1120  0.6545 -0.0286
   42MOL   H37138993   6.107   3.210   0.878  1.6784  1.6991 -0.8610
   42MOL   H37238994   6.197   2.991   0.806 -0.6295 -0.4360 -0.5146
   42MOL   H37338995   6.274   3.139   0.753  0.3091 -0.0524 -1.0859
   42MOL   H37438996   6.020   2.732   0.413  1.0401 -0.2764  0.1835
   42MOL   H37538997   6.020   2.708   0.166  1.5681 -1.1664  0.5282
   42MOL   H37638998   6.216   3.087   0.135 -0.9671  0.0677 -1.3216
   42MOL   H37738999   6.233   3.114   0.363  1.6474 -0.3208 -1.0713
   42MOL   O37839000   6.063   2.796   7.755  0.3275 -0.2629 -0.4083
   42MOL   C37939001   5.962   2.870   7.691 -0.3151  0.0964 -0.1723
   42MOL   C38039002   5.825   2.800   7.692 -0.7202  0.0199 -0.3679
   42MOL   C38139003   5.703   2.880   7.642 -0.4553  0.0028  0.0275
   42MOL   C38239004   5.574   2.791   7.641 -0.1624  0.1319 -0.2726
   42MOL   C38339005   5.445   2.866   7.617 -0.0184  0.1600  0.4251
   42MOL   C38439006   5.348   2.784   7.542 -0.2076 -0.1551 -0.2546
   42MOL   C38539007   5.206   2.848   7.529  0.1130 -0.8174 -0.3262
   42MOL   C38639008   5.191   2.961   7.429 -0.0110 -0.4605  0.6580
   42MOL   C38739009   5.042   2.970   7.392 -0.8292  0.3820 -0.4107
   42MOL   C38839010   5.017   3.028   7.251  0.2203  0.1887 -0.1341
   42MOL   O38939011   5.057   2.946   7.140 -0.1995 -0.4143 -0.9278
   42MOL   C39039012   5.050   2.992   7.011 -0.8276 -0.2396  0.7365
   42MOL   O39139013   4.987   3.097   6.978  0.3214 -0.2313 -0.1552
   42MOL   C39239014   5.119   2.895   6.918  0.1376  0.2033  0.2514
   42MOL   C39339015   5.078   2.893   6.781 -0.5426  0.3079 -0.2158
   42MOL   C39439016   5.147   2.807   6.691  0.0570  1.5916  0.5764
   42MOL   C39539017   5.250   2.720   6.733 -0.4891  0.4207 -0.0639
   42MOL   C39639018   5.330   2.641   6.640 -0.1105 -0.1300  0.3996
   42MOL   O39739019   5.327   2.660   6.515 -0.2577 -0.5512 -0.1641
   42MOL   O39839020   5.391   2.540   6.696 -0.3541 -0.1679 -0.1874
   42MOL   C39939021   5.289   2.720   6.868  0.1689  0.0174  0.2949
   42MOL   C40039022   5.224   2.809   6.958  0.4009 -0.3533 -0.2051
   42MOL   H40139023   5.954   2.965   7.743  1.6674  1.6953 -2.7277
   42MOL   H40239024   5.996   2.891   7.590 -0.1180 -0.0533 -0.1381
   42MOL   H40339025   5.797   2.774   7.794  1.6881 -0.9737  0.0777
   42MOL   H40439026   5.831   2.703   7.644 -0.9438 -0.8101  1.2572
   42MOL   H40539027   5.685   2.965   7.709  0.5962  0.0415  0.2616
   42MOL   H40639028   5.726   2.919   7.543  2.7236  1.2194  1.1911
   42MOL   H40739029   5.560   2.751   7.741  2.3527 -0.1435  0.0010
   42MOL   H40839030   5.581   2.708   7.571 -0.6224  0.0844 -0.2659
   42MOL   H40939031   5.405   2.896   7.714  1.3528  0.3086  0.9578
   42MOL   H41039032   5.467   2.946   7.546 -1.2607  1.6165  1.6304
   42MOL   H41139033   5.388   2.747   7.448  0.3758  0.9094 -0.4299
   42MOL   H41239034   5.320   2.695   7.599 -1.5618 -0.3347 -1.1795
   42MOL   H41339035   5.143   2.764   7.499 -1.0900 -0.0099 -0.1011
   42MOL   H41439036   5.187   2.886   7.629 -1.3567  0.6507 -1.1430
   42MOL   H41539037   5.232   3.056   7.463  1.6175 -1.2310  0.9053
   42MOL   H41639038   5.252   2.950   7.339 -0.6806 -3.4664  0.5185
   42MOL   H41739039   4.995   3.027   7.473 -1.5297 -0.0421 -0.5107
   42MOL   H41839040   5.007   2.866   7.388 -0.2598  0.2341 -2.1515
   42MOL   H41939041   5.080   3.116   7.232  0.8890 -0.1964  0.2898
   42MOL   H42039042   4.913   3.060   7.255  0.3113  0.4280  0.4193
   42MOL   H42139043   5.002   2.955   6.736  0.2216  0.1592 -1.7785
   42MOL   H42239044   5.113   2.810   6.589  1.8169 -0.2000 -0.0986
   42MOL   H42339045   5.366   2.653   6.903  0.2073 -1.0061 -1.6523
   42MOL   H42439046   5.241   2.803   7.064 -1.4129  1.0172  0.1875
   42MOL   O42539047   5.477   2.447   6.606  0.4640  0.4817  0.2367
   42MOL   C42639048   5.616   2.456   6.653 -0.4429  0.6121  0.0590
   42MOL   C42739049   5.709   2.409   6.544 -0.0842  0.1315  0.2485
   42MOL   C42839050   5.698   2.491   6.416 -0.4516 -1.1438 -0.0348
   42MOL   C42939051   5.791   2.430   6.300  0.2742  0.2965  0.3132
   42MOL   C43039052   5.787   2.504   6.168  0.9179 -0.4442 -0.0023
   42MOL   C43139053   5.659   2.487   6.083 -0.2300  0.5182  0.6284
   42MOL   C43239054   5.654   2.575   5.953 -0.1050 -0.1581  0.1117
   42MOL   C43339055   5.524   2.562   5.875 -0.0755 -0.8887  0.0283
   42MOL   C43439056   5.514   2.665   5.759 -0.1485 -0.1980 -0.2432
   42MOL   C43539057   5.392   2.629   5.668  0.2606  0.3497  0.1981
   42MOL   O43639058   5.273   2.654   5.735  0.1698  0.8685 -0.4553
   42MOL   C43739059   5.189   2.558   5.789 -0.0979 -0.5231  0.0558
   42MOL   O43839060   5.216   2.439   5.785  0.7106 -0.1848  0.7361
   42MOL   C43939061   5.062   2.615   5.855 -0.3083  0.5728 -0.0281
   42MOL   C44039062   4.957   2.529   5.891 -0.0557  0.3717  0.0647
   42MOL   C44139063   4.843   2.590   5.940 -0.0557 -0.8076  0.0412
   42MOL   C44239064   4.829   2.731   5.952  0.8782 -0.8003  0.0351
   42MOL   C44339065   4.707   2.788   6.011  0.4228 -0.2293  0.1725
   42MOL   O44439066   4.600   2.723   6.022 -0.3481  0.6152 -0.3379
   42MOL   O44539067   4.718   2.915   6.050  0.2118  0.1501 -0.2499
   42MOL   C44639068   4.933   2.814   5.918 -0.8610  0.5457 -1.0610
   42MOL   C44739069   5.054   2.756   5.873  0.0846 -0.1385 -0.0110
   42MOL   H44839070   5.639   2.561   6.670 -0.4203  0.7208 -0.6348
   42MOL   H44939071   5.629   2.395   6.742  0.5344 -0.1034 -0.5515
   42MOL   H45039072   5.686   2.305   6.524 -0.0598  0.5577 -2.1950
   42MOL   H45139073   5.811   2.409   6.583 -1.1016 -1.6682  2.9758
   42MOL   H45239074   5.599   2.495   6.371  0.1571  0.4320 -1.2929
   42MOL   H45339075   5.724   2.597   6.426 -1.0227 -0.9291 -0.7034
   42MOL   H45439076   5.759   2.330   6.274  1.6336  0.2674 -1.3309
   42MOL   H45539077   5.893   2.413   6.334  0.3238  1.5008  0.8023
   42MOL   H45639078   5.791   2.611   6.185 -1.1621 -0.5318  1.1058
   42MOL   H45739079   5.877   2.470   6.117  1.2310 -1.2838  1.0789
   42MOL   H45839080   5.629   2.386   6.053 -0.0457  0.9260 -0.9664
   42MOL   H45939081   5.574   2.519   6.142  0.6422 -0.0216  2.1947
   42MOL   H46039082   5.672   2.679   5.981 -0.0784 -0.1106 -0.0820
   42MOL   H46139083   5.736   2.556   5.884 -1.0701 -0.1358 -1.0807
   42MOL   H46239084   5.512   2.456   5.852  2.0125 -0.6657 -2.3061
   42MOL   H46339085   5.445   2.595   5.942 -0.4531  1.8880 -1.7064
   42MOL   H46439086   5.597   2.639   5.694  0.5185  0.1745  0.4624
   42MOL   H46539087   5.532   2.769   5.786  2.4088 -0.5388 -0.5005
   42MOL   H46639088   5.399   2.525   5.635 -1.0373  0.1793  0.4484
   42MOL   H46739089   5.384   2.681   5.573 -1.4151 -0.7075 -0.2668
   42MOL   H46839090   4.962   2.421   5.883  1.2845  0.3621  0.9063
   42MOL   H46939091   4.764   2.525   5.974 -1.0479 -0.1763 -1.0602
   42MOL   H47039092   4.921   2.922   5.918 -0.7509  0.6095  2.4106
   42MOL   H47139093   5.136   2.824   5.856 -0.9633  0.9392 -0.8403
   42MOL   O47239094   4.587   2.973   6.101 -0.0699  0.4962 -0.4972
   42MOL   C47339095   4.545   3.076   6.015  0.3378  0.4271  0.2974
   42MOL   C47439096   4.400   3.106   6.050  0.5847 -0.4833  0.5622
   42MOL   C47539097   4.386   3.153   6.199  0.3063  0.0509  0.0956
   42MOL   C47639098   4.240   3.189   6.231  0.0841 -0.0793  0.4702
   42MOL   C47739099   4.221   3.259   6.365  0.1392 -0.0369 -0.1153
   42MOL   C47839100   4.303   3.387   6.391  0.0964  0.5914 -0.1495
   42MOL   C47939101   4.305   3.494   6.279  0.0855 -1.2526  0.5780
   42MOL   C48039102   4.164   3.564   6.254  0.5940  0.3863  0.1385
   42MOL   C48139103   4.181   3.674   6.151 -0.4761  0.1007 -0.1281
   42MOL   C48239104   4.055   3.753   6.119 -0.2056 -0.4400  0.9041
   42MOL   O48339105   4.097   3.868   6.038  0.1996 -0.4611 -0.5194
   42MOL   C48439106   4.061   3.881   5.912  0.3172  0.0819  0.3527
   42MOL   O48539107   3.963   3.823   5.867  0.3772 -0.4185 -0.1987
   42MOL   C48639108   4.139   3.983   5.833 -0.2135  0.6680  0.2380
   42MOL   C48739109   4.237   4.067   5.884  0.1418  0.0391 -0.3959
   42MOL   C48839110   4.291   4.159   5.794 -0.2067 -0.4680 -0.3790
   42MOL   C48939111   4.250   4.176   5.660 -0.6143  0.3442  0.8203
   42MOL   C49039112   4.314   4.281   5.579 -0.4425  0.1661 -0.2722
   42MOL   O49139113   4.418   4.338   5.606 -0.1276 -0.1443  0.3778
   42MOL   O49239114   4.242   4.312   5.471 -0.3054 -0.5269 -0.0655
   42MOL   C49339115   4.155   4.087   5.608 -0.2952  0.2178  0.4471
   42MOL   C49439116   4.104   3.988   5.696 -0.3315 -0.3922 -0.1417
   42MOL   H49539117   4.615   3.157   6.032  1.3318 -0.5179  0.7585
   42MOL   H49639118   4.542   3.034   5.915  0.0650 -0.1694  0.5558
   42MOL   H49739119   4.338   3.018   6.036 -1.7118  1.4935 -2.2979
   42MOL   H49839120   4.375   3.173   5.968 -0.2089 -0.3000  0.9530
   42MOL   H49939121   4.412   3.072   6.267  2.8614  0.9258  0.2179
   42MOL   H50039122   4.454   3.236   6.219 -1.9705  1.9338  0.1419
   42MOL   H50139123   4.179   3.099   6.228 -1.3640  0.8572  1.0113
   42MOL   H50239124   4.200   3.250   6.150  0.4691 -0.8198 -0.2877
   42MOL   H50339125   4.114   3.280   6.373  0.7201  2.4234  1.8443
   42MOL   H50439126   4.248   3.195   6.448 -1.2569  1.0397  1.2003
   42MOL   H50539127   4.285   3.434   6.488 -0.0413 -0.3424  0.2806
   42MOL   H50639128   4.402   3.349   6.413 -0.2195 -0.2811 -0.2463
   42MOL   H50739129   4.375   3.576   6.296 -1.6171  0.5986 -1.0455
   42MOL   H50839130   4.327   3.440   6.187  1.6055  2.1278 -1.1138
   42MOL   H50939131   4.097   3.495   6.202  2.6616 -0.4644 -1.4752
   42MOL   H51039132   4.111   3.606   6.339 -0.0603  0.2415 -0.2003
   42MOL   H51139133   4.205   3.614   6.063 -0.7376  0.5460 -0.5077
   42MOL   H51239134   4.257   3.748   6.175  0.1368  0.3429 -2.6313
   42MOL   H51339135   4.003   3.785   6.210  0.3395  2.5968  0.2236
   42MOL   H51439136   3.986   3.693   6.060  0.4879 -1.6874  1.3570
   42MOL   H51539137   4.283   4.067   5.982  0.5053 -0.0614 -0.5658
   42MOL   H51639138   4.369   4.224   5.832 -0.0543  0.5657 -2.3712
   42MOL   H51739139   4.136   4.069   5.503 -2.4130 -0.0873  0.8631
   42MOL   H51839140   4.031   3.917   5.662  0.3678 -1.2797  0.1936
   42MOL   O51939141   4.300   4.418   5.389 -0.0754 -1.2004 -0.0925
   42MOL   C52039142   4.327   4.371   5.257  0.4205 -0.0057  0.3079
   42MOL   C52139143   4.437   4.256   5.252 -0.4207 -0.4037 -0.1956
   42MOL   C52239144   4.374   4.117   5.244  0.1826  0.1406 -0.7324
   42MOL   C52339145   4.472   4.008   5.294  0.2996  0.2650  0.5162
   42MOL   C52439146   4.472   3.988   5.443 -0.4409  0.4798  0.7526
   42MOL   C52539147   4.532   3.864   5.492  0.2564  0.0899 -0.2175
   42MOL   C52639148   4.499   3.847   5.637  0.2926 -0.3649 -0.5040
   42MOL   C52739149   4.533   3.714   5.706 -0.1661 -0.7908 -0.1878
   42MOL   C52839150   4.456   3.708   5.842 -0.3069  0.0152  0.3051
   42MOL   C52939151   4.515   3.612   5.943  0.0254  0.3477 -0.9353
   42MOL   O53039152   4.537   3.495   5.870 -0.2718  0.1542  0.3033
   42MOL   C53139153   4.663   3.434   5.861 -0.6002 -0.6287  0.0173
   42MOL   O53239154   4.764   3.483   5.908  0.1761  0.3099 -0.1133
   42MOL   C53339155   4.670   3.305   5.792  0.3849  0.4098  0.1979
   42MOL   C53439156   4.560   3.244   5.726  0.5474 -0.2836  0.2993
   42MOL   C53539157   4.566   3.124   5.658  0.7768 -0.4498  0.7105
   42MOL   C53639158   4.688   3.054   5.650  1.1551 -0.1581  0.4560
   42MOL   C53739159   4.694   2.938   5.554 -0.0072 -0.2835  0.1934
   42MOL   O53839160   4.600   2.904   5.476  0.0137 -0.0092  0.9056
   42MOL   O53939161   4.808   2.868   5.558  0.0193  0.0198 -0.2190
   42MOL   C54039162   4.805   3.104   5.716  0.5153  0.1778  1.1011
   42MOL   C54139163   4.795   3.232   5.785 -0.3101  0.0758  0.0602
   42MOL   H54239164   4.233   4.344   5.208 -0.2723  1.6436  0.6982
   42MOL   H54339165   4.357   4.462   5.205  0.2714 -1.2830 -2.0808
   42MOL   H54439166   4.491   4.267   5.347 -0.6217  0.3279 -0.1678
   42MOL   H54539167   4.503   4.276   5.168  2.4165  0.9644  2.2451
   42MOL   H54639168   4.283   4.111   5.302  0.8906 -2.0501  0.2128
   42MOL   H54739169   4.349   4.109   5.138  0.0559 -2.5878 -0.5218
   42MOL   H54839170   4.569   4.033   5.251  0.5987  3.3117  2.7953
   42MOL   H54939171   4.451   3.917   5.237  0.5889  0.8962 -0.6283
   42MOL   H55039172   4.524   4.071   5.492  1.7251 -0.6279  0.3539
   42MOL   H55139173   4.368   4.001   5.473 -1.1627  0.9729 -1.8937
   42MOL   H55239174   4.491   3.783   5.432 -1.2555  2.2600 -2.2005
   42MOL   H55339175   4.641   3.864   5.488  0.4182 -2.5516  2.4726
   42MOL   H55439176   4.528   3.938   5.688  1.5151 -1.4242  0.7248
   42MOL   H55539177   4.391   3.860   5.637  0.4052  0.6718  0.6536
   42MOL   H55639178   4.489   3.637   5.643 -0.7944 -1.4590  1.0559
   42MOL   H55739179   4.639   3.693   5.722  0.0732  0.5864  0.1450
   42MOL   H55839180   4.352   3.682   5.821 -0.2643  0.1992 -0.1402
   42MOL   H55939181   4.451   3.801   5.899 -0.5920  0.6537 -0.7551
   42MOL   H56039182   4.440   3.588   6.019  1.7287 -1.2482  0.2748
   42MOL   H56139183   4.610   3.647   5.983  0.0789  1.2798 -1.8549
   42MOL   H56239184   4.468   3.301   5.729  1.1912  0.8862 -1.4264
   42MOL   H56339185   4.474   3.097   5.610  1.2663  0.0541 -0.5340
   42MOL   H56439186   4.898   3.051   5.729  1.1085  1.1399  0.8414
   42MOL   H56539187   4.887   3.261   5.834  0.7482 -0.9453 -1.2524
   42MOL   O56639188   4.802   2.741   5.475 -0.3426  0.4020  0.5753
   42MOL   C56739189   4.801   2.634   5.560  0.1993  0.2642 -0.5399
   42MOL   C56839190   4.761   2.503   5.477 -0.4174 -0.3932  0.2692
   42MOL   C56939191   4.720   2.388   5.568 -0.0853  0.6269  0.4668
   42MOL   C57039192   4.844   2.297   5.591 -0.5188  0.0162 -0.4189
   42MOL   C57139193   4.789   2.163   5.654  0.2600 -0.3237 -0.3169
   42MOL   C57239194   4.912   2.070   5.679 -0.1766  0.0558  0.2508
   42MOL   C57339195   5.000   2.107   5.799 -0.0045 -0.9617  0.3754
   42MOL   C57439196   4.923   2.113   5.929  0.6893 -0.8317 -0.0178
   42MOL   C57539197   5.021   2.146   6.044  0.0397 -0.0045 -0.4466
   42MOL   C57639198   4.973   2.107   6.184 -0.3809  0.3376  0.0971
   42MOL   O57739199   4.872   2.204   6.220 -0.0854  0.1163  0.5569
   42MOL   C57839200   4.788   2.175   6.311 -0.4812 -0.3173 -0.3921
   42MOL   O57939201   4.807   2.080   6.386 -0.1161  0.4475 -0.3394
   42MOL   C58039202   4.674   2.271   6.327  0.0211  0.0497  0.2221
   42MOL   C58139203   4.558   2.229   6.400 -0.0351 -0.0554  1.1824
   42MOL   C58239204   4.444   2.307   6.411  0.0893 -0.2936 -0.9020
   42MOL   C58339205   4.441   2.440   6.356  0.8768  0.3213 -0.9365
   42MOL   C58439206   4.318   2.527   6.365  0.0591  0.4474 -0.6468
   42MOL   O58539207   4.212   2.481   6.408  0.2578  0.3318 -0.2276
   42MOL   O58639208   4.329   2.651   6.321 -0.7224 -0.0214 -0.3097
   42MOL   C58739209   4.558   2.486   6.292 -0.5999 -0.2848  0.6828
   42MOL   C58839210   4.672   2.405   6.277  0.1891  0.5570  0.7561
   42MOL   H58939211   4.904   2.628   5.597  0.1906 -2.2638 -0.8474
   42MOL   H59039212   4.737   2.651   5.647 -0.7790 -0.5711 -1.0924
   42MOL   H59139213   4.846   2.476   5.415 -1.0777 -1.0461 -0.3538
   42MOL   H59239214   4.680   2.523   5.407  1.2290 -2.4289 -2.3236
   42MOL   H59339215   4.678   2.427   5.661 -0.6899 -0.1694  0.5271
   42MOL   H59439216   4.629   2.346   5.528 -0.2638  0.9756  0.5004
   42MOL   H59539217   4.916   2.352   5.651 -0.7662 -1.8943  1.7007
   42MOL   H59639218   4.895   2.263   5.501 -1.3704 -1.1006 -0.4878
   42MOL   H59739219   4.726   2.174   5.742 -0.6534 -0.2104 -0.9787
   42MOL   H59839220   4.724   2.112   5.583 -0.6240 -1.0195  0.9662
   42MOL   H59939221   4.875   1.968   5.681 -1.2232  0.3954 -1.1696
   42MOL   H60039222   4.976   2.058   5.592 -1.8488 -2.7587 -0.6240
   42MOL   H60139223   5.092   2.050   5.799  1.2032  0.9277 -0.4481
   42MOL   H60239224   5.025   2.212   5.783  0.4358 -1.2660 -1.0756
   42MOL   H60339225   4.837   2.179   5.920  0.1891 -1.8290 -3.3092
   42MOL   H60439226   4.881   2.014   5.948  3.3301 -2.0490 -0.3255
   42MOL   H60539227   5.050   2.252   6.046 -0.7993  0.2738 -1.9921
   42MOL   H60639228   5.107   2.083   6.022  0.1412 -0.3581  0.9318
   42MOL   H60739229   5.054   2.137   6.250  1.3505 -1.3304 -1.2246
   42MOL   H60839230   4.943   2.002   6.179  0.7821  0.0498 -1.1567
   42MOL   H60939231   4.553   2.133   6.451 -0.1750 -0.4156  0.4949
   42MOL   H61039232   4.361   2.262   6.464  1.3371 -1.6262 -0.0569
   42MOL   H61139233   4.566   2.584   6.247  3.0123 -1.0645 -0.5417
   42MOL   H61239234   4.748   2.444   6.210  0.7701 -0.2588  0.9311
   42MOL   O61339235   4.203   2.726   6.302 -0.0415  0.0345  0.4836
   42MOL   C61439236   4.160   2.798   6.420  0.5310 -0.5084  0.6757
   42MOL   C61539237   4.020   2.847   6.404 -0.4064  0.2676 -0.5573
   42MOL   C61639238   3.911   2.744   6.391 -0.5485 -0.8251 -0.1084
   42MOL   C61739239   3.774   2.801   6.343 -0.3848  0.2604  0.1053
   42MOL   C61839240   3.774   2.884   6.213  0.5721 -0.3442  0.0078
   42MOL   C61939241   3.736   3.032   6.246  0.0123  0.1730  0.6038
   42MOL   C62039242   3.587   3.049   6.288  0.2273 -0.2330  0.1359
   42MOL   C62139243   3.555   3.179   6.368  0.2827  0.3067  0.3983
   42MOL   C62239244   3.407   3.218   6.359 -0.3957 -0.2198 -0.7535
   42MOL   C62339245   3.387   3.358   6.411  0.0700  0.4644 -0.6877
   42MOL   O62439246   3.252   3.382   6.382 -0.2618 -0.0254  0.4524
   42MOL   C62539247   3.182   3.470   6.459 -0.4394 -0.4120 -0.2170
   42MOL   O62639248   3.235   3.537   6.545 -0.5311  1.0696 -0.0090
   42MOL   C62739249   3.035   3.453   6.433 -0.4668  0.0242 -0.3310
   42MOL   C62839250   2.977   3.375   6.334 -0.0596  1.1836  0.3209
   42MOL   C62939251   2.833   3.371   6.312  0.3508  0.0212 -0.5791
   42MOL   C63039252   2.754   3.441   6.402  0.9127 -0.2276  0.4950
   42MOL   C63139253   2.605   3.444   6.384  1.2310 -0.1501  0.6713
   42MOL   O63239254   2.542   3.339   6.352 -0.5221  0.1180 -0.3515
   42MOL   O63339255   2.546   3.560   6.401 -0.3431  0.2327 -0.7286
   42MOL   C63439256   2.811   3.517   6.505  0.3393  0.1623  0.4468
   42MOL   C63539257   2.950   3.525   6.518  0.4104 -0.5768 -0.5035
   42MOL   H63639258   4.176   2.736   6.508  1.0805 -0.2048  0.7889
   42MOL   H63739259   4.231   2.877   6.443  0.5383 -0.2476 -0.2183
   42MOL   H63839260   4.019   2.916   6.319 -2.0673  0.2289 -0.5905
   42MOL   H63939261   3.986   2.905   6.490  0.3312 -1.9851  1.3039
   42MOL   H64039262   3.937   2.661   6.326 -0.2835 -1.7235  1.1357
   42MOL   H64139263   3.894   2.699   6.489 -1.2073  0.0510  0.1954
   42MOL   H64239264   3.723   2.851   6.425  2.8831  1.3454  1.5901
   42MOL   H64339265   3.706   2.720   6.319  0.2161 -0.2056 -0.0314
   42MOL   H64439266   3.859   2.880   6.145  0.4405  2.4507 -0.3649
   42MOL   H64539267   3.687   2.853   6.156  1.7355  1.4273 -2.8606
   42MOL   H64639268   3.797   3.057   6.333 -0.6586  0.5301  0.9708
   42MOL   H64739269   3.755   3.100   6.162  3.9096 -1.2906  0.1900
   42MOL   H64839270   3.532   3.057   6.195 -0.2078 -3.0279  0.0871
   42MOL   H64939271   3.541   2.967   6.343  0.0095 -0.1474  0.0783
   42MOL   H65039272   3.582   3.160   6.472 -1.0166 -0.2470  0.6405
   42MOL   H65139273   3.621   3.253   6.322  1.8348  0.3750  2.6541
   42MOL   H65239274   3.347   3.144   6.411  0.8509 -0.5355  0.2423
   42MOL   H65339275   3.382   3.228   6.253  0.1937  0.9362 -0.7969
   42MOL   H65439276   3.454   3.429   6.361 -0.3659  1.1031 -0.3731
   42MOL   H65539277   3.394   3.356   6.519 -4.5973 -0.5853 -0.3076
   42MOL   H65639278   3.045   3.329   6.264 -2.8173 -0.4978 -1.3373
   42MOL   H65739279   2.787   3.320   6.229  0.1055  1.4036 -1.3086
   42MOL   H65839280   2.737   3.566   6.567  1.4753  0.4705  1.5648
   42MOL   H65939281   2.983   3.583   6.603 -0.3983 -1.0116  0.1237
   42MOL   O66039282   2.399   3.547   6.399  0.2277 -0.3751  0.0942
   42MOL   C66139283   2.345   3.583   6.270  0.3084 -0.0779  0.3158
   42MOL   C66239284   2.197   3.598   6.286 -0.1970  0.5061  0.8849
   42MOL   C66339285   2.114   3.595   6.154  0.1980 -0.2670  0.6588
   42MOL   C66439286   2.128   3.720   6.071 -0.8309  0.7001 -1.0424
   42MOL   C66539287   2.242   3.709   5.960 -0.1150  0.1243 -0.0194
   42MOL   C66639288   2.235   3.816   5.853 -0.1775  0.2345 -0.3518
   42MOL   C66739289   2.345   3.791   5.744 -0.9694  0.0914  0.6247
   42MOL   C66839290   2.487   3.834   5.763 -0.8366  0.0599 -0.2016
   42MOL   C66939291   2.585   3.791   5.650  0.3711  0.5298  0.7490
   42MOL   C67039292   2.724   3.850   5.654  0.0492  0.2630 -0.8453
   42MOL   O67139293   2.800   3.810   5.537  0.2495  0.2064  0.4411
   42MOL   C67239294   2.910   3.728   5.561 -0.3963 -0.2843  0.1862
   42MOL   O67339295   2.948   3.693   5.675 -0.6290  0.4367  0.0850
   42MOL   C67439296   2.987   3.690   5.444 -0.4432  0.3503  0.1319
   42MOL   C67539297   3.085   3.590   5.456 -0.6561 -0.2397  0.0761
   42MOL   C67639298   3.162   3.543   5.346 -0.8837 -0.6288 -0.0197
   42MOL   C67739299   3.149   3.598   5.220  0.2740 -0.3091 -1.1156
   42MOL   C67839300   3.229   3.543   5.107  0.2345 -0.1486 -1.1354
   42MOL   O67939301   3.327   3.476   5.128  0.2624 -0.3396 -0.5200
   42MOL   O68039302   3.186   3.585   4.989  0.5249  0.0878  0.1697
   42MOL   C68139303   3.054   3.705   5.206  0.0893 -0.7581  0.0822
   42MOL   C68239304   2.978   3.748   5.314  0.0462  0.0502  0.1437
   42MOL   H68339305   2.374   3.683   6.238 -3.1023  1.2643  1.1714
   42MOL   H68439306   2.376   3.504   6.202  0.7754  0.2777  0.1097
   42MOL   H68539307   2.177   3.683   6.351 -0.7013  0.3263  0.9671
   42MOL   H68639308   2.159   3.509   6.336  0.2091 -0.2257 -0.0809
   42MOL   H68739309   2.159   3.511   6.101  0.6862  0.0183  0.6181
   42MOL   H68839310   2.007   3.581   6.161  0.1889 -0.3785  0.2982
   42MOL   H68939311   2.147   3.812   6.127 -1.8522  0.0742  0.3662
   42MOL   H69039312   2.028   3.744   6.034  0.1076  1.7730 -2.9479
   42MOL   H69139313   2.342   3.729   5.999 -0.7661  2.1444  0.6678
   42MOL   H69239314   2.242   3.612   5.911 -2.7319  0.7936 -1.4181
   42MOL   H69339315   2.140   3.791   5.806  0.3886 -0.4523 -1.1533
   42MOL   H69439316   2.224   3.915   5.897 -0.1955  0.4599 -0.8646
   42MOL   H69539317   2.342   3.685   5.721  1.0703 -0.1180  1.2052
   42MOL   H69639318   2.305   3.833   5.652 -1.3568  0.0301  0.7647
   42MOL   H69739319   2.475   3.941   5.773 -0.9098 -0.0925  1.4039
   42MOL   H69839320   2.533   3.793   5.853  0.1313 -0.1332 -0.7741
   42MOL   H69939321   2.544   3.795   5.549  1.4349 -2.5484  0.1417
   42MOL   H70039322   2.609   3.685   5.654  1.1032  0.6793  0.2083
   42MOL   H70139323   2.764   3.812   5.748 -1.9800 -1.2210 -0.5427
   42MOL   H70239324   2.721   3.959   5.650 -0.3703  0.2832 -0.0206
   42MOL   H70339325   3.105   3.541   5.550 -1.6120  2.0709  1.5003
   42MOL   H70439326   3.232   3.464   5.371 -0.0527  0.0940 -0.0792
   42MOL   H70539327   3.025   3.742   5.109  0.5397 -0.0494  0.2172
   42MOL   H70639328   2.904   3.825   5.298 -1.2943 -0.8697  1.7560
   42MOL   O70739329   3.285   3.574   4.873  0.4169  0.0184  0.0794
   42MOL   C70839330   3.290   3.701   4.804  0.1625 -0.2504  0.3689
   42MOL   C70939331   3.388   3.686   4.683  0.2177  0.1408  0.4949
   42MOL   C71039332   3.367   3.791   4.572 -0.2836 -0.0310 -0.0400
   42MOL   C71139333   3.286   3.729   4.460 -0.3402  0.2506  0.8710
   42MOL   C71239334   3.368   3.638   4.358  1.3511 -0.3179 -0.9732
   42MOL   C71339335   3.277   3.592   4.248  0.1903 -0.8641 -0.5890
   42MOL   C71439336   3.350   3.518   4.136 -0.2874  0.1165  0.4825
   42MOL   C71539337   3.258   3.432   4.056 -0.3402 -0.2074 -0.2366
   42MOL   C71639338   3.228   3.299   4.117  0.2566  0.4113  0.0469
   42MOL   C71739339   3.109   3.232   4.034 -0.6159  0.4364  0.2331
   42MOL   O71839340   2.971   3.262   4.062 -0.7367 -0.4258 -0.4525
   42MOL   C71939341   2.874   3.197   3.994  0.2222 -0.5750  0.1755
   42MOL   O72039342   2.900   3.102   3.924 -0.2365  0.2844  0.4574
   42MOL   C72139343   2.736   3.253   4.015  0.5980  0.2975 -0.0217
   42MOL   C72239344   2.707   3.373   4.076  0.5958 -0.3264 -0.0835
   42MOL   C72339345   2.575   3.419   4.062  0.3215  0.3830  0.1778
   42MOL   C72439346   2.467   3.347   4.002  0.1004  0.1551 -0.2934
   42MOL   C72539347   2.334   3.412   3.977  0.5342  0.8969 -0.4149
   42MOL   O72639348   2.256   3.370   3.891  0.0873 -0.0043  0.5645
   42MOL   O72739349   2.301   3.511   4.060  0.3758  0.2281  0.1267
   42MOL   C72839350   2.500   3.218   3.958  0.6971  0.7718  0.2878
   42MOL   C72939351   2.627   3.167   3.969 -0.7375 -0.3426 -0.3718
   42MOL   H73039352   3.190   3.722   4.764  1.0707 -0.0902 -1.8566
   42MOL   H73139353   3.326   3.783   4.866 -0.2046  0.1953 -0.0014
   42MOL   H73239354   3.399   3.586   4.642  0.8801  0.1512  0.6427
   42MOL   H73339355   3.492   3.699   4.712  0.3408  3.1472 -1.0605
   42MOL   H73439356   3.325   3.885   4.606  0.7066  0.5570 -0.4296
   42MOL   H73539357   3.464   3.830   4.540  0.6186 -0.3907  2.1165
   42MOL   H73639358   3.234   3.810   4.410 -0.4436 -0.6528 -0.4984
   42MOL   H73739359   3.205   3.674   4.508 -1.4147 -1.2052 -2.4624
   42MOL   H73839360   3.444   3.705   4.318 -1.0151  1.7453 -2.1424
   42MOL   H73939361   3.424   3.562   4.414  1.2676  0.9207  0.8243
   42MOL   H74039362   3.213   3.523   4.302 -0.9494  1.4236  1.0333
   42MOL   H74139363   3.214   3.671   4.209 -0.2108  0.1175  1.9617
   42MOL   H74239364   3.394   3.597   4.075 -0.9182 -0.3115 -0.5209
   42MOL   H74339365   3.429   3.457   4.180  0.2300 -0.4307 -1.1934
   42MOL   H74439366   3.164   3.487   4.057 -1.0858 -1.4543 -0.6969
   42MOL   H74539367   3.309   3.418   3.961  1.4473 -0.7379  0.7550
   42MOL   H74639368   3.198   3.304   4.222  1.7958  1.4482  0.4609
   42MOL   H74739369   3.312   3.230   4.112 -0.3502 -0.3841  0.7687
   42MOL   H74839370   3.112   3.124   4.052  1.4169  0.7454  2.0360
   42MOL   H74939371   3.129   3.248   3.928  0.4332  1.5665  0.5894
   42MOL   H75039372   2.781   3.433   4.128  1.6452 -2.1904  0.6233
   42MOL   H75139373   2.552   3.520   4.090 -0.2224  0.4043 -0.3441
   42MOL   H75239374   2.428   3.161   3.900  1.3217 -0.5123  0.7623
   42MOL   H75339375   2.653   3.066   3.939  1.4890  0.3493 -0.8974
   42MOL   O75439376   2.182   3.587   4.011  0.0906 -0.4627 -0.3005
   42MOL   C75539377   2.086   3.577   4.102  0.0128 -0.6954  0.4548
   42MOL   C75639378   1.946   3.572   4.039 -0.0813 -0.0002  0.4719
   42MOL   C75739379   1.906   3.706   3.976  0.6877 -0.7164  0.6777
   42MOL   C75839380   1.902   3.818   4.080 -0.1248  0.1440 -0.0715
   42MOL   C75939381   1.815   3.938   4.033 -0.1175 -0.3830  0.1648
   42MOL   C76039382   1.766   4.011   4.157 -0.1332  0.7658  0.0228
   42MOL   C76139383   1.715   4.151   4.126  0.0415 -0.0650  0.7470
   42MOL   C76239384   1.818   4.258   4.106 -0.1903 -0.6251 -0.2952
   42MOL   C76339385   1.746   4.395   4.095  0.2305  0.1222 -0.6991
   42MOL   C76439386   1.834   4.522   4.054  0.0310 -0.0026  0.0337
   42MOL   O76539387   1.883   4.502   3.932 -0.1127 -0.3785 -0.3311
   42MOL   C76639388   1.811   4.549   3.822 -0.4946  0.6091 -0.0258
   42MOL   O76739389   1.700   4.603   3.827  0.0941  0.3665  0.1233
   42MOL   C76839390   1.873   4.518   3.689 -0.7863  0.5295  0.4512
   42MOL   C76939391   1.998   4.443   3.683  0.1476 -0.4973 -0.6041
   42MOL   C77039392   2.046   4.401   3.558  0.0882 -0.2832  0.8241
   42MOL   C77139393   1.972   4.429   3.440  0.0091  0.4169  0.2653
   42MOL   C77239394   2.030   4.385   3.307 -0.0427  0.3771 -0.1622
   42MOL   O77339395   2.127   4.312   3.304  0.4984 -0.3929  0.1719
   42MOL   O77439396   1.950   4.418   3.203 -0.0388 -0.3404 -0.3367
   42MOL   C77539397   1.854   4.499   3.444 -0.7946  0.6578 -0.5461
   42MOL   C77639398   1.803   4.543   3.570  0.7233  0.3957 -0.2689
   42MOL   H77739399   2.096   3.484   4.159 -1.5549 -0.7351  0.6826
   42MOL   H77839400   2.096   3.660   4.171 -0.6621  0.7085 -1.1076
   42MOL   H77939401   1.865   3.554   4.110 -0.8257 -1.9670 -0.8415
   42MOL   H78039402   1.942   3.500   3.958  0.3280 -0.8095  1.1657
   42MOL   H78139403   1.971   3.751   3.900  0.1853  0.2617  0.8355
   42MOL   H78239404   1.805   3.689   3.940  0.1886  0.6974  1.4221
   42MOL   H78339405   2.002   3.856   4.098  0.8448  0.1168 -4.7972
   42MOL   H78439406   1.857   3.777   4.171  0.9646  0.8750  0.8102
   42MOL   H78539407   1.887   4.003   3.983  0.1594 -0.2077  0.7839
   42MOL   H78639408   1.740   3.902   3.963 -0.1351  0.7377 -0.3951
   42MOL   H78739409   1.699   3.944   4.211 -0.3479  0.3050 -0.8119
   42MOL   H78839410   1.856   4.015   4.218 -0.3772  1.7835  0.3370
   42MOL   H78939411   1.644   4.150   4.044  1.3504 -1.6634 -0.4048
   42MOL   H79039412   1.665   4.185   4.217  1.9887  0.5444  1.6322
   42MOL   H79139413   1.895   4.265   4.183  0.3518 -0.2258 -0.8701
   42MOL   H79239414   1.863   4.233   4.010  0.5018  1.3769 -0.5244
   42MOL   H79339415   1.710   4.410   4.197  0.8026 -1.3361 -0.2643
   42MOL   H79439416   1.653   4.384   4.039 -1.1367  1.4539  1.2386
   42MOL   H79539417   1.926   4.521   4.114  0.4565  1.8487 -0.5836
   42MOL   H79639418   1.785   4.617   4.073 -0.1319  0.0382 -0.5944
   42MOL   H79739419   2.054   4.419   3.772 -1.0256 -0.1601  0.2404
   42MOL   H79839420   2.139   4.346   3.561  1.2302  1.6386  1.3153
   42MOL   H79939421   1.795   4.516   3.355  0.5974 -1.9621 -2.0199
   42MOL   H80039422   1.709   4.596   3.574  0.3479 -0.2627 -0.2949
   42MOL   O80139423   2.009   4.400   3.068  0.2292 -0.1227 -0.2551
   42MOL   C80239424   1.983   4.270   3.022  0.0975  1.0697  0.3027
   42MOL   C80339425   2.055   4.247   2.887  0.1809  0.5183  0.5183
   42MOL   C80439426   2.207   4.226   2.905  0.1795  0.3970 -0.3520
   42MOL   C80539427   2.294   4.250   2.780 -0.0382 -0.3102  0.4072
   42MOL   C80639428   2.242   4.195   2.652  0.1243 -0.1138  0.4976
   42MOL   C80739429   2.258   4.040   2.657 -0.3790 -0.1281  0.3972
   42MOL   C80839430   2.186   3.964   2.545 -0.2949  0.2472  0.8336
   42MOL   C80939431   2.215   3.811   2.556 -0.3723  0.3160 -0.8980
   42MOL   C81039432   2.171   3.721   2.443 -0.4309 -0.3446  0.3573
   42MOL   C81139433   2.215   3.577   2.480 -0.3118  0.3163  0.0067
   42MOL   O81239434   2.356   3.566   2.474  0.5494 -0.2162  0.4528
   42MOL   C81339435   2.430   3.543   2.585  0.3438  0.5293 -0.2922
   42MOL   O81439436   2.381   3.528   2.702  0.3528  0.3252  0.2202
   42MOL   C81539437   2.575   3.538   2.554 -0.2768  0.4493 -0.4778
   42MOL   C81639438   2.667   3.511   2.658  0.2266  0.1214 -0.2568
   42MOL   C81739439   2.801   3.478   2.625 -0.4034  0.0520 -0.7042
   42MOL   C81839440   2.852   3.500   2.495  0.8866 -0.1690  0.5337
   42MOL   C81939441   2.998   3.477   2.456  0.3770  0.9341 -0.3555
   42MOL   O82039442   3.031   3.445   2.344 -0.8145  0.1089  0.9669
   42MOL   O82139443   3.086   3.489   2.553 -0.6333  0.5854 -0.3769
   42MOL   C82239444   2.759   3.531   2.393 -0.7485 -0.2482  0.1564
   42MOL   C82339445   2.622   3.559   2.423 -0.2966 -0.2371 -0.1068
   42MOL   H82439446   2.024   4.191   3.085  0.1716 -0.8722 -2.0988
   42MOL   H82539447   1.877   4.254   3.002  0.3410 -0.7582  0.4168
   42MOL   H82639448   2.040   4.331   2.819 -0.4015  1.2642  1.5568
   42MOL   H82739449   2.022   4.163   2.825  1.7403 -0.3141  0.7932
   42MOL   H82839450   2.239   4.306   2.972  1.0764 -2.0816  2.2881
   42MOL   H82939451   2.236   4.143   2.969  1.3053  1.4184  0.5036
   42MOL   H83039452   2.389   4.203   2.807 -2.1579 -3.0040  3.6006
   42MOL   H83139453   2.309   4.358   2.768  2.8124 -0.6278  0.5922
   42MOL   H83239454   2.140   4.224   2.627  0.6846  2.8643  1.5217
   42MOL   H83339455   2.295   4.243   2.570  2.1097 -2.0248  0.6441
   42MOL   H83439456   2.364   4.018   2.660 -0.4611 -0.2356  3.4612
   42MOL   H83539457   2.214   4.002   2.749 -0.5462 -0.0394  0.3543
   42MOL   H83639458   2.079   3.984   2.538 -0.0242  1.8725  1.2095
   42MOL   H83739459   2.234   3.995   2.453 -0.9483  0.4058  0.5448
   42MOL   H83839460   2.318   3.801   2.588 -0.5233  0.0807 -0.4901
   42MOL   H83939461   2.152   3.775   2.637 -0.8192  0.0600 -1.3494
   42MOL   H84039462   2.218   3.749   2.349 -0.3390 -0.0665  0.4820
   42MOL   H84139463   2.064   3.738   2.430 -0.1988 -0.4759 -1.7589
   42MOL   H84239464   2.170   3.510   2.407 -0.1903  0.6137 -0.3444
   42MOL   H84339465   2.177   3.541   2.576  2.4411 -1.0056  0.6462
   42MOL   H84439466   2.640   3.492   2.761  3.4639  0.9997  0.8063
   42MOL   H84539467   2.869   3.438   2.698  0.2954  0.1990 -1.2687
   42MOL   H84639468   2.792   3.533   2.290 -0.5043 -0.4327  0.2306
   42MOL   H84739469   2.556   3.576   2.339 -1.3138  0.2069  0.7782
   42MOL   O84839470   3.222   3.470   2.503 -0.1070  0.2353 -0.0693
   42MOL   C84939471   3.283   3.366   2.577  0.2202  0.0065 -0.1872
   42MOL   C85039472   3.416   3.325   2.509 -0.1139 -0.0522  0.2902
   42MOL   C85139473   3.514   3.446   2.485  0.0553  0.1327 -0.0007
   42MOL   C85239474   3.635   3.397   2.413 -0.2324  0.1978  0.0651
   42MOL   C85339475   3.633   3.410   2.261  0.5895 -0.5043 -0.4430
   42MOL   C85439476   3.570   3.282   2.189  0.1741 -0.9159 -0.4372
   42MOL   C85539477   3.595   3.278   2.034  0.7844 -0.4703 -0.3173
   42MOL   C85639478   3.518   3.388   1.951 -0.1221  0.7798  0.2256
   42MOL   C85739479   3.363   3.385   1.965 -1.1005 -0.5861  0.5351
   42MOL   C85839480   3.294   3.484   1.878  0.1265 -0.5673 -0.7598
   42MOL   O85939481   3.340   3.614   1.910  0.0612  0.1664  0.1122
   42MOL   C86039482   3.282   3.724   1.856  0.1316  0.4018 -0.7699
   42MOL   O86139483   3.179   3.719   1.783 -0.3407 -0.2178 -0.4572
   42MOL   C86239484   3.351   3.854   1.895 -0.0289  0.0388 -0.3808
   42MOL   C86339485   3.293   3.979   1.850 -0.1998  0.2593 -0.4150
   42MOL   C86439486   3.353   4.106   1.876 -0.5421 -0.0786 -0.1881
   42MOL   C86539487   3.479   4.100   1.951  0.2442  0.5903  0.2209
   42MOL   C86639488   3.540   4.233   1.985 -0.6776 -0.4655 -0.1212
   42MOL   O86739489   3.486   4.343   1.961  0.2463  0.3372 -0.0837
   42MOL   O86839490   3.651   4.224   2.064 -0.6177  0.0533 -0.3761
   42MOL   C86939491   3.536   3.979   2.000 -0.1937 -0.3827  0.0882
   42MOL   C87039492   3.471   3.861   1.973  0.3481 -0.1295  0.0246
   42MOL   H87139493   3.294   3.397   2.681  0.1050  0.1388 -0.2138
   42MOL   H87239494   3.218   3.279   2.570 -1.0105  1.1142 -2.9927
   42MOL   H87339495   3.388   3.278   2.415  0.5354 -1.3766  0.7518
   42MOL   H87439496   3.479   3.254   2.563  0.5099 -1.5415 -2.3394
   42MOL   H87539497   3.467   3.520   2.420  0.0867  1.3909  1.3886
   42MOL   H87639498   3.550   3.484   2.580  1.7068 -0.7160 -0.2630
   42MOL   H87739499   3.663   3.296   2.443 -1.1979 -0.2003 -0.3726
   42MOL   H87839500   3.715   3.460   2.452  0.8658 -0.3092 -1.3285
   42MOL   H87939501   3.593   3.503   2.220 -0.3913  0.1739  1.9692
   42MOL   H88039502   3.739   3.415   2.239  0.6352 -0.1789 -0.1578
   42MOL   H88139503   3.607   3.190   2.236  1.6140  1.0778  2.4710
   42MOL   H88239504   3.466   3.282   2.221  0.5761 -0.9385  0.9321
   42MOL   H88339505   3.703   3.283   2.024  0.7332  3.0309  0.3562
   42MOL   H88439506   3.579   3.177   1.998  0.3256 -0.5636  0.1257
   42MOL   H88539507   3.569   3.478   1.985  2.6118 -0.6631  0.0811
   42MOL   H88639508   3.539   3.378   1.845  0.1010 -1.5758  0.4656
   42MOL   H88739509   3.333   3.412   2.066 -2.3584  1.0409 -0.2386
   42MOL   H88839510   3.322   3.287   1.944 -1.7921  0.0044 -0.9448
   42MOL   H88939511   3.186   3.476   1.886  0.1541 -3.4382 -2.5635
   42MOL   H89039512   3.315   3.464   1.773  0.7717 -0.0642 -0.7286
   42MOL   H89139513   3.214   3.967   1.777 -0.3203  0.1831 -0.2730
   42MOL   H89239514   3.316   4.195   1.828  0.2092  1.7704  2.5302
   42MOL   H89339515   3.640   3.976   2.030  0.9192  1.6631 -3.3552
   42MOL   H89439516   3.518   3.765   1.988 -0.7164 -0.5610  0.6879
   42MOL   O89539517   3.706   4.352   2.125 -0.0118  0.0707 -0.4669
   42MOL   C89639518   3.639   4.379   2.246 -0.3770  0.1735 -0.6686
   42MOL   C89739519   3.672   4.508   2.314  0.6379 -0.0591  0.1337
   42MOL   C89839520   3.588   4.555   2.431  0.5840 -0.1226  0.2208
   42MOL   C89939521   3.599   4.703   2.481  0.0921  0.2566 -0.5325
   42MOL   C90039522   3.734   4.720   2.554 -0.3113 -0.1781 -0.2043
   42MOL   C90139523   3.734   4.836   2.645  0.1186  0.5514 -0.3106
   42MOL   C90239524   3.860   4.879   2.714 -0.7106 -0.7968 -0.7641
   42MOL   C90339525   3.829   4.974   2.836 -0.7049 -0.1549  0.3908
   42MOL   C90439526   3.960   5.038   2.907  0.2380  0.1209 -0.2465
   42MOL   C90539527   3.926   5.117   3.032 -0.2996 -0.1602 -0.6632
   42MOL   O90639528   3.808   5.195   3.003 -0.4004 -0.0842 -0.1206
   42MOL   C90739529   3.708   5.189   3.085  0.7116 -0.4798 -0.1282
   42MOL   O90839530   3.713   5.119   3.189  0.1035  1.0027  0.3552
   42MOL   C90939531   3.590   5.269   3.038  0.5988 -0.5734 -0.1036
   42MOL   C91039532   3.463   5.251   3.098  0.4777 -0.5355  0.3802
   42MOL   C91139533   3.360   5.345   3.074 -0.0929  0.2625  0.0121
   42MOL   C91239534   3.369   5.447   2.981  0.0562 -0.1383  0.1861
   42MOL   C91339535   3.254   5.532   2.953  0.2373  0.3219 -0.2201
   42MOL   O91439536   3.262   5.646   2.916  0.1939 -0.3074  0.2200
   42MOL   O91539537   3.137   5.470   2.955 -0.6766  0.9233  0.0894
   42MOL   C91639538   3.496   5.464   2.920  0.0111 -0.0655  0.2068
   42MOL   C91739539   3.599   5.376   2.946  0.2383 -0.4911 -0.7357
   42MOL   H91839540   3.533   4.401   2.231 -0.2354  1.3985  0.0332
   42MOL   H91939541   3.648   4.299   2.319  0.3586  1.4912  0.7178
   42MOL   H92039542   3.674   4.585   2.237 -0.6140 -0.0851  0.0782
   42MOL   H92139543   3.779   4.499   2.337  0.9245 -0.7395 -1.4020
   42MOL   H92239544   3.482   4.545   2.408  0.1952  2.1372  0.8464
   42MOL   H92339545   3.597   4.492   2.519  1.0514 -1.4875 -0.7891
   42MOL   H92439546   3.518   4.718   2.552 -0.0140  0.9424 -0.8023
   42MOL   H92539547   3.592   4.775   2.399 -0.9282  0.4625 -0.2777
   42MOL   H92639548   3.751   4.628   2.610 -0.2205  0.1433  0.3015
   42MOL   H92739549   3.816   4.733   2.482  0.9230 -0.1449  1.1738
   42MOL   H92839550   3.697   4.921   2.588  0.4072  1.0410  0.2287
   42MOL   H92939551   3.663   4.825   2.726 -2.7225  0.5796 -2.6924
   42MOL   H93039552   3.918   4.798   2.758 -1.4065  0.1645  2.0148
   42MOL   H93139553   3.922   4.939   2.647  0.0680 -1.2630 -0.4624
   42MOL   H93239554   3.758   5.048   2.797 -1.6266 -1.1199  0.2044
   42MOL   H93339555   3.776   4.913   2.910 -0.7598 -0.0857  0.4076
   42MOL   H93439556   4.001   5.114   2.841  0.7846  0.0239 -0.0181
   42MOL   H93539557   4.035   4.961   2.923 -1.0654 -1.2833 -0.7348
   42MOL   H93639558   4.010   5.182   3.054  0.0079 -0.2392 -1.6148
   42MOL   H93739559   3.922   5.051   3.119  0.6358  1.2415  0.4656
   42MOL   H93839560   3.448   5.169   3.167  0.6695 -0.6428  0.2940
   42MOL   H93939561   3.269   5.318   3.126  0.0658 -0.9191 -0.3241
   42MOL   H94039562   3.509   5.546   2.850  2.0960 -1.5568 -1.2306
   42MOL   H94139563   3.690   5.402   2.895  2.0710 -0.7173  2.2937
   42MOL   H94239564   3.077   5.538   2.928  0.5830  1.2711 -2.0189
   43MOL     O139565   7.363   2.190   5.317  0.9569 -0.5358 -0.1260
   43MOL     C239566   7.308   2.218   5.447  0.3968 -0.7267  0.1292
   43MOL     C339567   7.398   2.223   5.569 -0.6100  0.2434 -0.1886
   43MOL     C439568   7.515   2.316   5.558  0.4324  0.4184 -0.3826
   43MOL     C539569   7.563   2.360   5.692  0.4085  0.2628  0.1145
   43MOL     C639570   7.683   2.449   5.694  0.6122 -0.0209 -0.2181
   43MOL     C739571   7.722   2.504   5.834  0.1020 -0.0096  0.3597
   43MOL     C839572   7.777   2.392   5.928  0.2373 -0.3653 -0.0983
   43MOL     C939573   7.846   2.457   6.049 -0.4976  0.1069 -0.4340
   43MOL    C1039574   7.905   2.359   6.159  0.7759 -0.0958  0.5762
   43MOL    C1139575   0.012   2.254   6.094  0.4129  0.0490  0.0801
   43MOL    O1239576   0.095   2.193   6.193  0.4304 -0.5279 -0.2010
   43MOL    C1339577   0.125   2.063   6.191 -0.0408 -0.0533  0.6356
   43MOL    O1439578   0.069   1.982   6.115  0.7745 -0.3008 -0.0404
   43MOL    C1539579   0.226   2.025   6.294 -0.6001  0.3240 -0.1884
   43MOL    C1639580   0.307   2.123   6.354 -0.1088 -0.1538 -0.3769
   43MOL    C1739581   0.416   2.079   6.437 -0.0090 -0.3773  0.0099
   43MOL    C1839582   0.430   1.943   6.472  0.1246 -0.5778  0.0011
   43MOL    C1939583   0.546   1.912   6.567 -0.1426  0.4949 -0.0563
   43MOL    O2039584   0.604   1.994   6.627  0.9118  0.1820 -0.5463
   43MOL    O2139585   0.552   1.775   6.591 -0.9311  0.0918  0.2933
   43MOL    C2239586   0.337   1.850   6.420  0.0533  0.0231  0.1867
   43MOL    C2339587   0.238   1.891   6.328  0.0173 -0.6869  0.7504
   43MOL    H2439588   7.253   2.312   5.446  1.2023 -0.1921  2.5713
   43MOL    H2539589   7.238   2.137   5.469  1.3476 -0.5221  4.3824
   43MOL    H2639590   7.429   2.122   5.595 -1.0072  0.4288  1.0529
   43MOL    H2739591   7.327   2.246   5.649  0.4839 -0.5629  1.0290
   43MOL    H2839592   7.589   2.253   5.508 -1.5184 -1.6982 -0.7080
   43MOL    H2939593   7.489   2.405   5.501 -1.9378  0.4753  0.7317
   43MOL    H3039594   7.580   2.282   5.767  0.1542  0.1886  0.0958
   43MOL    H3139595   7.491   2.421   5.746  0.0895 -0.2720  0.3032
   43MOL    H3239596   7.761   2.384   5.655  1.4402 -0.0167  1.3691
   43MOL    H3339597   7.678   2.532   5.624 -0.3870  0.1388  0.0375
   43MOL    H3439598   7.807   2.566   5.809 -0.6767  0.8126 -0.2819
   43MOL    H3539599   7.641   2.563   5.877  1.6282  0.7820  2.2035
   43MOL    H3639600   7.707   2.313   5.955 -0.3609 -0.4248 -1.7468
   43MOL    H3739601   7.862   2.348   5.875  0.0126  0.3759 -1.0834
   43MOL    H3839602   7.929   2.513   6.006 -0.9708  0.9241 -0.2965
   43MOL    H3939603   7.780   2.521   6.107  0.0758  0.6525 -0.3801
   43MOL    H4039604   7.825   2.319   6.221  0.6289 -1.0064 -0.1873
   43MOL    H4139605   7.963   2.424   6.224 -0.4431  1.9613 -0.3253
   43MOL    H4239606   0.088   2.295   6.029 -0.4048  0.2608 -0.7428
   43MOL    H4339607   7.938   2.177   6.037  1.3504 -0.0392 -0.6616
   43MOL    H4439608   0.296   2.227   6.326  0.0935  0.0710  0.3852
   43MOL    H4539609   0.486   2.153   6.474 -2.1921  0.7566  2.1004
   43MOL    H4639610   0.340   1.743   6.433 -3.3341 -0.2962 -1.3040
   43MOL    H4739611   0.175   1.822   6.275 -2.0609  1.5329  0.2402
   43MOL    H4839612   7.423   2.118   5.330  1.0758 -0.1512  1.5530
   43MOL    O4939613   0.647   1.741   6.703  0.7153  0.0913 -0.7927
   43MOL    C5039614   0.764   1.686   6.648  0.3014 -0.6468 -0.1212
   43MOL    C5139615   0.885   1.677   6.745 -0.1107  0.3967 -0.3236
   43MOL    C5239616   1.011   1.610   6.677  0.0330  0.4192  0.4929
   43MOL    C5339617   1.132   1.604   6.775  0.0664 -0.1722 -0.4191
   43MOL    C5439618   1.258   1.526   6.722  0.8267 -0.3203 -0.0396
   43MOL    C5539619   1.363   1.486   6.826  0.3394 -0.8169 -0.6296
   43MOL    C5639620   1.469   1.402   6.775  0.6151  0.2189 -0.5447
   43MOL    C5739621   1.554   1.351   6.889 -0.0152  0.0507  0.2156
   43MOL    C5839622   1.697   1.331   6.848 -0.3967  0.2891 -0.1900
   43MOL    C5939623   1.793   1.454   6.870 -0.0699  0.3307  0.1505
   43MOL    O6039624   1.772   1.544   6.765 -0.3928 -0.4573  0.0075
   43MOL    C6139625   1.870   1.636   6.729  0.3846  0.6352  1.4529
   43MOL    O6239626   1.981   1.642   6.781  0.0650 -0.6836 -0.0073
   43MOL    C6339627   1.836   1.732   6.618 -0.6920  0.9245 -0.1389
   43MOL    C6439628   1.936   1.811   6.552  0.1770 -0.0572 -0.0338
   43MOL    C6539629   1.911   1.894   6.447 -0.2826  0.1137 -0.0813
   43MOL    C6639630   1.777   1.904   6.397 -0.7702  0.2377  0.2548
   43MOL    C6739631   1.741   1.994   6.289  0.1199 -0.2964 -0.2464
   43MOL    O6839632   1.826   2.055   6.221 -0.7067  0.0844 -0.5440
   43MOL    O6939633   1.616   1.997   6.263 -0.3542 -0.1194  0.0709
   43MOL    C7039634   1.678   1.818   6.452 -0.2181 -0.4265  0.3502
   43MOL    C7139635   1.705   1.733   6.567 -0.6604 -0.2886 -0.1583
   43MOL    H7239636   0.743   1.586   6.612  1.1041 -0.8978  0.0915
   43MOL    H7339637   0.798   1.741   6.561 -3.0841 -1.0204 -1.7576
   43MOL    H7439638   0.864   1.615   6.832  0.0753 -0.8053 -1.1280
   43MOL    H7539639   0.911   1.779   6.776  1.5668 -0.0931 -0.0765
   43MOL    H7639640   0.985   1.511   6.639  1.9105  0.0873  0.0387
   43MOL    H7739641   1.034   1.658   6.582  0.5658 -1.4566 -0.3371
   43MOL    H7839642   1.100   1.562   6.870  0.5469  0.6730  0.1291
   43MOL    H7939643   1.157   1.709   6.795  1.5745 -0.7914  1.0969
   43MOL    H8039644   1.207   1.447   6.668  0.4465  0.8257 -1.4139
   43MOL    H8139645   1.304   1.580   6.639 -1.2205  0.3684 -0.7379
   43MOL    H8239646   1.408   1.566   6.885 -1.7471  1.3489 -1.8406
   43MOL    H8339647   1.309   1.426   6.898 -0.6212 -0.9254 -1.4276
   43MOL    H8439648   1.424   1.315   6.727  0.9729 -0.7145  0.7568
   43MOL    H8539649   1.526   1.456   6.699 -1.5141  5.7098  1.4823
   43MOL    H8639650   1.551   1.413   6.978  1.3161 -0.9737  1.0094
   43MOL    H8739651   1.528   1.249   6.918  1.4064 -0.1518  0.8299
   43MOL    H8839652   1.714   1.316   6.741 -0.6572  0.5504 -0.2681
   43MOL    H8939653   1.734   1.244   6.902 -0.5463 -1.8449 -3.3834
   43MOL    H9039654   1.894   1.414   6.872 -0.5042 -0.8866 -1.2676
   43MOL    H9139655   1.767   1.496   6.967 -0.8370  1.4120 -0.5083
   43MOL    H9239656   2.035   1.805   6.597 -0.6172 -0.3280  1.7393
   43MOL    H9339657   1.989   1.962   6.415  0.4511 -0.1093  1.1836
   43MOL    H9439658   1.577   1.829   6.416  0.2286 -0.7671 -1.0653
   43MOL    H9539659   1.630   1.665   6.602 -0.0019 -0.9753 -0.0730
   43MOL    O9639660   1.586   2.077   6.138 -0.0941 -0.6561 -0.3048
   43MOL    C9739661   1.552   1.988   6.034  0.3217 -0.3794 -0.6823
   43MOL    C9839662   1.469   2.062   5.930  0.0741 -0.3060  0.4396
   43MOL    C9939663   1.554   2.160   5.856 -0.1769  0.2383 -0.7579
   43MOL   C10039664   1.482   2.209   5.731  0.1900  0.7328  0.1835
   43MOL   C10139665   1.582   2.251   5.629  0.0559  0.6210  0.0419
   43MOL   C10239666   1.528   2.337   5.510  0.0729 -0.7660  0.4274
   43MOL   C10339667   1.493   2.247   5.389 -0.5733 -0.4514 -0.0137
   43MOL   C10439668   1.485   2.326   5.260  0.4064  0.3046  1.1499
   43MOL   C10539669   1.453   2.239   5.133 -0.2184 -0.0251 -0.2525
   43MOL   C10639670   1.458   2.329   5.006 -0.5835 -0.2275  0.1876
   43MOL   O10739671   1.360   2.432   5.011  0.0814 -0.7125 -0.0830
   43MOL   C10839672   1.236   2.414   4.959 -0.2376  0.7346  0.4448
   43MOL   O10939673   1.191   2.323   4.889  0.4153 -0.1053 -0.5270
   43MOL   C11039674   1.159   2.545   4.973 -0.2821  0.3002  0.1269
   43MOL   C11139675   1.071   2.587   4.869 -0.3141 -0.3805 -0.7266
   43MOL   C11239676   0.990   2.702   4.888  0.2801  0.4530  0.0144
   43MOL   C11339677   0.995   2.777   5.006 -0.3051 -0.3987 -0.2519
   43MOL   C11439678   0.916   2.902   5.034  0.2917 -0.6415  0.5869
   43MOL   O11539679   0.915   2.963   5.144 -0.6660  0.1753  1.1374
   43MOL   O11639680   0.857   2.949   4.923 -0.3324 -0.0381  0.1558
   43MOL   C11739681   1.095   2.744   5.102 -0.4053  0.6593  0.1193
   43MOL   C11839682   1.181   2.632   5.080 -0.5744 -0.3066 -0.7737
   43MOL   H11939683   1.632   1.931   5.988  0.2187 -0.2112 -1.0747
   43MOL   H12039684   1.486   1.912   6.076 -0.4516  0.4488 -0.3657
   43MOL   H12139685   1.378   2.108   5.969  1.5275  3.2742 -0.2957
   43MOL   H12239686   1.443   1.984   5.858  2.5899 -0.2600 -0.5841
   43MOL   H12339687   1.565   2.250   5.917 -2.3615  1.2564 -1.7775
   43MOL   H12439688   1.653   2.118   5.846 -0.1806 -0.4057  1.6598
   43MOL   H12539689   1.401   2.281   5.746 -0.5966  0.2775 -1.6663
   43MOL   H12639690   1.435   2.118   5.691  0.2949  0.7850 -0.0578
   43MOL   H12739691   1.648   2.320   5.682 -0.6321 -0.5303  2.4482
   43MOL   H12839692   1.644   2.166   5.600 -0.9355 -0.1587  0.1788
   43MOL   H12939693   1.455   2.412   5.539  0.2852 -0.6441  0.6430
   43MOL   H13039694   1.616   2.398   5.491 -0.1127 -0.4637  0.5281
   43MOL   H13139695   1.562   2.168   5.360 -2.2110 -2.3787  1.1821
   43MOL   H13239696   1.400   2.191   5.402 -1.5622  0.9813 -0.7779
   43MOL   H13339697   1.400   2.393   5.272 -0.5818 -0.6833 -0.2930
   43MOL   H13439698   1.567   2.398   5.254 -0.9162  2.0230  3.0372
   43MOL   H13539699   1.359   2.185   5.144 -0.9509  1.3367  0.3579
   43MOL   H13639700   1.525   2.157   5.124  1.2229  1.3145 -1.1789
   43MOL   H13739701   1.449   2.285   4.907  1.4566 -0.5897  0.1402
   43MOL   H13839702   1.556   2.373   4.988  1.0761 -3.3096  1.2394
   43MOL   H13939703   1.054   2.527   4.781 -3.2222  1.3349 -1.4384
   43MOL   H14039704   0.907   2.711   4.819 -0.7579  1.4898  1.3631
   43MOL   H14139705   1.116   2.808   5.187  0.5951 -0.0849  0.4350
   43MOL   H14239706   1.254   2.608   5.156  1.9933  0.6562 -2.8600
   43MOL   O14339707   0.777   3.078   4.934 -0.0809 -0.6934  0.5572
   43MOL   C14439708   0.864   3.187   4.898 -0.9336 -0.5355  0.2487
   43MOL   C14539709   0.774   3.314   4.893  0.0098 -0.0102 -0.1933
   43MOL   C14639710   0.688   3.350   5.017  0.4171 -0.6324  0.0727
   43MOL   C14739711   0.589   3.460   4.990 -0.3952 -0.1069  0.3616
   43MOL   C14839712   0.509   3.502   5.120 -0.4515  0.3508 -0.1758
   43MOL   C14939713   0.386   3.416   5.155  0.2617 -0.0673  0.3556
   43MOL   C15039714   0.264   3.456   5.070  0.2626 -0.0851 -0.7279
   43MOL   C15139715   0.133   3.395   5.113 -0.3893  0.0266 -0.3363
   43MOL   C15239716   0.051   3.475   5.217  0.3509 -0.2122  0.2339
   43MOL   C15339717   7.895   3.405   5.250  0.5276 -0.5195  0.2406
   43MOL   O15439718   7.926   3.275   5.307 -0.2314 -0.2090  0.3518
   43MOL   C15539719   7.836   3.175   5.323 -0.9442 -0.1959  0.2511
   43MOL   O15639720   7.720   3.184   5.290 -0.1716  0.1038  0.2020
   43MOL   C15739721   7.890   3.053   5.389 -0.1654 -0.7168  0.2253
   43MOL   C15839722   7.825   2.932   5.421  0.2844  0.4191 -0.7303
   43MOL   C15939723   7.884   2.828   5.496  0.3400  0.0940 -0.6279
   43MOL   C16039724   0.043   2.839   5.537 -0.4618  1.2995 -0.3174
   43MOL   C16139725   0.106   2.727   5.619  0.0781 -0.3256 -0.3592
   43MOL   O16239726   0.219   2.740   5.675  0.8802  0.6040 -0.2657
   43MOL   O16339727   0.026   2.616   5.628  1.0689  0.0286 -0.4034
   43MOL   C16439728   0.113   2.953   5.497 -0.1918 -0.3540  0.2151
   43MOL   C16539729   0.048   3.057   5.425  0.3245 -0.4803 -0.3372
   43MOL   H16639730   0.947   3.200   4.967 -0.5734 -2.1697  0.1457
   43MOL   H16739731   0.896   3.186   4.794 -0.0389 -0.4417  0.5199
   43MOL   H16839732   0.710   3.321   4.805 -2.9050 -1.3699  1.7127
   43MOL   H16939733   0.843   3.397   4.879 -1.3837  0.9970 -1.2756
   43MOL   H17039734   0.643   3.259   5.055  1.4408 -0.8558  0.7676
   43MOL   H17139735   0.753   3.393   5.094 -0.8606  1.4432  0.0351
   43MOL   H17239736   0.513   3.435   4.915  0.2069 -1.0316  0.0462
   43MOL   H17339737   0.638   3.543   4.939 -0.5274 -1.0998 -1.4610
   43MOL   H17439738   0.578   3.495   5.205 -0.8089 -1.3260  0.0069
   43MOL   H17539739   0.486   3.608   5.111 -2.6370 -0.1483 -0.8168
   43MOL   H17639740   0.408   3.309   5.147  0.8194  0.0664  0.0405
   43MOL   H17739741   0.371   3.421   5.263 -1.2706  2.1344  0.0779
   43MOL   H17839742   0.253   3.565   5.075 -1.8081 -0.3283  0.4913
   43MOL   H17939743   0.274   3.437   4.963 -0.5502  3.2558 -1.4539
   43MOL   H18039744   0.067   3.368   5.030  1.2034  0.2041 -1.7048
   43MOL   H18139745   0.158   3.297   5.155 -1.2562 -1.0997 -2.3681
   43MOL   H18239746   0.029   3.567   5.163  2.0490  0.2712  0.3271
   43MOL   H18339747   0.105   3.486   5.311 -0.4863 -1.9004  0.9327
   43MOL   H18439748   7.840   3.389   5.157  2.0045  0.7990 -0.8936
   43MOL   H18539749   7.831   3.464   5.316  0.9354 -0.7864  0.8724
   43MOL   H18639750   7.720   2.918   5.402  0.7032 -2.2102 -1.4434
   43MOL   H18739751   7.816   2.751   5.527  0.2513  0.5309  0.2872
   43MOL   H18839752   0.219   2.954   5.519  0.3861  1.5915 -2.4500
   43MOL   H18939753   0.110   3.145   5.422  0.2775 -0.4348 -0.0461
   43MOL   O19039754   0.089   2.506   5.709  0.4386  0.0150 -0.4915
   43MOL   C19139755   0.100   2.393   5.626  0.2229 -0.2904 -0.3779
   43MOL   C19239756   0.169   2.279   5.708  0.0607  0.1961 -0.6543
   43MOL   C19339757   0.154   2.149   5.631 -0.5773  0.2966 -0.3651
   43MOL   C19439758   0.187   2.023   5.711 -0.3728 -0.2819  0.2797
   43MOL   C19539759   0.159   1.888   5.641  0.0788  0.4411  0.2474
   43MOL   C19639760   0.233   1.865   5.507 -0.1426  0.6621  0.5313
   43MOL   C19739761   0.206   1.723   5.452  0.3342  0.1219 -0.4235
   43MOL   C19839762   0.276   1.695   5.318  0.5832 -0.0625 -0.3431
   43MOL   C19939763   0.266   1.559   5.258  0.2313  0.2890  0.5080
   43MOL   C20039764   0.317   1.544   5.118 -0.2489  0.1269  0.3841
   43MOL   O20139765   0.248   1.429   5.061 -0.2088  0.1643 -0.6943
   43MOL   C20239766   0.302   1.367   4.954 -0.3907 -0.3430  0.7370
   43MOL   O20339767   0.413   1.399   4.906  0.2438  0.7260  0.1829
   43MOL   C20439768   0.221   1.252   4.898 -0.0894 -0.2247 -0.5650
   43MOL   C20539769   0.266   1.184   4.779  0.4337 -0.1728 -0.5890
   43MOL   C20639770   0.191   1.071   4.739 -0.1552  0.1421  0.4852
   43MOL   C20739771   0.079   1.028   4.807 -0.5223  0.8225  0.6928
   43MOL   C20839772   0.007   0.912   4.755  0.9238 -0.6523  0.1708
   43MOL   O20939773   7.972   0.885   4.633 -0.2887  0.7041 -0.5859
   43MOL   O21039774   7.922   0.843   4.857  0.0654  0.0620  0.2688
   43MOL   C21139775   0.041   1.093   4.921 -0.0288 -0.2480 -0.0283
   43MOL   C21239776   0.104   1.209   4.966  0.3833 -0.5084  0.1740
   43MOL   H21339777   7.971   2.374   5.616  0.4506 -1.4363 -0.7446
   43MOL   H21439778   0.149   2.409   5.531  1.1930  1.1291  0.3495
   43MOL   H21539779   0.112   2.269   5.801  0.1490 -1.5651 -0.7646
   43MOL   H21639780   0.269   2.295   5.747 -0.4144  2.5349 -0.3184
   43MOL   H21739781   0.051   2.150   5.594 -0.4187  0.9826 -0.7984
   43MOL   H21839782   0.226   2.157   5.549  1.8060  0.2333  1.6725
   43MOL   H21939783   0.150   2.045   5.812 -1.0962 -1.1239  0.1975
   43MOL   H22039784   0.295   2.027   5.723 -0.0744  0.2970 -2.3599
   43MOL   H22139785   0.177   1.814   5.719 -2.0292 -0.1711  0.1894
   43MOL   H22239786   0.054   1.890   5.611 -0.1372  1.4031  1.0496
   43MOL   H22339787   0.196   1.935   5.433  2.2780  1.1500 -0.2644
   43MOL   H22439788   0.341   1.874   5.524  0.3450 -0.7389 -1.6718
   43MOL   H22539789   0.242   1.650   5.524  0.7436  1.1429  0.4138
   43MOL   H22639790   0.099   1.703   5.443  0.2287 -0.7354  2.2969
   43MOL   H22739791   0.239   1.768   5.246  1.1024  1.7807  1.2153
   43MOL   H22839792   0.385   1.690   5.326  0.5374  1.1918  1.2488
   43MOL   H22939793   0.158   1.542   5.261  0.3715 -0.6265  0.5064
   43MOL   H23039794   0.307   1.483   5.324  0.1838  1.9624  2.5030
   43MOL   H23139795   0.426   1.546   5.117 -0.1839 -1.9120  1.0647
   43MOL   H23239796   0.287   1.632   5.062 -0.2090 -0.4427 -0.5395
   43MOL   H23339797   0.354   1.220   4.727  0.8542  0.5773  0.6182
   43MOL   H23439798   0.222   1.013   4.653  1.8450  2.5581 -0.4887
   43MOL   H23539799   7.937   1.046   4.973  0.5711 -1.2915 -0.0058
   43MOL   H23639800   0.067   1.260   5.054  1.2564 -0.4853  0.5236
   43MOL   O23739801   7.874   0.714   4.815  0.2298  0.2894 -0.4003
   43MOL   C23839802   7.962   0.615   4.855 -0.5016 -0.3578  0.4598
   43MOL   C23939803   7.890   0.481   4.836  0.2250 -0.2194  0.2264
   43MOL   C24039804   7.855   0.453   4.683 -0.4308  0.5439 -0.1926
   43MOL   C24139805   7.762   0.327   4.659 -0.2845  0.4224 -0.0608
   43MOL   C24239806   7.833   0.191   4.645 -0.1015 -0.5215 -0.2784
   43MOL   C24339807   7.744   0.075   4.637 -0.6016  0.3069  0.0847
   43MOL   C24439808   7.822   7.927   4.593  0.4002 -0.0291 -1.0339
   43MOL   C24539809   7.909   7.857   4.699  0.0425 -0.2241  0.2476
   43MOL   C24639810   0.011   7.733   4.659  0.3273  0.5014 -0.1970
   43MOL   C24739811   0.122   7.695   4.762  0.2071  0.0806 -0.1835
   43MOL   O24839812   0.080   7.658   4.895  0.3141 -0.1798  0.1163
   43MOL   C24939813   7.970   7.560   4.915  0.0617 -0.4245  0.3334
   43MOL   O25039814   7.908   7.497   4.828  0.4009 -0.4118 -0.0348
   43MOL   C25139815   7.957   7.548   5.066  0.1399 -0.2072 -0.2650
   43MOL   C25239816   0.045   7.634   5.159  0.5881 -0.4168  0.4754
   43MOL   C25339817   0.035   7.609   5.299  1.1637 -0.8368  0.4152
   43MOL   C25439818   7.915   7.513   5.345  0.1323 -0.6842  0.6989
   43MOL   C25539819   7.897   7.503   5.492 -0.0760  0.3355  0.1244
   43MOL   O25639820   7.849   7.403   5.546 -0.0339  0.6281  0.3280
   43MOL   O25739821   7.939   7.610   5.557  0.4274 -0.1711 -0.0096
   43MOL   C25839822   7.852   7.431   5.252 -0.0137  0.4287 -0.1264
   43MOL   C25939823   7.871   7.447   5.113 -0.2744 -0.2201  0.1823
   43MOL   H26039824   0.071   0.617   4.789  1.0362 -1.5834  2.4187
   43MOL   H26139825   0.013   0.627   4.959  0.0231  1.9851  0.0761
   43MOL   H26239826   7.797   0.487   4.893  0.3668  0.1561  0.4162
   43MOL   H26339827   7.947   0.405   4.888 -0.1815  1.7720  3.7430
   43MOL   H26439828   7.817   0.542   4.633 -1.3051 -0.8125 -1.9958
   43MOL   H26539829   7.945   0.436   4.625  0.1438 -0.8011  1.0743
   43MOL   H26639830   7.688   0.339   4.579 -0.9724 -0.9595  0.3422
   43MOL   H26739831   7.701   0.324   4.750  1.2388  1.3324  1.0078
   43MOL   H26839832   7.896   0.194   4.556 -2.2056  0.6284 -1.7625
   43MOL   H26939833   7.908   0.186   4.725 -2.0096  2.1219  1.7649
   43MOL   H27039834   7.687   0.066   4.729 -0.2375 -1.1846  0.1790
   43MOL   H27139835   7.664   0.092   4.565 -2.0739  0.2482  1.6817
   43MOL   H27239836   7.746   7.855   4.564  0.6798 -0.5020 -0.5943
   43MOL   H27339837   7.882   7.951   4.505  1.2428  0.0908 -0.4382
   43MOL   H27439838   7.978   7.923   4.752  0.7853 -0.3638 -0.5369
   43MOL   H27539839   7.831   7.823   4.768  0.6403 -1.7035  0.2123
   43MOL   H27639840   0.070   7.754   4.570 -0.8451  2.6748 -0.5105
   43MOL   H27739841   7.920   7.653   4.635 -0.7467  2.2593 -3.2444
   43MOL   H27839842   0.188   7.781   4.754 -0.6083  0.7003 -0.3121
   43MOL   H27939843   0.182   7.609   4.732  1.3052  0.2731  1.3728
   43MOL   H28039844   0.114   7.710   5.126  0.5458 -1.8611 -3.1780
   43MOL   H28139845   0.087   7.673   5.369 -1.0559 -1.5163  2.7486
   43MOL   H28239846   7.798   7.343   5.284  1.3871 -0.4862 -0.2376
   43MOL   H28339847   7.815   7.386   5.044 -2.9271  0.1660  1.8982
   43MOL   O28439848   7.933   7.596   5.707  0.2763  0.6508  0.1568
   43MOL   C28539849   7.808   7.645   5.746  0.3764 -0.5383 -0.5290
   43MOL   C28639850   7.804   7.670   5.892 -0.4703 -0.1134  1.1034
   43MOL   C28739851   7.762   7.556   5.978 -0.0527  0.4786  0.0893
   43MOL   C28839852   7.612   7.529   6.000 -0.0080 -0.2411 -0.3887
   43MOL   C28939853   7.588   7.386   6.051  0.4237  0.2695  0.7549
   43MOL   C29039854   7.444   7.350   6.109  0.3389 -0.1430 -0.2234
   43MOL   C29139855   7.434   7.206   6.146 -0.1968 -0.3558 -0.2033
   43MOL   C29239856   7.292   7.165   6.203  0.0276 -0.0193 -0.1136
   43MOL   C29339857   7.305   7.009   6.237 -0.1425  0.2630 -0.1753
   43MOL   C29439858   7.192   6.939   6.312  0.5434  0.4469  0.3983
   43MOL   O29539859   7.069   6.951   6.246 -0.0690 -0.3089  0.6017
   43MOL   C29639860   6.958   6.993   6.306  0.7892  0.3702 -0.6165
   43MOL   O29739861   6.953   7.026   6.420  0.1738  0.2413 -0.2971
   43MOL   C29839862   6.838   6.987   6.227 -0.0195  1.5046 -0.2082
   43MOL   C29939863   6.828   6.920   6.104  0.0178  0.2713 -0.2052
   43MOL   C30039864   6.706   6.930   6.029  0.5596 -0.0358 -0.3490
   43MOL   C30139865   6.605   7.021   6.076 -0.0193  0.4956  0.5255
   43MOL   C30239866   6.488   7.044   5.994 -0.1632 -0.0201  0.1944
   43MOL   O30339867   6.395   7.115   6.028  0.4968  0.3002  0.1615
   43MOL   O30439868   6.491   6.986   5.871 -0.2856 -0.5995  0.2899
   43MOL   C30539869   6.614   7.078   6.199  0.1930  0.0203  0.7677
   43MOL   C30639870   6.729   7.058   6.279  0.8787  0.9475  0.3593
   43MOL   H30739871   7.790   7.741   5.698  0.9417  0.5008  1.2875
   43MOL   H30839872   7.724   7.592   5.701  0.4226 -1.0023 -0.0797
   43MOL   H30939873   7.727   7.748   5.892  0.4976  0.9222 -1.3440
   43MOL   H31039874   7.899   7.716   5.920  1.5249 -3.0264 -0.6743
   43MOL   H31139875   7.792   7.466   5.925  0.0267 -0.2186  1.2897
   43MOL   H31239876   7.804   7.569   6.078 -0.6013  1.8259  0.1548
   43MOL   H31339877   7.560   7.544   5.905 -2.1110  2.1296  1.0561
   43MOL   H31439878   7.569   7.598   6.072 -1.1345 -0.4562 -0.8509
   43MOL   H31539879   7.597   7.314   5.970 -1.8976 -1.3426  1.8583
   43MOL   H31639880   7.665   7.354   6.122  0.8180  1.3002  0.7888
   43MOL   H31739881   7.439   7.418   6.195 -0.3239  1.0898 -1.2218
   43MOL   H31839882   7.362   7.372   6.040  0.9730 -0.9225 -1.2262
   43MOL   H31939883   7.463   7.134   6.070 -1.7905 -1.5416  0.2856
   43MOL   H32039884   7.509   7.193   6.225 -2.0783 -0.1777  1.6476
   43MOL   H32139885   7.257   7.230   6.283  1.7663  0.7848  0.0256
   43MOL   H32239886   7.216   7.185   6.128 -1.1244  2.6090  1.6749
   43MOL   H32339887   7.399   6.993   6.290  0.1913  2.4649 -0.0253
   43MOL   H32439888   7.319   6.955   6.144 -0.4774 -0.6558  0.3117
   43MOL   H32539889   7.184   6.992   6.407 -1.6480  1.9651 -0.5802
   43MOL   H32639890   7.224   6.837   6.333  3.1392  0.9501 -0.8558
   43MOL   H32739891   6.919   6.874   6.070  0.2500  0.9178 -0.4677
   43MOL   H32839892   6.702   6.879   5.934  4.2292  2.2327 -1.8359
   43MOL   H32939893   6.536   7.146   6.230 -0.6365  0.2916 -1.8299
   43MOL   H33039894   6.724   7.108   6.374 -0.4832 -1.1152  1.3921
   43MOL   O33139895   6.373   7.032   5.783 -0.9707  0.4509 -0.2554
   43MOL   C33239896   6.262   6.944   5.813  0.0656  0.4669  0.1708
   43MOL   C33339897   6.279   6.806   5.737  0.0516  0.1301  0.7813
   43MOL   C33439898   6.291   6.803   5.592 -0.0044 -0.7355 -0.0241
   43MOL   C33539899   6.255   6.672   5.528  0.0940 -0.6968  0.2178
   43MOL   C33639900   6.285   6.663   5.373 -0.1874 -0.2784  0.2270
   43MOL   C33739901   6.250   6.517   5.333 -0.3632 -0.0013  1.0687
   43MOL   C33839902   6.261   6.494   5.180  0.6394 -0.0237 -0.4543
   43MOL   C33939903   6.401   6.514   5.122 -0.7956 -0.3494  0.3390
   43MOL   C34039904   6.398   6.484   4.971 -0.3623  0.4580  0.6812
   43MOL   C34139905   6.537   6.477   4.899  0.3759  0.5904 -0.0665
   43MOL   O34239906   6.612   6.595   4.925 -0.0140  0.4344 -0.2792
   43MOL   C34339907   6.734   6.615   4.882  0.1295 -0.5785  0.8369
   43MOL   O34439908   6.794   6.541   4.803  0.4034 -0.0183  0.8922
   43MOL   C34539909   6.803   6.740   4.936 -0.2107  0.1534  0.1168
   43MOL   C34639910   6.943   6.756   4.912  0.2824  0.8535 -0.4561
   43MOL   C34739911   7.010   6.869   4.964 -0.0953 -0.2470 -0.0597
   43MOL   C34839912   6.935   6.969   5.032 -0.0703  0.0294  0.0572
   43MOL   C34939913   7.009   7.097   5.064 -0.0645 -0.3829 -0.2153
   43MOL   O35039914   7.127   7.124   5.048 -0.6298 -0.0876 -0.0456
   43MOL   O35139915   6.932   7.188   5.131  0.0146 -0.9068 -0.0411
   43MOL   C35239916   6.795   6.950   5.052  0.5583  0.1033  0.2322
   43MOL   C35339917   6.729   6.841   5.004  0.4801  0.2860  0.5425
   43MOL   H35439918   6.245   6.931   5.920 -5.0595 -1.4305 -0.7777
   43MOL   H35539919   6.171   6.991   5.778 -0.5196 -0.6753  0.1459
   43MOL   H35639920   6.183   6.759   5.757  0.1434 -0.8209 -0.9191
   43MOL   H35739921   6.354   6.743   5.783  2.5194  1.7459 -0.9270
   43MOL   H35839922   6.234   6.887   5.551 -1.7702 -1.7739  0.2441
   43MOL   H35939923   6.391   6.839   5.569  0.2358 -1.4769 -0.1490
   43MOL   H36039924   6.146   6.676   5.532  0.1931  1.5282  1.7218
   43MOL   H36139925   6.288   6.579   5.576 -1.6213 -1.6593 -0.4086
   43MOL   H36239926   6.230   6.732   5.309 -0.6933 -0.2390  0.6953
   43MOL   H36339927   6.388   6.696   5.366 -0.2867 -0.4302 -2.2820
   43MOL   H36439928   6.325   6.445   5.366  0.7830  0.4476 -0.5153
   43MOL   H36539929   6.149   6.494   5.368 -0.5489  0.2682  0.7050
   43MOL   H36639930   6.228   6.392   5.160  0.9954 -0.2834  0.2635
   43MOL   H36739931   6.182   6.550   5.131  0.2577  0.0540  0.2311
   43MOL   H36839932   6.448   6.611   5.141 -1.2982  0.1992 -1.1209
   43MOL   H36939933   6.470   6.451   5.177 -0.5655 -0.4170 -0.0211
   43MOL   H37039934   6.327   6.555   4.931 -1.3749 -0.6393  0.5054
   43MOL   H37139935   6.354   6.390   4.939  0.9396  0.3518 -0.8735
   43MOL   H37239936   6.520   6.471   4.791  1.4554 -1.4387 -0.1463
   43MOL   H37339937   6.590   6.386   4.926  0.5927 -0.1090 -2.6706
   43MOL   H37439938   6.993   6.671   4.868 -0.7686  0.3323 -0.6642
   43MOL   H37539939   7.113   6.880   4.936 -0.5180  0.0848 -1.5469
   43MOL   H37639940   6.740   7.021   5.111  0.9060 -0.6821  1.5081
   43MOL   H37739941   6.624   6.840   5.030  0.3586  1.8006  0.1153
   43MOL   O37839942   6.994   7.326   5.143 -0.0840 -0.4128  0.1196
   43MOL   C37939943   7.045   7.330   5.273  0.2240 -0.2059 -0.3427
   43MOL   C38039944   6.940   7.342   5.380 -0.8666 -0.0427 -0.3093
   43MOL   C38139945   6.874   7.480   5.402 -0.1702  0.3626 -0.1737
   43MOL   C38239946   6.760   7.502   5.306  0.3249  0.1361  0.0756
   43MOL   C38339947   6.684   7.633   5.346 -0.1250 -0.4009  0.0510
   43MOL   C38439948   6.581   7.677   5.237 -0.2914 -0.3502  0.3869
   43MOL   C38539949   6.469   7.574   5.210 -0.7059  0.1879 -0.1762
   43MOL   C38639950   6.380   7.611   5.095  0.4096 -0.1644 -0.2137
   43MOL   C38739951   6.264   7.518   5.067  0.0096 -0.1879  0.0054
   43MOL   C38839952   6.170   7.560   4.957 -0.1638  0.2899 -0.9599
   43MOL   O38939953   6.083   7.450   4.917  0.2063 -0.1510  0.1827
   43MOL   C39039954   6.105   7.367   4.813 -0.3750  0.4713 -0.2954
   43MOL   O39139955   6.200   7.367   4.734 -0.1776 -0.1710 -0.2142
   43MOL   C39239956   6.002   7.270   4.795  0.2728  0.7567  0.4088
   43MOL   C39339957   6.035   7.156   4.719 -0.2442 -0.3438  0.1160
   43MOL   C39439958   5.952   7.049   4.696 -0.2126 -1.0374 -0.2680
   43MOL   C39539959   5.820   7.044   4.751  0.1489 -0.1478 -0.2532
   43MOL   C39639960   5.737   6.931   4.717 -0.2133 -0.0177  0.3008
   43MOL   O39739961   5.633   6.894   4.777  0.0903  1.0250  0.1472
   43MOL   O39839962   5.778   6.861   4.607  0.2236  0.9954  0.0940
   43MOL   C39939963   5.778   7.158   4.823 -0.5011 -0.4436 -0.7861
   43MOL   C40039964   5.866   7.264   4.845  0.1229 -0.0204 -0.4484
   43MOL   H40139965   7.113   7.247   5.291 -0.4778 -0.4984  0.9814
   43MOL   H40239966   7.098   7.425   5.279 -0.3973  0.2451 -1.7565
   43MOL   H40339967   6.990   7.319   5.474 -2.7921  2.9415  1.5477
   43MOL   H40439968   6.870   7.259   5.365  2.5398 -2.7807 -1.5976
   43MOL   H40539969   6.829   7.490   5.500 -0.0474  0.4226 -0.1231
   43MOL   H40639970   6.958   7.549   5.394  0.6223 -0.4542  0.9858
   43MOL   H40739971   6.693   7.416   5.296 -0.1984  0.8629 -3.2140
   43MOL   H40839972   6.799   7.505   5.205  1.4749  0.4857  0.5244
   43MOL   H40939973   6.633   7.602   5.437 -0.9654 -0.8656 -0.5603
   43MOL   H41039974   6.760   7.708   5.367 -0.2416 -0.2722  0.0133
   43MOL   H41139975   6.538   7.771   5.271  0.3461  0.2631 -0.4674
   43MOL   H41239976   6.640   7.696   5.147 -1.2633 -3.8291 -1.0847
   43MOL   H41339977   6.513   7.478   5.182  0.3632  0.6110  0.0443
   43MOL   H41439978   6.414   7.567   5.304 -2.1459  2.8304 -0.7789
   43MOL   H41539979   6.339   7.711   5.108  1.5719  0.3568 -0.4847
   43MOL   H41639980   6.433   7.631   5.002 -0.4665  0.5540 -0.5615
   43MOL   H41739981   6.214   7.492   5.161 -1.5140 -3.9780 -1.7340
   43MOL   H41839982   6.315   7.424   5.044 -0.6800 -0.1710 -1.6619
   43MOL   H41939983   6.244   7.578   4.879  0.6978  3.3099  0.4960
   43MOL   H42039984   6.114   7.649   4.985  1.9215  1.9756 -1.9383
   43MOL   H42139985   6.136   7.151   4.681  0.9641  0.5227  3.1111
   43MOL   H42239986   5.991   6.971   4.633  0.8205  0.2871 -1.3193
   43MOL   H42339987   5.680   7.166   4.869 -0.6981 -0.5049 -1.1887
   43MOL   H42439988   5.846   7.345   4.912 -0.4925  1.6468 -2.5847
   43MOL   O42539989   5.739   6.720   4.602 -0.3560  0.1171  0.2998
   43MOL   C42639990   5.612   6.708   4.531 -0.6582 -0.3557  0.5192
   43MOL   C42739991   5.640   6.713   4.378 -1.1670  0.3085  0.0802
   43MOL   C42839992   5.507   6.681   4.300 -0.2482  0.6354 -0.4267
   43MOL   C42939993   5.534   6.608   4.170  0.0649 -0.1458 -0.0654
   43MOL   C43039994   5.407   6.595   4.088  0.5980  0.1498 -0.2150
   43MOL   C43139995   5.423   6.531   3.950  0.1435 -0.2561 -0.5626
   43MOL   C43239996   5.291   6.518   3.867 -0.2370  0.5353 -0.1356
   43MOL   C43339997   5.318   6.431   3.739  0.6573  0.0216  0.1113
   43MOL   C43439998   5.413   6.480   3.625  0.3096  0.3797 -0.1654
   43MOL   C43539999   5.447   6.360   3.539 -0.2037 -0.5133 -0.5778
   43MOL   O43640000   5.525   6.401   3.425 -0.1521  0.0305 -0.3640
   43MOL   C43740001   5.460   6.451   3.315 -0.2843  0.2879  0.2144
   43MOL   O43840002   5.342   6.477   3.321 -0.0488 -1.1685  0.0612
   43MOL   C43940003   5.542   6.480   3.190 -0.2706  0.2056  0.3791
   43MOL   C44040004   5.483   6.560   3.087 -0.5842 -0.4423 -0.4614
   43MOL   C44140005   5.554   6.587   2.971 -0.0970 -0.1267  0.4909
   43MOL   C44240006   5.691   6.570   2.958  0.3200  0.7303 -0.5188
   43MOL   C44340007   5.771   6.641   2.848 -0.5747 -0.2849 -1.3251
   43MOL   O44440008   5.880   6.600   2.809  0.8404 -0.2096 -0.5509
   43MOL   O44540009   5.711   6.753   2.788 -0.2142 -0.3446  0.2733
   43MOL   C44640010   5.752   6.493   3.059 -0.6868 -0.5734 -0.5471
   43MOL   C44740011   5.679   6.441   3.170  0.3564 -0.5139  0.1016
   43MOL   H44840012   5.581   6.608   4.561 -0.4171 -0.3496  0.7852
   43MOL   H44940013   5.534   6.778   4.562  0.8425  1.2561  0.6716
   43MOL   H45040014   5.712   6.638   4.345 -1.9586  0.0836 -1.1853
   43MOL   H45140015   5.686   6.808   4.353  0.6977 -0.9075 -1.2144
   43MOL   H45240016   5.441   6.616   4.357 -0.6395  2.3406  1.0996
   43MOL   H45340017   5.458   6.778   4.289  0.9671  1.2994 -0.1066
   43MOL   H45440018   5.594   6.517   4.179 -1.1036 -0.7658  1.6422
   43MOL   H45540019   5.600   6.675   4.114 -0.6046  0.1330 -0.5228
   43MOL   H45640020   5.323   6.545   4.136  0.1722 -0.6094 -1.7236
   43MOL   H45740021   5.373   6.698   4.075 -3.9843 -1.2767 -0.4454
   43MOL   H45840022   5.494   6.595   3.898  0.6877 -0.4493 -0.0600
   43MOL   H45940023   5.480   6.439   3.958 -1.9927 -1.4842  1.1079
   43MOL   H46040024   5.218   6.460   3.923  0.8262 -0.9431 -0.2470
   43MOL   H46140025   5.254   6.617   3.841  2.4562  1.3320 -1.0337
   43MOL   H46240026   5.342   6.328   3.766  0.0327  0.5210  2.7146
   43MOL   H46340027   5.223   6.425   3.687  0.6340 -1.3873  0.2973
   43MOL   H46440028   5.510   6.512   3.662 -0.3648  1.2423  0.8901
   43MOL   H46540029   5.374   6.561   3.563  0.1237 -0.0052 -0.5520
   43MOL   H46640030   5.351   6.319   3.506 -0.5088  1.0489 -1.7146
   43MOL   H46740031   5.497   6.288   3.602 -1.2098 -0.4260  0.3366
   43MOL   H46840032   5.380   6.593   3.098 -0.3320  0.3586 -0.4888
   43MOL   H46940033   5.497   6.650   2.903 -1.9097 -0.3755  1.7416
   43MOL   H47040034   5.858   6.475   3.048 -0.8094 -0.4174 -2.1439
   43MOL   H47140035   5.736   6.380   3.238  1.3135  0.7139  0.4260
   43MOL   O47240036   5.796   6.817   2.682 -0.0240  0.2350 -0.3727
   43MOL   C47340037   5.864   6.931   2.744 -0.3275  0.1399  0.1430
   43MOL   C47440038   5.928   7.024   2.632 -0.3820 -0.0073 -0.1062
   43MOL   C47540039   6.006   7.145   2.675 -0.0578  0.4683 -0.7495
   43MOL   C47640040   6.160   7.145   2.672  0.1563 -0.6730 -0.1930
   43MOL   C47740041   6.234   7.078   2.793 -0.2190 -0.7932  0.5261
   43MOL   C47840042   6.275   7.178   2.902  0.0485  0.1643  0.7299
   43MOL   C47940043   6.338   7.116   3.024 -0.5500 -0.7606 -0.0044
   43MOL   C48040044   6.236   7.096   3.141 -0.7537 -0.0705 -0.1670
   43MOL   C48140045   6.282   6.994   3.248 -0.2581  0.3356 -0.4561
   43MOL   C48240046   6.171   6.948   3.350 -0.4013  0.8095  0.0695
   43MOL   O48340047   6.149   7.048   3.453  0.0426  0.1567  0.3394
   43MOL   C48440048   6.059   7.025   3.547 -0.1402 -0.0366 -0.0754
   43MOL   O48540049   5.994   6.921   3.548 -0.7003  0.1203  0.3837
   43MOL   C48640050   6.055   7.132   3.649  0.1631  0.1542  0.6736
   43MOL   C48740051   6.132   7.250   3.631 -0.3990  0.3582  0.0779
   43MOL   C48840052   6.130   7.352   3.727  0.2882  0.2152  0.1483
   43MOL   C48940053   6.047   7.343   3.844 -0.1845 -0.1885  0.3046
   43MOL   C49040054   6.041   7.457   3.941  0.2162 -0.1752  0.1519
   43MOL   O49140055   5.991   7.456   4.053 -0.0826  0.1440  0.0073
   43MOL   O49240056   6.103   7.570   3.900  0.0776  0.1461 -0.1251
   43MOL   C49340057   5.972   7.229   3.861 -0.1524 -0.0558 -0.4533
   43MOL   C49440058   5.970   7.124   3.765 -0.1040  0.0607 -0.2005
   43MOL   H49540059   5.791   6.987   2.802 -2.0874 -1.9361 -0.0026
   43MOL   H49640060   5.937   6.885   2.810  1.0362  2.5106  0.3516
   43MOL   H49740061   5.845   7.072   2.580 -1.0427 -0.2940  0.6744
   43MOL   H49840062   5.982   6.970   2.554 -1.0815 -0.4403 -0.3052
   43MOL   H49940063   5.979   7.230   2.612 -0.8892  1.4129  0.8608
   43MOL   H50040064   5.984   7.172   2.778  0.9211 -1.9286  0.1335
   43MOL   H50140065   6.200   7.247   2.670  1.2023 -1.0882 -0.6396
   43MOL   H50240066   6.196   7.087   2.587 -0.9515 -0.5761 -0.7327
   43MOL   H50340067   6.181   6.991   2.831  2.6089 -2.2604  1.2646
   43MOL   H50440068   6.326   7.037   2.752  0.7089  1.4451  0.2984
   43MOL   H50540069   6.342   7.254   2.862 -0.4657 -0.4634 -1.4116
   43MOL   H50640070   6.185   7.231   2.932 -0.3368 -1.1357  1.9435
   43MOL   H50740071   6.389   7.023   2.997  1.3240  0.0073  0.7429
   43MOL   H50840072   6.419   7.185   3.050 -0.1201 -1.1712 -0.2388
   43MOL   H50940073   6.218   7.194   3.185  0.0807 -0.3768  0.8575
   43MOL   H51040074   6.142   7.068   3.094 -0.3857  1.6422 -2.0263
   43MOL   H51140075   6.366   7.033   3.304  0.1701 -1.9156  0.5091
   43MOL   H51240076   6.312   6.901   3.201 -1.2136 -0.7862  1.1384
   43MOL   H51340077   6.207   6.854   3.390 -2.3452  0.3803  0.8834
   43MOL   H51440078   6.073   6.927   3.306 -0.0240  1.7352 -1.2723
   43MOL   H51540079   6.193   7.269   3.544 -1.2733  2.8260 -0.0472
   43MOL   H51640080   6.194   7.436   3.709  1.5653 -0.8711 -0.4737
   43MOL   H51740081   5.903   7.232   3.944  0.9605  2.9761  0.4024
   43MOL   H51840082   5.906   7.038   3.783 -1.0076  0.8922  0.5912
   43MOL   O51940083   6.091   7.689   3.999  0.0094  0.0854  0.1291
   43MOL   C52040084   5.983   7.767   3.976 -0.1116 -0.1732  0.3671
   43MOL   C52140085   6.037   7.899   3.923  0.0339  0.2316 -0.4775
   43MOL   C52240086   5.927   0.028   3.930  0.7476  0.1409 -0.4636
   43MOL   C52340087   5.964   0.174   3.911 -0.8757 -0.5455 -0.5659
   43MOL   C52440088   6.009   0.204   3.770 -0.4051 -0.7122 -0.3278
   43MOL   C52540089   5.897   0.211   3.664  0.0137 -0.0305  0.1129
   43MOL   C52640090   5.947   0.231   3.521  0.1010  0.1453  0.0337
   43MOL   C52740091   6.007   0.364   3.496  0.4086 -0.5664 -0.0571
   43MOL   C52840092   5.907   0.479   3.524 -0.0510 -0.1405 -0.3646
   43MOL   C52940093   5.969   0.620   3.503  1.1199 -0.1517  0.2250
   43MOL   O53040094   6.097   0.630   3.561  0.3531 -0.3089 -0.1461
   43MOL   C53140095   6.123   0.740   3.638 -0.0368 -0.1655  0.0860
   43MOL   O53240096   6.042   0.831   3.649  0.1658  0.0454  0.1930
   43MOL   C53340097   6.265   0.740   3.693 -0.7603 -0.0717  0.1865
   43MOL   C53440098   6.295   0.822   3.800 -0.2789 -0.1960  0.7154
   43MOL   C53540099   6.424   0.827   3.860  0.1861  0.1620 -1.0013
   43MOL   C53640100   6.533   0.751   3.808 -0.4368  0.0074 -0.6902
   43MOL   C53740101   6.671   0.769   3.848  0.7273  0.4683  0.6320
   43MOL   O53840102   6.771   0.718   3.795  0.6821 -0.5665  0.5657
   43MOL   O53940103   6.682   0.860   3.946  0.1357  0.0599  0.6147
   43MOL   C54040104   6.500   0.658   3.709 -0.3920 -0.3190  0.1608
   43MOL   C54140105   6.371   0.650   3.654  0.4065  0.4046  0.4684
   43MOL   H54240106   5.909   7.736   3.902 -1.0723  0.5381  1.0264
   43MOL   H54340107   5.940   7.786   4.074 -1.7801  0.1575 -0.4130
   43MOL   H54440108   6.076   7.873   3.825  1.5760  1.5022 -0.2201
   43MOL   H54540109   6.126   7.938   3.972 -1.2870  2.8750 -0.0886
   43MOL   H54640110   5.846   7.972   3.865  1.0718 -0.3699 -0.6011
   43MOL   H54740111   5.872   0.019   4.024  1.3860 -0.5924 -0.1545
   43MOL   H54840112   6.052   0.186   3.975 -0.1468 -1.2055 -1.4288
   43MOL   H54940113   5.897   0.254   3.944  0.7594  0.4842  0.3674
   43MOL   H55040114   6.073   0.291   3.780  0.1314 -1.2367  0.9189
   43MOL   H55140115   6.080   0.128   3.736  0.8375  0.6533 -0.8289
   43MOL   H55240116   5.846   0.114   3.664 -0.5159  0.2492  0.1467
   43MOL   H55340117   5.820   0.279   3.700  0.4988  1.6952 -2.0165
   43MOL   H55440118   6.018   0.154   3.492 -0.2990  0.3786 -1.6045
   43MOL   H55540119   5.864   0.226   3.451 -0.9394 -1.5417  1.3693
   43MOL   H55640120   6.095   0.367   3.560  0.4681 -0.4401 -0.1450
   43MOL   H55740121   6.051   0.369   3.397 -1.9225  1.1166 -1.0752
   43MOL   H55840122   5.878   0.480   3.629  1.4394  0.2495  0.0494
   43MOL   H55940123   5.821   0.475   3.457  0.4436 -1.0704 -0.9527
   43MOL   H56040124   5.897   0.696   3.534 -1.2476 -0.0945 -4.8645
   43MOL   H56140125   5.997   0.634   3.399 -1.2135 -0.4203 -0.4743
   43MOL   H56240126   6.221   0.889   3.841  1.1775  2.1494 -0.3797
   43MOL   H56340127   6.437   0.891   3.946  1.1042 -0.0853 -0.9537
   43MOL   H56440128   6.574   0.588   3.673 -1.2644 -1.7852  1.1660
   43MOL   H56540129   6.346   0.582   3.573  1.2683 -1.1123  1.4561
   43MOL   O56640130   6.818   0.899   3.979  0.5602  0.0346  0.4135
   43MOL   C56740131   6.878   0.800   4.065 -0.1617 -0.5305  0.2320
   43MOL   C56840132   6.991   0.868   4.143  0.0766  0.0267 -0.2060
   43MOL   C56940133   7.071   0.770   4.227  0.3980 -0.2941 -0.4260
   43MOL   C57040134   7.176   0.842   4.318 -0.4697 -0.0847  0.4800
   43MOL   C57140135   7.245   0.735   4.387  0.7842  0.3469 -0.5426
   43MOL   C57240136   7.325   0.787   4.496  0.5544 -0.2922  0.1016
   43MOL   C57340137   7.427   0.685   4.548  0.6061  0.2833 -0.0282
   43MOL   C57440138   7.527   0.740   4.646  0.3189 -0.4478 -0.0053
   43MOL   C57540139   7.637   0.834   4.575  0.3668  0.2718  0.4871
   43MOL   C57640140   7.630   0.980   4.623  0.0236  0.0709 -0.8520
   43MOL   O57740141   7.661   0.993   4.763 -0.4420  0.2912  0.3028
   43MOL   C57840142   7.648   1.105   4.827  0.3523 -0.1768 -0.5966
   43MOL   O57940143   7.632   1.213   4.772 -0.1557  0.1744 -0.6675
   43MOL   C58040144   7.659   1.079   4.975 -0.6123 -0.2821 -0.7719
   43MOL   C58140145   7.672   1.191   5.063  0.5606 -0.2926  0.2782
   43MOL   C58240146   7.713   1.180   5.199  0.0612 -0.7810 -0.2820
   43MOL   C58340147   7.738   1.045   5.250  0.0720 -0.2232 -0.1659
   43MOL   C58440148   7.783   1.031   5.393  0.4403  0.6130  0.3334
   43MOL   O58540149   7.791   1.128   5.468  0.1489 -0.4906 -0.7275
   43MOL   O58640150   7.817   0.906   5.428 -0.1633  0.2158  0.0498
   43MOL   C58740151   7.727   0.936   5.163 -0.1301  0.1701  0.0295
   43MOL   C58840152   7.679   0.951   5.033 -0.1261 -0.6063  0.5968
   43MOL   H58940153   6.800   0.757   4.128  0.2816 -1.1108  0.3876
   43MOL   H59040154   6.927   0.722   4.007  0.7504  0.6267 -0.5781
   43MOL   H59140155   6.952   0.943   4.211 -0.0466 -0.0240 -0.2212
   43MOL   H59240156   7.066   0.913   4.078 -0.6360  1.5000 -0.0139
   43MOL   H59340157   7.008   0.704   4.286  0.5952 -0.0523  0.0647
   43MOL   H59440158   7.134   0.697   4.176 -0.1571 -1.1806  0.1477
   43MOL   H59540159   7.118   0.917   4.371 -1.9952  0.3454 -1.7189
   43MOL   H59640160   7.242   0.895   4.249 -0.0316  1.7225  2.2453
   43MOL   H59740161   7.175   0.657   4.420  2.2198 -0.0008  1.7566
   43MOL   H59840162   7.312   0.680   4.320 -0.4831 -1.1764 -0.5993
   43MOL   H59940163   7.377   0.874   4.456  1.9349 -0.5047  1.3837
   43MOL   H60040164   7.257   0.819   4.576 -1.2155 -1.1073 -1.0399
   43MOL   H60140165   7.370   0.608   4.601 -0.8885  1.0283 -0.5326
   43MOL   H60240166   7.470   0.630   4.464  0.5847 -0.6529  0.5626
   43MOL   H60340167   7.479   0.806   4.718  1.6298  0.1774  0.3207
   43MOL   H60440168   7.572   0.668   4.714  0.3849 -0.1453  0.2724
   43MOL   H60540169   7.611   0.830   4.469  0.8193 -0.5042  0.4049
   43MOL   H60640170   7.742   0.806   4.579  0.2647 -0.1451  0.2656
   43MOL   H60740171   7.528   1.014   4.604 -1.0024 -1.1557  2.1070
   43MOL   H60840172   7.688   1.045   4.558  0.3429 -0.0932 -0.7317
   43MOL   H60940173   7.663   1.287   5.014  0.8885 -0.7562 -0.7048
   43MOL   H61040174   7.732   1.270   5.255  0.7284 -1.8316  1.2119
   43MOL   H61140175   7.739   0.840   5.211 -0.7223 -0.6959 -1.5433
   43MOL   H61240176   7.673   0.860   4.976  0.0459  0.0476 -0.4909
   43MOL   O61340177   7.833   0.870   5.573  0.6428 -0.1061 -0.0522
   43MOL   C61440178   7.971   0.864   5.604 -0.1542  0.4518 -0.2394
   43MOL   C61540179   0.003   0.815   5.752  0.3744  0.5748  0.2797
   43MOL   C61640180   7.977   0.661   5.777  0.2567 -0.1107  0.3934
   43MOL   C61740181   7.943   0.619   5.925  0.8287 -0.5875 -0.1392
   43MOL   C61840182   0.087   0.641   6.016 -0.3044 -0.3494 -0.0562
   43MOL   C61940183   0.056   0.620   6.163 -0.2741  0.0784 -0.7021
   43MOL   C62040184   7.923   0.510   6.191 -0.5249 -0.7242  0.5976
   43MOL   C62140185   7.937   0.454   6.328 -0.3660  0.3934  0.7419
   43MOL   C62240186   7.840   0.333   6.359 -0.0086  0.0665 -0.5901
   43MOL   C62340187   7.843   0.283   6.507 -0.0962 -0.1659 -0.2145
   43MOL   O62440188   7.945   0.186   6.526 -0.2404 -0.1506 -0.2906
   43MOL   C62540189   7.960   0.128   6.647 -0.4394  0.4415 -0.2827
   43MOL   O62640190   7.884   0.140   6.742 -0.1147  0.3275 -0.1471
   43MOL   C62740191   0.106   0.035   6.651 -1.0652  0.3683 -0.3010
   43MOL   C62840192   0.180   7.971   6.535 -0.3817 -0.2961 -0.0497
   43MOL   C62940193   0.295   7.895   6.553  0.1338  0.2213 -0.4664
   43MOL   C63040194   0.354   7.878   6.683 -0.8577 -0.2668  0.2743
   43MOL   C63140195   0.481   7.814   6.704 -0.4504  0.2737  0.0256
   43MOL   O63240196   0.531   7.803   6.816  0.4704  0.0158  0.4081
   43MOL   O63340197   0.531   7.748   6.594 -0.0261  0.5387 -0.1463
   43MOL   C63440198   0.277   7.910   6.798  0.4797  0.1618 -0.3061
   43MOL   C63540199   0.161   0.005   6.781  0.5344 -0.4262 -0.3355
   43MOL   H63640200   0.044   0.795   5.537 -1.6337  0.5171 -1.4791
   43MOL   H63740201   0.047   0.957   5.587 -0.9250  0.6563 -1.6986
   43MOL   H63840202   7.902   0.861   5.812 -0.1202  0.0528  0.0316
   43MOL   H63940203   0.091   0.852   5.804  1.0522 -0.4724 -0.0967
   43MOL   H64040204   7.905   0.612   5.712  0.7958 -0.2377 -0.1109
   43MOL   H64140205   0.098   0.620   5.758  0.2507  0.5701 -1.1543
   43MOL   H64240206   7.936   0.510   5.918  0.5600 -0.4815 -1.8936
   43MOL   H64340207   7.856   0.674   5.960  0.0319 -1.2241 -1.0832
   43MOL   H64440208   0.161   0.567   5.987  1.9645  1.1711  1.7283
   43MOL   H64540209   0.141   0.735   6.001 -1.3819  0.9228  3.4992
   43MOL   H64640210   0.153   0.599   6.208 -0.1568  1.0753 -0.4752
   43MOL   H64740211   0.024   0.711   6.214  3.0429  1.4572 -0.9719
   43MOL   H64840212   7.825   0.546   6.159 -0.1764  0.6149  0.9721
   43MOL   H64940213   7.936   0.425   6.125  0.4349  0.0008 -0.1778
   43MOL   H65040214   0.061   0.419   6.342 -0.4199 -0.3631 -0.6963
   43MOL   H65140215   7.928   0.530   6.405 -1.2967 -0.7330  1.7725
   43MOL   H65240216   7.870   0.245   6.302  2.0476 -1.8853  3.2486
   43MOL   H65340217   7.737   0.365   6.343  0.0152 -0.3558 -1.6112
   43MOL   H65440218   7.744   0.246   6.531 -0.8992 -0.2348 -3.4630
   43MOL   H65540219   7.864   0.369   6.571  0.1070  1.6501 -2.6419
   43MOL   H65640220   0.136   0.002   6.437  0.7043  1.6847 -0.3687
   43MOL   H65740221   0.344   7.856   6.465 -0.7541  0.3763 -1.0427
   43MOL   H65840222   0.315   7.890   6.897  0.0398  0.7125 -0.0239
   43MOL   H65940223   0.109   0.036   6.871  0.5172 -0.4503 -0.3366
   43MOL   O66040224   0.617   7.634   6.641  0.3253  0.6661  0.0618
   43MOL   C66140225   0.749   7.659   6.613 -0.8402  0.0094  0.2473
   43MOL   C66240226   0.843   7.552   6.658  0.9311 -0.2762 -0.4713
   43MOL   C66340227   0.800   7.402   6.609 -1.0500  0.0219  0.8275
   43MOL   C66440228   0.900   7.287   6.652 -0.1692  0.4767  0.1889
   43MOL   C66540229   0.852   7.151   6.594  0.7954 -0.5796  0.5182
   43MOL   C66640230   0.929   7.026   6.645 -0.1918  0.3700 -0.9176
   43MOL   C66740231   0.884   6.888   6.596  0.3829  0.0873  0.4213
   43MOL   C66840232   0.984   6.776   6.629  0.2482  0.4491  0.1169
   43MOL   C66940233   1.128   6.794   6.567  0.0649 -0.1024 -0.1117
   43MOL   C67040234   1.137   6.809   6.415  0.5970  0.2391 -0.0854
   43MOL   O67140235   1.125   6.950   6.380  0.4988  0.2624 -0.2283
   43MOL   C67240236   1.152   6.995   6.256 -0.1985  0.4695 -0.0202
   43MOL   O67340237   1.194   6.919   6.169 -0.7860 -0.5923  0.0936
   43MOL   C67440238   1.120   7.140   6.239 -0.0512  0.1117  0.4356
   43MOL   C67540239   1.082   7.231   6.337 -0.0374  0.6378 -0.0345
   43MOL   C67640240   1.079   7.367   6.308 -0.5799 -0.2325  0.2303
   43MOL   C67740241   1.110   7.424   6.182  0.6971  0.4088  0.1944
   43MOL   C67840242   1.108   7.573   6.158  0.5064  0.8837 -0.0210
   43MOL   O67940243   1.067   7.655   6.239  0.6153  0.1139  0.2774
   43MOL   O68040244   1.136   7.611   6.029  0.4274 -0.0011  0.0093
   43MOL   C68140245   1.143   7.331   6.080 -0.4805 -0.2267 -0.0424
   43MOL   C68240246   1.150   7.195   6.111 -0.8435 -0.3665 -0.1726
   43MOL   H68340247   0.764   7.685   6.508  0.3731  1.2532  0.7175
   43MOL   H68440248   0.780   7.745   6.672 -1.8625 -0.8021  2.0133
   43MOL   H68540249   0.845   7.548   6.767 -1.0735 -3.3683 -0.4891
   43MOL   H68640250   0.943   7.577   6.624  0.3273  2.5470 -0.2757
   43MOL   H68740251   0.699   7.379   6.643 -1.3015 -0.2481 -0.0954
   43MOL   H68840252   0.794   7.408   6.501  1.8256  1.8688  0.7119
   43MOL   H68940253   0.912   7.293   6.760 -2.4171 -0.4943  0.5080
   43MOL   H69040254   1.000   7.299   6.608  0.0424 -2.4161 -0.2258
   43MOL   H69140255   0.751   7.130   6.629 -0.3357  2.2155 -0.8753
   43MOL   H69240256   0.851   7.159   6.485  2.1562  0.8219  0.5870
   43MOL   H69340257   1.033   7.041   6.616  0.2428 -0.0259  0.3958
   43MOL   H69440258   0.932   7.021   6.754  0.7012  1.8692 -0.8519
   43MOL   H69540259   0.792   6.868   6.650 -0.2976 -0.8264 -1.0274
   43MOL   H69640260   0.853   6.884   6.491 -1.9045 -2.5202  1.1328
   43MOL   H69740261   0.994   6.769   6.737  0.5571  0.1416  0.0677
   43MOL   H69840262   0.937   6.685   6.591 -0.8769  1.1634 -0.2315
   43MOL   H69940263   1.186   6.710   6.605  1.5789  0.0846 -1.9486
   43MOL   H70040264   1.184   6.881   6.603  0.3816 -0.3686  0.0466
   43MOL   H70140265   1.065   6.747   6.362  0.2170 -1.3182  2.1540
   43MOL   H70240266   1.240   6.791   6.385  1.3795  0.1952  2.4631
   43MOL   H70340267   1.050   7.193   6.433  0.7887 -0.4738 -0.1858
   43MOL   H70440268   1.049   7.436   6.386  0.4139 -0.5193  0.8651
   43MOL   H70540269   1.153   7.372   5.980 -1.9948 -1.7371 -0.8246
   43MOL   H70640270   1.178   7.128   6.030 -1.3782 -0.6573 -0.1201
   43MOL   O70740271   1.111   7.760   6.005  0.3933  0.0636  0.4423
   43MOL   C70840272   1.015   7.770   5.899  0.1330 -0.1213 -0.1139
   43MOL   C70940273   0.994   7.918   5.889  0.0191 -0.2389  0.1022
   43MOL   C71040274   0.888   0.011   5.974 -0.6725 -0.0972  0.4298
   43MOL   C71140275   0.910   0.162   5.983 -0.3236 -0.1542 -0.3485
   43MOL   C71240276   0.803   0.247   6.045  0.8014 -0.1646 -0.5492
   43MOL   C71340277   0.782   0.388   5.984  0.4044 -0.9719 -0.1524
   43MOL   C71440278   0.910   0.473   5.990 -0.0591  0.6559  0.3950
   43MOL   C71540279   0.964   0.516   6.126 -0.3980 -0.2314  0.4531
   43MOL   C71640280   0.874   0.626   6.188  0.3612 -0.1260 -0.0672
   43MOL   C71740281   0.923   0.672   6.327 -0.1288 -0.2270 -0.0698
   43MOL   O71840282   0.850   0.782   6.380 -0.3470  0.5500  0.0899
   43MOL   C71940283   0.792   0.785   6.497  0.9722  0.0971  0.4442
   43MOL   O72040284   0.789   0.682   6.566 -0.4713  0.3448 -0.6875
   43MOL   C72140285   0.726   0.919   6.526  0.0175 -0.1047 -0.4050
   43MOL   C72240286   0.703   1.019   6.434 -0.0874  0.0644  0.7802
   43MOL   C72340287   0.645   1.146   6.467 -0.7450  0.1453  0.2292
   43MOL   C72440288   0.619   1.177   6.601  0.2694  1.1972  0.2534
   43MOL   C72540289   0.540   1.296   6.647 -0.1515 -0.0877 -0.4091
   43MOL   O72640290   0.508   1.393   6.576  0.8544 -0.0438  0.3847
   43MOL   O72740291   0.508   1.284   6.773  0.2115  0.0229 -0.3488
   43MOL   C72840292   0.633   1.068   6.694  0.0814 -1.4466 -0.7705
   43MOL   C72940293   0.680   0.943   6.655 -0.2912  0.6743  0.1077
   43MOL   H73040294   1.062   7.720   5.814  2.3181  1.4846  0.1132
   43MOL   H73140295   0.923   7.714   5.917  0.4774 -0.4763  0.6060
   43MOL   H73240296   0.955   7.946   5.792  0.1762  1.7829  0.6095
   43MOL   H73340297   1.095   7.960   5.895 -0.3859  0.5503  1.5783
   43MOL   H73440298   0.788   0.003   5.933  0.2096  1.6786 -2.2353
   43MOL   H73540299   0.889   7.944   6.073  0.6744 -3.5468 -1.0810
   43MOL   H73640300   0.925   0.187   5.878  0.6137 -1.7447 -0.6027
   43MOL   H73740301   1.001   0.188   6.036 -1.4182  0.4751  1.2764
   43MOL   H73840302   0.713   0.185   6.044 -0.2994  1.3958 -3.0730
   43MOL   H73940303   0.834   0.244   6.149 -0.6839  1.1960 -0.0366
   43MOL   H74040304   0.755   0.367   5.880  1.0932 -1.4444 -0.2421
   43MOL   H74140305   0.701   0.444   6.030  1.3223 -1.3780  2.0415
   43MOL   H74240306   0.983   0.433   5.921  0.4160 -0.3745  1.4806
   43MOL   H74340307   0.878   0.553   5.923  0.9202 -0.2368 -1.1605
   43MOL   H74440308   1.000   0.436   6.190 -2.9512 -0.1645  2.0602
   43MOL   H74540309   1.061   0.562   6.111  0.4772 -0.8179  3.8995
   43MOL   H74640310   0.773   0.586   6.197  0.0377  0.8072  0.4764
   43MOL   H74740311   0.871   0.705   6.114  1.3436 -0.4014 -0.3964
   43MOL   H74840312   1.029   0.695   6.330 -0.0741 -0.2543 -1.6933
   43MOL   H74940313   0.908   0.592   6.401 -2.4468  1.0897  0.9372
   43MOL   H75040314   0.743   0.998   6.336 -1.2426 -0.8153  0.4992
   43MOL   H75140315   0.631   1.219   6.389 -1.9484 -1.2083 -0.8472
   43MOL   H75240316   0.600   1.081   6.795 -2.2245  0.4864 -1.7160
   43MOL   H75340317   0.679   0.862   6.726 -1.8890  2.0297  1.7069
   43MOL   O75440318   0.453   1.408   6.842  0.4917 -0.4241  0.1246
   43MOL   C75540319   0.546   1.461   6.930  0.8360 -0.0602  0.6578
   43MOL   C75640320   0.611   1.355   7.026 -0.5022  0.2943 -0.0965
   43MOL   C75740321   0.713   1.427   7.119  0.0675  0.8062  0.3010
   43MOL   C75840322   0.826   1.341   7.167 -0.2314 -0.0008  0.1342
   43MOL   C75940323   0.907   1.428   7.270 -0.1348  0.1348  0.0089
   43MOL   C76040324   1.051   1.373   7.297  0.5348 -0.2662  0.4442
   43MOL   C76140325   1.132   1.460   7.392 -0.1741 -0.2345 -0.2454
   43MOL   C76240326   1.281   1.440   7.374  0.6765  0.9978  0.0779
   43MOL   C76340327   1.343   1.549   7.281 -0.2622 -0.0788  0.6040
   43MOL   C76440328   1.495   1.535   7.253 -0.0658 -0.1851  0.4986
   43MOL   O76540329   1.554   1.633   7.168 -0.0678  0.2504 -0.6628
   43MOL   C76640330   1.681   1.662   7.157  0.0735 -0.1753  0.0691
   43MOL   O76740331   1.769   1.628   7.233 -0.4024  0.1306  0.2438
   43MOL   C76840332   1.706   1.767   7.052  0.3111 -0.1415  0.1820
   43MOL   C76940333   1.831   1.834   7.048 -0.6836 -0.8540  0.8729
   43MOL   C77040334   1.862   1.930   6.951  0.0048 -0.3614  0.1924
   43MOL   C77140335   1.756   1.973   6.865  0.8018 -0.4187 -0.7619
   43MOL   C77240336   1.779   2.076   6.757  0.1032 -0.3314 -0.6603
   43MOL   O77340337   1.684   2.142   6.709  0.6184 -0.0971 -0.1524
   43MOL   O77440338   1.912   2.096   6.724 -0.2592  0.4956  0.1513
   43MOL   C77540339   1.633   1.907   6.868  0.4914  0.2779 -0.4354
   43MOL   C77640340   1.600   1.804   6.964 -0.0120  0.3251  0.7284
   43MOL   H77740341   0.621   1.521   6.880  0.8185  0.5662  1.3698
   43MOL   H77840342   0.490   1.531   6.992 -0.4848 -0.1722 -0.3919
   43MOL   H77940343   0.668   1.279   6.973 -0.1430  1.0640 -0.8246
   43MOL   H78040344   0.525   1.304   7.070  0.0135  0.2807  0.9115
   43MOL   H78140345   0.769   1.508   7.071 -0.4568 -0.5279 -2.7082
   43MOL   H78240346   0.660   1.485   7.194 -0.4866 -0.5298  0.9505
   43MOL   H78340347   0.892   1.307   7.088  1.0164 -0.0875  1.1886
   43MOL   H78440348   0.788   1.250   7.215 -2.0238  0.0852 -1.1082
   43MOL   H78540349   0.917   1.531   7.235  1.0185  0.2024  0.5047
   43MOL   H78640350   0.851   1.433   7.364 -1.6503  2.1615 -0.9698
   43MOL   H78740351   1.037   1.273   7.336 -4.1775  0.3474  0.6066
   43MOL   H78840352   1.095   1.366   7.198  1.5248 -0.9990  0.9308
   43MOL   H78940353   1.093   1.562   7.388 -0.7737 -0.4201  0.8366
   43MOL   H79040354   1.100   1.435   7.493 -2.0189  1.8297 -0.2693
   43MOL   H79140355   1.325   1.445   7.474 -0.4344  0.9039  0.5784
   43MOL   H79240356   1.305   1.339   7.340 -0.9511  0.3140  0.9126
   43MOL   H79340357   1.348   1.650   7.323  0.0998  0.3964 -0.5450
   43MOL   H79440358   1.286   1.551   7.188 -1.6667 -2.7397  1.3541
   43MOL   H79540359   1.504   1.438   7.203 -1.1168  1.0410 -2.1060
   43MOL   H79640360   1.553   1.519   7.344 -1.2779 -0.4712  1.2299
   43MOL   H79740361   1.909   1.802   7.115  0.3764 -1.5888 -0.7033
   43MOL   H79840362   1.960   1.976   6.949  0.7052 -1.7634  1.0188
   43MOL   H79940363   1.552   1.931   6.801 -1.3495 -2.7985  0.5822
   43MOL   H80040364   1.505   1.756   6.947  1.1183 -0.9913 -2.2941
   43MOL   O80140365   1.937   2.176   6.602  0.0711  0.3610  0.2867
   43MOL   C80240366   1.942   2.306   6.639 -0.3163  0.6319  0.1023
   43MOL   C80340367   2.033   2.369   6.535  0.0258  0.0788 -0.5363
   43MOL   C80440368   1.990   2.353   6.388 -0.3463  0.7139  0.3221
   43MOL   C80540369   1.855   2.410   6.365  0.3486 -1.4780  0.1040
   43MOL   C80640370   1.831   2.419   6.211  0.3965 -0.1675  0.2379
   43MOL   C80740371   1.692   2.478   6.173  0.1666  0.1949  0.0861
   43MOL   C80840372   1.698   2.501   6.024  0.1111  0.1768  0.2323
   43MOL   C80940373   1.557   2.538   5.972  0.4383 -0.1118 -0.4634
   43MOL   C81040374   1.559   2.588   5.826 -0.3201  0.2709 -0.2483
   43MOL   C81140375   1.421   2.613   5.761 -0.2015  0.2902  0.0086
   43MOL   O81240376   1.431   2.664   5.630 -0.3560 -0.0176 -0.3153
   43MOL   C81340377   1.443   2.796   5.609 -0.4237 -0.1472  0.7447
   43MOL   O81440378   1.457   2.878   5.703  0.1348  0.0499 -0.8435
   43MOL   C81540379   1.453   2.830   5.462  0.3212 -0.4477  0.2631
   43MOL   C81640380   1.447   2.964   5.414 -0.4276  0.3533  0.7152
   43MOL   C81740381   1.475   2.992   5.280  0.6213  0.3844 -0.3979
   43MOL   C81840382   1.500   2.887   5.184 -0.5935  0.2314 -0.7757
   43MOL   C81940383   1.528   2.919   5.043  0.0034 -0.4632 -0.0927
   43MOL   O82040384   1.490   2.849   4.948 -0.8242 -0.2245  0.1034
   43MOL   O82140385   1.602   3.032   5.029 -0.2177 -0.1059  0.3552
   43MOL   C82240386   1.493   2.752   5.223 -0.3621  0.9614 -0.7009
   43MOL   C82340387   1.465   2.727   5.365 -0.7829 -0.3345  0.5752
   43MOL   H82440388   1.842   2.349   6.635 -1.9755 -2.9948  0.6972
   43MOL   H82540389   1.993   2.317   6.735  0.3949  1.4720 -0.3622
   43MOL   H82640390   2.139   2.343   6.545 -0.1653 -0.1736  0.9183
   43MOL   H82740391   2.034   2.475   6.561 -1.2694 -0.5903  2.3341
   43MOL   H82840392   2.065   2.412   6.336 -0.7683  1.3535  0.4280
   43MOL   H82940393   2.000   2.255   6.342  1.3520  1.4798 -0.9671
   43MOL   H83040394   1.844   2.511   6.404 -2.9929 -1.4616 -0.7190
   43MOL   H83140395   1.773   2.352   6.406 -1.4871  2.2505  1.9098
   43MOL   H83240396   1.913   2.477   6.169 -0.8095 -0.0020 -1.9386
   43MOL   H83340397   1.844   2.322   6.165 -0.1227  0.6393 -1.6351
   43MOL   H83440398   1.611   2.410   6.201  0.0480  0.4499  0.3673
   43MOL   H83540399   1.676   2.571   6.227  0.4766 -1.6424  3.4575
   43MOL   H83640400   1.770   2.580   6.000  0.4109  0.0555  0.7367
   43MOL   H83740401   1.743   2.417   5.971  2.7694  0.3761  2.1168
   43MOL   H83840402   1.497   2.447   5.981 -0.8709  0.7254 -0.5399
   43MOL   H83940403   1.517   2.613   6.041 -0.5246 -0.3339 -0.7728
   43MOL   H84040404   1.612   2.515   5.765  0.2475 -0.3583  0.9762
   43MOL   H84140405   1.613   2.683   5.818 -2.3939  1.6096  1.2281
   43MOL   H84240406   1.363   2.680   5.824 -1.2151  1.2594 -1.9373
   43MOL   H84340407   1.367   2.519   5.759 -1.1029  0.7851  0.6968
   43MOL   H84440408   1.442   3.042   5.488  1.7362 -1.4104  2.8358
   43MOL   H84540409   1.460   3.095   5.251  1.3928 -0.2175 -3.1246
   43MOL   H84640410   1.476   2.668   5.157 -0.9360 -0.7528  1.5610
   43MOL   H84740411   1.473   2.622   5.389  1.1973 -0.5945 -1.0746
   43MOL   O84840412   1.602   3.082   4.887  0.2510  0.4441  0.8542
   43MOL   C84940413   1.734   3.123   4.856 -0.1476  0.0720  0.2510
   43MOL   C85040414   1.748   3.277   4.889 -0.1188  0.6555 -0.2354
   43MOL   C85140415   1.877   3.334   4.838 -0.6062  0.1473  0.3339
   43MOL   C85240416   1.899   3.479   4.872 -0.1408 -0.5089  0.2656
   43MOL   C85340417   2.041   3.522   4.848 -0.3937  0.0532 -0.0666
   43MOL   C85440418   2.134   3.506   4.968  0.1653 -0.0336 -0.4621
   43MOL   C85540419   2.138   3.362   5.026  0.1626  0.7544  0.3598
   43MOL   C85640420   2.258   3.343   5.118  0.2668  0.1905  0.1804
   43MOL   C85740421   2.290   3.205   5.166 -0.4055 -0.5651  0.8687
   43MOL   C85840422   2.438   3.201   5.204  0.2950  0.7515 -0.1018
   43MOL   O85940423   2.465   3.064   5.239 -0.0496 -0.4380 -0.1086
   43MOL   C86040424   2.588   3.028   5.264 -1.0373 -0.1714  0.2334
   43MOL   O86140425   2.686   3.106   5.254  0.1423  0.5913 -0.5665
   43MOL   C86240426   2.608   2.880   5.290 -0.2392 -0.1516  0.2407
   43MOL   C86340427   2.495   2.801   5.316 -0.4747 -1.0211 -0.3785
   43MOL   C86440428   2.511   2.664   5.338  1.0092 -0.5480 -0.5680
   43MOL   C86540429   2.640   2.614   5.359  0.1932  0.3005 -0.2423
   43MOL   C86640430   2.660   2.475   5.421 -0.0111  0.6590 -0.4925
   43MOL   O86740431   2.571   2.429   5.494  0.1921  0.1236  0.0947
   43MOL   O86840432   2.783   2.409   5.401  0.0809 -0.5606  0.7827
   43MOL   C86940433   2.753   2.693   5.340  0.0997  0.4408  0.3976
   43MOL   C87040434   2.738   2.825   5.300 -0.0933  0.7171  0.0826
   43MOL   H87140435   1.811   3.055   4.893 -1.4293 -1.2309  0.5883
   43MOL   H87240436   1.725   3.126   4.747 -1.6272 -1.0880  0.3216
   43MOL   H87340437   1.733   3.297   4.995 -3.7828  0.1245 -0.5726
   43MOL   H87440438   1.658   3.323   4.847  0.1552  0.5211 -0.9739
   43MOL   H87540439   1.956   3.268   4.873 -2.0442 -1.2807  0.9849
   43MOL   H87640440   1.879   3.329   4.729 -4.3601  0.6475  0.1653
   43MOL   H87740441   1.875   3.502   4.976 -2.0671 -1.1399 -0.0124
   43MOL   H87840442   1.826   3.538   4.816  2.1010 -0.3395 -2.5603
   43MOL   H87940443   2.080   3.465   4.764 -0.7382 -1.0977  0.5456
   43MOL   H88040444   2.042   3.626   4.814 -1.8995 -0.3404 -1.3368
   43MOL   H88140445   2.231   3.553   4.950  1.6110 -1.9203  2.1031
   43MOL   H88240446   2.103   3.567   5.053  1.9184 -0.8815  0.8059
   43MOL   H88340447   2.049   3.350   5.088  1.4456 -1.4712  1.8584
   43MOL   H88440448   2.139   3.280   4.954  0.7899 -1.5450  2.8956
   43MOL   H88540449   2.339   3.370   5.051  2.1773 -1.0805  1.9238
   43MOL   H88640450   2.252   3.418   5.196  0.7855  1.5548 -1.0643
   43MOL   H88740451   2.269   3.137   5.084 -3.1169  0.1152  0.9784
   43MOL   H88840452   2.232   3.189   5.257  0.3879  1.4031  1.7431
   43MOL   H88940453   2.461   3.254   5.296 -0.5614  0.6128  0.1992
   43MOL   H89040454   2.497   3.239   5.121 -0.7631  1.4522 -0.5352
   43MOL   H89140455   2.397   2.846   5.310 -0.0916 -0.1216 -0.0489
   43MOL   H89240456   2.427   2.597   5.349  1.6625 -1.8775 -3.1956
   43MOL   H89340457   2.854   2.657   5.359 -0.2124 -0.9202 -0.4213
   43MOL   H89440458   2.824   2.888   5.286  0.1107  0.7774  1.6026
   43MOL   O89540459   2.788   2.266   5.463  0.8345  0.0406 -0.0340
   43MOL   C89640460   2.820   2.166   5.364  0.2367  0.0963 -0.5491
   43MOL   C89740461   2.742   2.041   5.405  0.3078  0.0333 -0.4629
   43MOL   C89840462   2.716   1.943   5.294 -0.3628 -0.1879 -0.4943
   43MOL   C89940463   2.633   1.819   5.329  0.5543 -0.6519  0.0964
   43MOL   C90040464   2.629   1.721   5.213 -0.5653 -1.2322 -0.6001
   43MOL   C90140465   2.582   1.584   5.253 -0.5172 -0.7859 -0.2497
   43MOL   C90240466   2.691   1.492   5.323  0.0647 -0.0655 -0.0541
   43MOL   C90340467   2.817   1.486   5.241 -0.3738 -0.0112  0.1616
   43MOL   C90440468   2.909   1.359   5.275 -0.2753  0.2582 -0.7528
   43MOL   C90540469   3.043   1.374   5.208 -0.7557 -0.1375  0.1009
   43MOL   O90640470   3.034   1.339   5.066 -0.1977 -0.0563  0.0891
   43MOL   C90740471   3.071   1.211   5.020 -0.2911 -0.0598  0.0275
   43MOL   O90840472   3.089   1.119   5.097  0.5489 -1.0511 -0.1718
   43MOL   C90940473   3.102   1.193   4.871 -0.6105  0.3136 -0.5114
   43MOL   C91040474   3.131   1.069   4.820  0.0388  0.1943 -0.0751
   43MOL   C91140475   3.179   1.054   4.685  0.1899  0.1833 -0.4050
   43MOL   C91240476   3.172   1.164   4.596 -0.7748  0.1958 -0.1446
   43MOL   C91340477   3.218   1.146   4.453 -0.2912 -0.5609  0.2727
   43MOL   O91440478   3.208   1.243   4.380 -0.3100  0.3012 -0.3612
   43MOL   O91540479   3.268   1.025   4.410 -0.1053  0.3321 -0.0666
   43MOL   C91640480   3.130   1.287   4.644 -0.5306  1.4205 -0.5095
   43MOL   C91740481   3.094   1.303   4.782 -0.1117  0.7436  0.2433
   43MOL   H91840482   2.800   2.196   5.261  0.7876 -1.3749 -1.0954
   43MOL   H91940483   2.928   2.149   5.366  0.2551  0.1933 -0.7089
   43MOL   H92040484   2.641   2.060   5.441 -0.5367 -0.1239 -2.6608
   43MOL   H92140485   2.794   2.000   5.492  1.4583  0.7181 -0.8171
   43MOL   H92240486   2.669   2.001   5.214 -1.9727 -0.5932  0.1566
   43MOL   H92340487   2.813   1.922   5.248 -0.6643  0.1781 -1.3008
   43MOL   H92440488   2.534   1.856   5.357  1.3461  1.8727 -0.3064
   43MOL   H92540489   2.678   1.775   5.417  1.4115 -0.0552 -0.0399
   43MOL   H92640490   2.569   1.777   5.142 -0.8054 -1.4157 -0.5403
   43MOL   H92740491   2.731   1.715   5.174  0.7060  2.9549  1.6624
   43MOL   H92840492   2.498   1.584   5.323 -1.3882  2.9886 -1.1906
   43MOL   H92940493   2.555   1.544   5.156 -1.8038  0.6326 -0.5008
   43MOL   H93040494   2.720   1.512   5.426  1.5279  0.5275 -0.5669
   43MOL   H93140495   2.645   1.393   5.329  2.6244 -1.2959 -0.0859
   43MOL   H93240496   2.802   1.480   5.133 -0.4298 -1.1653  0.2328
   43MOL   H93340497   2.876   1.572   5.272  1.2240 -0.5837 -1.2472
   43MOL   H93440498   2.862   1.267   5.241 -1.3989 -1.0954  4.0970
   43MOL   H93540499   2.932   1.339   5.380  1.6131 -0.2940 -1.2359
   43MOL   H93640500   3.125   1.312   5.244 -0.7523  1.4065  2.8580
   43MOL   H93740501   3.075   1.478   5.214 -1.9320  0.0876  3.2189
   43MOL   H93840502   3.140   0.991   4.894 -1.4155  1.4616  1.4852
   43MOL   H93940503   3.218   0.960   4.649 -1.3403 -0.3416 -0.7415
   43MOL   H94040504   3.137   1.374   4.579 -0.5990  1.3250 -0.6448
   43MOL   H94140505   3.070   1.403   4.813 -0.4866  0.7370 -0.0351
   43MOL   H94240506   3.296   1.025   4.320  0.1788 -0.2169  0.0181
   44MOL     O140507   1.114   0.054   5.290 -0.1102 -0.7215 -0.2337
   44MOL     C240508   1.051   0.148   5.206 -0.6599 -0.5923 -0.4975
   44MOL     C340509   0.907   0.114   5.155  1.0670 -0.0258  0.1176
   44MOL     C440510   0.803   0.133   5.269 -0.1404 -0.5060  0.1380
   44MOL     C540511   0.664   0.076   5.248  0.0163 -0.5304 -0.0764
   44MOL     C640512   0.567   0.121   5.363 -0.4433  0.1767  0.4961
   44MOL     C740513   0.420   0.091   5.340  0.3095  0.3291 -0.0071
   44MOL     C840514   0.333   0.148   5.452  0.6725 -0.1519  0.1388
   44MOL     C940515   0.177   0.130   5.437 -1.1013 -0.7913 -0.1743
   44MOL    C1040516   0.102   0.171   5.562  0.3425  0.2918 -0.0865
   44MOL    C1140517   7.930   0.136   5.558  0.5024  0.0536 -0.2185
   44MOL    O1240518   7.869   0.196   5.669  0.3235  0.3069 -0.2233
   44MOL    C1340519   7.824   0.115   5.768 -0.5724 -0.8401 -1.0698
   44MOL    O1440520   7.856   7.971   5.785 -0.1442 -0.3917  0.8753
   44MOL    C1540521   7.740   0.188   5.869  0.1251 -0.3503  0.3151
   44MOL    C1640522   7.721   0.326   5.851  0.0778 -0.5575 -0.0820
   44MOL    C1740523   7.630   0.393   5.937 -0.4465  0.3248 -0.0809
   44MOL    C1840524   7.565   0.323   6.037 -0.2823  0.2041 -0.4606
   44MOL    C1940525   7.481   0.401   6.130  0.3321  0.1113  0.2494
   44MOL    O2040526   7.479   0.523   6.125 -0.0102  0.1183 -0.1601
   44MOL    O2140527   7.398   0.335   6.207 -0.0046  0.3895  0.1838
   44MOL    C2240528   7.581   0.182   6.061  0.4477 -0.0147  0.1359
   44MOL    C2340529   7.675   0.117   5.975  0.8282  0.7011  0.5074
   44MOL    H2440530   1.054   0.239   5.266  0.7499  0.2779 -1.8525
   44MOL    H2540531   1.119   0.164   5.123  0.0016 -0.1939  0.1096
   44MOL    H2640532   0.905   0.019   5.102  0.0327  0.4328 -0.6917
   44MOL    H2740533   0.878   0.188   5.081 -0.9377 -1.6754 -0.7920
   44MOL    H2840534   0.826   0.093   5.367  1.2099  0.7438  0.3463
   44MOL    H2940535   0.783   0.240   5.278 -0.9740 -0.7554  1.3649
   44MOL    H3040536   0.665   7.946   5.235  1.8088 -0.6098  0.6990
   44MOL    H3140537   0.623   0.112   5.153 -0.7808 -2.3878 -0.4596
   44MOL    H3240538   0.595   0.081   5.460  0.1539  1.3164  0.7954
   44MOL    H3340539   0.571   0.230   5.368  0.1305  0.2010 -0.4172
   44MOL    H3440540   0.379   0.128   5.246  0.8874  0.4200 -0.2268
   44MOL    H3540541   0.404   7.962   5.328 -2.1286  0.7889 -1.1438
   44MOL    H3640542   0.355   0.106   5.550  0.0549  1.0282  0.7980
   44MOL    H3740543   0.341   0.255   5.474 -2.4552  0.0989  0.2386
   44MOL    H3840544   0.137   0.188   5.354 -1.6454 -1.1847 -0.1893
   44MOL    H3940545   0.159   0.024   5.421 -1.2564 -0.9213  0.8564
   44MOL    H4040546   0.100   0.279   5.577 -2.7329  0.2168  0.5017
   44MOL    H4140547   0.142   0.123   5.651  0.9457 -1.8346 -1.4896
   44MOL    H4240548   7.905   0.031   5.550  2.6854 -0.5750  1.0294
   44MOL    H4340549   7.893   0.178   5.464  2.4563  1.0435 -0.5641
   44MOL    H4440550   7.775   0.385   5.778 -1.0901  0.5763 -0.0424
   44MOL    H4540551   7.634   0.501   5.937  0.7342  0.2877 -0.3136
   44MOL    H4640552   7.530   0.137   6.145 -1.7991  1.7073 -0.2711
   44MOL    H4740553   7.693   0.011   5.987  1.4182  0.6308 -0.8814
   44MOL    H4840554   1.102   0.089   5.377 -1.0277 -2.8992  0.5660
   44MOL    O4940555   7.341   0.430   6.312 -0.8492  0.2299 -0.6059
   44MOL    C5040556   7.210   0.478   6.285  0.3025 -0.3934  0.7967
   44MOL    C5140557   7.111   0.372   6.314  0.6302  0.1857  0.4227
   44MOL    C5240558   6.966   0.424   6.299 -0.6936 -0.1195  0.2848
   44MOL    C5340559   6.872   0.312   6.279 -0.0688 -0.0380  0.3255
   44MOL    C5440560   6.724   0.355   6.292  0.1965  0.2727  0.2238
   44MOL    C5540561   6.686   0.409   6.434 -0.4007  0.4856  0.1606
   44MOL    C5640562   6.549   0.466   6.463  0.2798  0.3409 -0.1046
   44MOL    C5740563   6.431   0.366   6.447  0.7405  0.2946 -0.1013
   44MOL    C5840564   6.303   0.437   6.477 -0.6111  0.0399  0.0751
   44MOL    C5940565   6.180   0.343   6.496  0.4672  0.2648 -0.0979
   44MOL    O6040566   6.066   0.427   6.537 -0.3239  0.1378 -0.3805
   44MOL    C6140567   6.036   0.440   6.668 -0.4564 -0.0058 -0.1091
   44MOL    O6240568   6.085   0.377   6.760 -0.2853 -0.3154 -0.1506
   44MOL    C6340569   5.930   0.542   6.686  0.0988  0.3283 -0.3361
   44MOL    C6440570   5.930   0.660   6.610 -0.2927  0.6716 -0.2947
   44MOL    C6540571   5.825   0.751   6.609  0.6937  0.2270  0.0327
   44MOL    C6640572   5.719   0.728   6.696 -0.7338 -0.0406 -0.6372
   44MOL    C6740573   5.608   0.825   6.692  0.1434 -0.1127  0.0965
   44MOL    O6840574   5.593   0.911   6.608 -0.1476  0.2642 -0.5868
   44MOL    O6940575   5.524   0.815   6.804  0.0354  0.2057  0.1488
   44MOL    C7040576   5.714   0.611   6.777  0.3023  0.0681  0.2650
   44MOL    C7140577   5.815   0.518   6.765  0.0691 -0.6400 -0.7148
   44MOL    H7240578   7.183   0.561   6.350 -0.0894  1.3578 -1.5425
   44MOL    H7340579   7.192   0.505   6.181 -1.8032 -2.7849  0.5042
   44MOL    H7440580   7.133   0.343   6.416  1.0425  1.5728  0.7308
   44MOL    H7540581   7.133   0.282   6.257  0.5105 -0.3548  1.2302
   44MOL    H7640582   6.944   0.491   6.382  2.3773  0.7026  0.4768
   44MOL    H7740583   6.958   0.478   6.205 -0.8649  1.8326  1.3909
   44MOL    H7840584   6.896   0.248   6.364  0.6135 -1.9642 -1.2842
   44MOL    H7940585   6.897   0.264   6.185 -2.4772 -0.4466 -0.1338
   44MOL    H8040586   6.699   0.424   6.211  0.1460 -1.6269 -1.4292
   44MOL    H8140587   6.666   0.266   6.268 -0.2977  0.6170  0.1252
   44MOL    H8240588   6.708   0.325   6.499  2.0296  0.1852 -0.9793
   44MOL    H8340589   6.751   0.495   6.452  0.4302 -0.5711  2.3809
   44MOL    H8440590   6.554   0.492   6.569  0.2713  0.4299 -0.1259
   44MOL    H8540591   6.550   0.559   6.406  1.1089 -0.3490 -1.2347
   44MOL    H8640592   6.441   0.329   6.345 -1.5463 -0.0789 -0.2054
   44MOL    H8740593   6.450   0.277   6.507  0.4490  0.9600  0.9971
   44MOL    H8840594   6.282   0.518   6.406  1.6567 -0.8989 -1.7259
   44MOL    H8940595   6.320   0.486   6.573  0.2513  1.6735 -0.8898
   44MOL    H9040596   6.188   0.255   6.560  0.1023 -0.0340 -0.4610
   44MOL    H9140597   6.163   0.303   6.396 -0.0426 -0.5841  0.3185
   44MOL    H9240598   6.010   0.686   6.543 -0.3523  2.7902  0.4181
   44MOL    H9340599   5.834   0.843   6.554 -3.5829  0.3739 -0.5605
   44MOL    H9440600   5.622   0.592   6.831  0.3549  1.1540  0.7505
   44MOL    H9540601   5.811   0.425   6.820  1.2313  0.3849  1.1739
   44MOL    O9640602   5.399   0.900   6.795  0.1078 -1.3573 -0.4555
   44MOL    C9740603   5.287   0.835   6.730 -0.2006 -1.2050 -0.3857
   44MOL    C9840604   5.161   0.847   6.812 -0.0161 -0.2785  0.4924
   44MOL    C9940605   5.041   0.829   6.729  0.5896 -0.3170 -0.2826
   44MOL   C10040606   4.988   0.684   6.718 -0.4357 -0.2481 -0.8128
   44MOL   C10140607   4.879   0.688   6.617  0.6278  0.7211  0.7355
   44MOL   C10240608   4.785   0.572   6.624 -0.0710 -0.2578  0.1411
   44MOL   C10340609   4.694   0.557   6.510 -0.2619 -0.0528 -0.7200
   44MOL   C10440610   4.599   0.439   6.503 -0.3211  0.4439 -0.1021
   44MOL   C10540611   4.484   0.457   6.404 -0.6607  0.7704 -0.4052
   44MOL   C10640612   4.372   0.358   6.442  0.3625  0.5243  0.9193
   44MOL   O10740613   4.323   0.391   6.568 -0.2424  0.0715  0.0711
   44MOL   C10840614   4.209   0.329   6.615  0.3069 -0.4219 -0.0320
   44MOL   O10940615   4.146   0.240   6.558 -0.1874 -0.1774 -0.4468
   44MOL   C11040616   4.182   0.368   6.761  0.4185  0.6751  0.3365
   44MOL   C11140617   4.282   0.408   6.851 -0.0879 -0.7728  0.0079
   44MOL   C11240618   4.242   0.462   6.979  0.5404 -0.6692 -0.0329
   44MOL   C11340619   4.102   0.460   7.015 -0.3833 -0.0975  0.1071
   44MOL   C11440620   4.064   0.529   7.138 -0.2692 -0.6257  0.0749
   44MOL   O11540621   4.138   0.561   7.229  0.2807  0.5791  0.4777
   44MOL   O11640622   3.936   0.554   7.136  0.0161 -0.1691  0.1913
   44MOL   C11740623   4.007   0.393   6.932  0.2052  0.1245 -0.2017
   44MOL   C11840624   4.049   0.351   6.807  0.4313  0.5956 -0.7209
   44MOL   H11940625   5.274   0.863   6.625  1.5047 -3.3191 -1.1862
   44MOL   H12040626   5.304   0.728   6.732 -1.0343 -1.3323 -0.0956
   44MOL   H12140627   5.157   0.949   6.849  2.2247 -0.8407  2.4538
   44MOL   H12240628   5.155   0.777   6.896 -1.7613 -2.7703 -1.5882
   44MOL   H12340629   4.966   0.894   6.774  1.9588  0.8630  0.3532
   44MOL   H12440630   5.057   0.868   6.628 -0.1506 -4.0455 -1.9369
   44MOL   H12540631   4.952   0.649   6.815 -1.4210  2.3885 -0.1771
   44MOL   H12640632   5.064   0.612   6.687 -0.3457 -0.6225  0.2585
   44MOL   H12740633   4.814   0.776   6.618 -1.6603 -0.9197  0.3354
   44MOL   H12840634   4.932   0.693   6.521  1.6368 -0.9938  1.1916
   44MOL   H12940635   4.847   0.482   6.632  0.6022  0.1541 -0.3935
   44MOL   H13040636   4.719   0.581   6.710 -1.1465 -0.4586 -0.6621
   44MOL   H13140637   4.633   0.647   6.503  2.9612  2.3096  0.6543
   44MOL   H13240638   4.751   0.542   6.418 -1.4920 -1.3424 -1.2853
   44MOL   H13340639   4.644   0.345   6.472  3.2424  1.0210  3.0174
   44MOL   H13440640   4.559   0.415   6.602  0.3326  1.0224  0.3135
   44MOL   H13540641   4.510   0.418   6.306 -1.2655  0.6957 -0.5371
   44MOL   H13640642   4.439   0.556   6.403  0.7999  1.4576 -2.9286
   44MOL   H13740643   4.409   0.257   6.453  3.0344  1.7500  3.6804
   44MOL   H13840644   4.295   0.361   6.364  0.6180 -2.3401  0.4981
   44MOL   H13940645   4.387   0.406   6.826  0.5847  0.6028  2.5220
   44MOL   H14040646   4.321   0.511   7.034 -1.3317  1.5851  0.7580
   44MOL   H14140647   3.909   0.383   6.975  0.8117 -2.3966  0.6759
   44MOL   H14240648   3.962   0.339   6.745 -0.2499  1.0151  0.1487
   44MOL   O14340649   3.892   0.614   7.266 -0.2128 -0.3051 -0.0829
   44MOL   C14440650   3.865   0.512   7.362  0.2271  0.5630 -0.0945
   44MOL   C14540651   3.762   0.565   7.463  0.1725  0.2139  0.3326
   44MOL   C14640652   3.705   0.443   7.548 -0.2781  0.6317  0.3272
   44MOL   C14740653   3.804   0.368   7.633 -0.9165 -0.0649  0.5469
   44MOL   C14840654   3.741   0.270   7.725 -0.3974  0.2642 -0.2622
   44MOL   C14940655   3.838   0.184   7.813  0.4024  0.1639  0.2638
   44MOL   C15040656   3.764   0.072   7.894 -0.1344  0.0517  0.3482
   44MOL   C15140657   3.868   7.971   7.977 -0.5944  0.0129  0.2477
   44MOL   C15240658   3.801   7.849   0.068 -0.6217 -0.5220  0.1265
   44MOL   C15340659   3.900   7.800   0.178  0.5253  0.5360 -0.5103
   44MOL   O15440660   4.027   7.773   0.136 -0.1652 -0.7584  0.5083
   44MOL   C15540661   4.122   7.747   0.220  0.4441 -0.1655 -0.3430
   44MOL   O15640662   4.109   7.770   0.338 -0.5592 -0.2855 -0.0648
   44MOL   C15740663   4.243   7.687   0.154  0.6190 -0.0179  0.1517
   44MOL   C15840664   4.367   7.685   0.217 -0.6344 -0.7482 -0.0279
   44MOL   C15940665   4.476   7.617   0.150 -0.5109  0.3282 -0.0292
   44MOL   C16040666   4.469   7.567   0.021  0.2920  0.1050 -0.1322
   44MOL   C16140667   4.583   7.496   7.932  0.1956  0.1487 -0.4136
   44MOL   O16240668   4.702   7.505   7.976  0.8809  0.5202  0.4679
   44MOL   O16340669   4.549   7.429   7.817 -0.5366  0.3043 -0.8545
   44MOL   C16440670   4.342   7.580   7.940  0.1806  0.4218 -0.1520
   44MOL   C16540671   4.234   7.637   0.021  0.6678 -0.4291 -0.1222
   44MOL   H16640672   3.811   0.429   7.317  1.6598  0.5811 -1.8678
   44MOL   H16740673   3.958   0.467   7.395 -0.5307 -0.1135  1.1986
   44MOL   H16840674   3.673   0.605   7.414 -0.0823 -1.8024 -0.8907
   44MOL   H16940675   3.822   0.630   7.526  1.9331  0.0287 -1.1171
   44MOL   H17040676   3.629   0.481   7.617  0.1976 -1.8525  2.3107
   44MOL   H17140677   3.646   0.379   7.482  0.0949  0.3536  0.2598
   44MOL   H17240678   3.851   0.438   7.702 -0.7141  0.0603  0.2805
   44MOL   H17340679   3.881   0.319   7.574  0.3952  1.1012  1.2604
   44MOL   H17440680   3.665   0.319   7.785  0.8980 -1.2221  2.6954
   44MOL   H17540681   3.677   0.203   7.667  0.3759 -2.0367  1.4570
   44MOL   H17640682   3.912   0.131   7.753  0.5403 -0.9156  1.3534
   44MOL   H17740683   3.893   0.251   7.878 -1.8512 -1.3866  3.9590
   44MOL   H17840684   3.694   0.130   7.954  2.3122  1.5560  1.7985
   44MOL   H17940685   3.692   0.010   7.841  2.5025 -1.0317 -2.0932
   44MOL   H18040686   3.946   7.938   7.907 -1.0252  2.0538 -1.2413
   44MOL   H18140687   3.912   0.069   0.063 -0.3939  0.5213 -0.4923
   44MOL   H18240688   3.784   7.763   0.003  2.8401  0.2590 -1.9208
   44MOL   H18340689   3.702   7.875   0.105  0.4662 -0.2283  2.9846
   44MOL   H18440690   3.858   7.709   0.222  1.1199  0.9422  0.9192
   44MOL   H18540691   3.892   7.875   0.257 -0.3988 -1.4083  1.3119
   44MOL   H18640692   4.374   7.709   0.322  0.2918  2.6607 -0.8195
   44MOL   H18740693   4.562   7.603   0.215 -1.2665 -0.6635  0.7609
   44MOL   H18840694   4.328   7.550   7.837 -1.1519  0.8149 -0.0985
   44MOL   H18940695   4.139   7.633   7.949  1.0868 -0.5405 -0.9183
   44MOL   O19040696   4.666   7.407   7.720 -0.0010  0.3512  0.2632
   44MOL   C19140697   4.656   7.515   7.626 -0.4703  0.7804  0.9252
   44MOL   C19240698   4.544   7.483   7.530 -0.4908 -0.1685  1.2823
   44MOL   C19340699   4.562   7.337   7.473  0.1990  0.0332 -0.0171
   44MOL   C19440700   4.487   7.312   7.338  0.3163 -0.3530  0.0482
   44MOL   C19540701   4.520   7.171   7.285  0.4579 -0.4121 -0.2592
   44MOL   C19640702   4.419   7.061   7.336 -0.2636 -0.3850 -0.4193
   44MOL   C19740703   4.440   6.927   7.258  0.2429  0.1770 -0.2239
   44MOL   C19840704   4.332   6.829   7.283  0.3935 -0.4012 -0.4326
   44MOL   C19940705   4.338   6.698   7.205  0.2700 -0.1985 -0.2412
   44MOL   C20040706   4.220   6.600   7.215 -0.6397  0.2265 -0.1779
   44MOL   O20140707   4.103   6.673   7.171  0.0754 -0.1816  0.0417
   44MOL   C20240708   3.982   6.625   7.194 -0.1188  0.2193  0.4948
   44MOL   O20340709   3.965   6.519   7.251  0.4933  0.7947  0.0784
   44MOL   C20440710   3.873   6.713   7.147 -0.2075  0.6350 -0.1399
   44MOL   C20540711   3.734   6.697   7.195 -0.2404  0.7244  0.6510
   44MOL   C20640712   3.643   6.796   7.171 -0.1393 -0.2938  0.1852
   44MOL   C20740713   3.663   6.882   7.063  0.3596 -0.1121 -0.3765
   44MOL   C20840714   3.551   6.979   7.015  0.2391  0.5989  0.1940
   44MOL   O20940715   3.444   6.991   7.075 -0.7674  0.1975 -0.3728
   44MOL   O21040716   3.584   7.053   6.905  0.5105 -0.2471 -0.1443
   44MOL   C21140717   3.789   6.892   7.001 -0.6292  0.5675  0.3842
   44MOL   C21240718   3.897   6.813   7.049 -0.2415 -0.5081 -0.2025
   44MOL   H21340719   4.617   7.602   7.679 -2.1103  1.3191 -1.1150
   44MOL   H21440720   4.748   7.529   7.568 -0.4860 -0.3123  0.6265
   44MOL   H21540721   4.535   7.556   7.450 -1.1929 -0.5291  1.0305
   44MOL   H21640722   4.447   7.493   7.577 -0.9813  1.2018  0.0002
   44MOL   H21740723   4.665   7.312   7.444  0.0384 -0.1108 -0.4735
   44MOL   H21840724   4.555   7.263   7.553 -0.4819  1.3422  1.1514
   44MOL   H21940725   4.522   7.387   7.267  2.1692 -0.1908  1.0755
   44MOL   H22040726   4.379   7.326   7.342 -0.0377 -2.9076  0.4804
   44MOL   H22140727   4.527   7.180   7.177 -1.8599 -0.0315 -0.4133
   44MOL   H22240728   4.617   7.129   7.312  0.5446 -0.0381  0.0137
   44MOL   H22340729   4.422   7.049   7.444 -0.8906  0.3821 -0.3114
   44MOL   H22440730   4.321   7.104   7.315  1.0326  2.8026 -0.2942
   44MOL   H22540731   4.443   6.946   7.151  0.8413  0.1558 -0.2103
   44MOL   H22640732   4.542   6.897   7.282 -0.2768 -1.7106 -0.2285
   44MOL   H22740733   4.321   6.787   7.383  1.1504 -0.0675 -0.2065
   44MOL   H22840734   4.233   6.874   7.271  0.1859 -1.4192 -2.7870
   44MOL   H22940735   4.425   6.650   7.249  0.9224 -0.2696 -1.5876
   44MOL   H23040736   4.360   6.733   7.104 -0.4256  1.2304  0.0839
   44MOL   H23140737   4.211   6.575   7.321 -1.5059 -1.5815 -0.6554
   44MOL   H23240738   4.243   6.508   7.161 -0.3761 -0.5325  1.1834
   44MOL   H23340739   3.710   6.616   7.263 -1.7940 -0.2717 -1.0576
   44MOL   H23440740   3.545   6.809   7.216 -0.4153  1.4958 -0.9096
   44MOL   H23540741   3.808   6.977   6.937 -1.6402  0.9924  0.6393
   44MOL   H23640742   3.992   6.821   6.999 -0.9689 -2.0811 -1.8867
   44MOL   O23740743   3.479   7.158   6.868 -0.2623  0.3331  0.3970
   44MOL   C23840744   3.495   7.273   6.949  0.6445  1.0967 -0.3159
   44MOL   C23940745   3.381   7.371   6.952 -0.1205  0.1646  0.6342
   44MOL   C24040746   3.357   7.438   6.822 -0.0056  0.6686 -0.8314
   44MOL   C24140747   3.231   7.519   6.801  0.0290 -0.7490  0.1287
   44MOL   C24240748   3.247   7.610   6.678  0.3562 -0.0623  0.2326
   44MOL   C24340749   3.123   7.697   6.655  0.5421  0.3053 -0.6375
   44MOL   C24440750   3.140   7.779   6.528  0.2045 -0.1540  0.2540
   44MOL   C24540751   3.101   7.689   6.407  0.3307  0.7162  0.1661
   44MOL   C24640752   3.132   7.765   6.280 -0.0165  0.1665  0.4618
   44MOL   C24740753   3.110   7.685   6.150  1.0315  0.1507 -0.2406
   44MOL   O24840754   3.128   7.777   6.044  0.0987 -0.4854  0.0161
   44MOL   C24940755   3.049   7.778   5.929 -0.3561  0.3177  0.0044
   44MOL   O25040756   2.958   7.697   5.914 -0.3370  0.5020  0.2870
   44MOL   C25140757   3.096   7.879   5.829  0.2883 -0.1257  0.4602
   44MOL   C25240758   3.031   7.895   5.701  0.2461  0.1526 -0.0813
   44MOL   C25340759   3.092   7.977   5.605 -0.6636 -0.5933 -0.0923
   44MOL   C25440760   3.220   0.057   5.628 -0.2519  0.2920 -0.3447
   44MOL   C25540761   3.273   0.142   5.519  0.5364 -0.8926 -0.1095
   44MOL   O25640762   3.230   0.152   5.399 -0.1717 -0.1770 -0.0524
   44MOL   O25740763   3.385   0.215   5.560 -0.0215 -0.1975  0.0253
   44MOL   C25840764   3.289   0.031   5.751  0.1689 -0.6208  0.3367
   44MOL   C25940765   3.223   7.937   5.848  0.2595 -0.2095 -0.7238
   44MOL   H26040766   3.508   7.243   7.053 -1.0602  0.3602 -0.2943
   44MOL   H26140767   3.584   7.331   6.926  1.3546  0.6461  1.2066
   44MOL   H26240768   3.400   7.451   7.024 -1.1046 -0.1122  1.2067
   44MOL   H26340769   3.303   7.305   6.989  0.8017 -2.9066 -2.6294
   44MOL   H26440770   3.445   7.500   6.806  0.4497  0.7983  2.0488
   44MOL   H26540771   3.353   7.361   6.745 -0.0546 -1.0957  0.9068
   44MOL   H26640772   3.220   7.574   6.895  2.0532 -0.1596  0.0451
   44MOL   H26740773   3.150   7.449   6.784 -0.3968  0.3190 -2.4712
   44MOL   H26840774   3.334   7.675   6.691  0.2737 -0.2034  1.5607
   44MOL   H26940775   3.278   7.554   6.590 -1.2843  0.8324 -0.9408
   44MOL   H27040776   3.029   7.642   6.651 -0.0395  1.1593  0.9261
   44MOL   H27140777   3.113   7.767   6.738 -0.7542 -1.1572  0.4593
   44MOL   H27240778   3.078   7.868   6.526  2.6342  1.7280  3.1141
   44MOL   H27340779   3.242   7.809   6.504 -0.3236 -0.5432 -2.6286
   44MOL   H27440780   3.160   7.598   6.405  0.8322  1.0347  0.5224
   44MOL   H27540781   2.992   7.679   6.410  0.0538  2.8199 -1.2380
   44MOL   H27640782   3.230   7.813   6.281  0.0966 -0.0265 -1.1191
   44MOL   H27740783   3.068   7.852   6.267  0.8276  0.7343  0.0328
   44MOL   H27840784   3.011   7.640   6.140  1.1671  0.0466 -1.1366
   44MOL   H27940785   3.176   7.599   6.150  1.6841  0.6479  0.2484
   44MOL   H28040786   2.939   7.841   5.689  0.6508 -0.8037  0.9724
   44MOL   H28140787   3.043   0.012   5.509  1.5003  1.0525 -1.0373
   44MOL   H28240788   3.384   0.080   5.767  0.5756 -1.6331  1.0136
   44MOL   H28340789   3.287   7.932   5.935 -1.5916 -0.1470  0.6730
   44MOL   O28440790   3.427   0.313   5.451  0.2517  0.4499  0.2914
   44MOL   C28540791   3.390   0.442   5.503 -0.1136 -0.9111  0.6130
   44MOL   C28640792   3.381   0.569   5.401 -0.9292 -0.3333 -0.0343
   44MOL   C28740793   3.512   0.636   5.379  0.6049  0.3367  0.1722
   44MOL   C28840794   3.600   0.543   5.294  0.8106  0.0640 -0.2955
   44MOL   C28940795   3.735   0.597   5.264 -0.2414  0.6601  0.2750
   44MOL   C29040796   3.828   0.514   5.182  0.2691 -0.1380 -0.2335
   44MOL   C29140797   3.942   0.597   5.129  0.0282 -0.5022  0.6322
   44MOL   C29240798   4.059   0.514   5.069  0.3854  0.2841  0.0260
   44MOL   C29340799   4.022   0.424   4.950 -0.2307  0.3368  0.0611
   44MOL   C29440800   4.142   0.355   4.893 -0.2450  0.5442  0.0829
   44MOL   O29540801   4.112   0.253   4.798 -0.1343  0.5544  0.1918
   44MOL   C29640802   4.059   0.129   4.835  0.2180  0.3442  0.3309
   44MOL   O29740803   4.029   0.099   4.949 -0.0530 -0.1106  0.1616
   44MOL   C29840804   4.059   0.036   4.715  0.4159 -0.2626  0.7919
   44MOL   C29940805   4.118   0.067   4.594 -0.2579 -0.0968 -0.8512
   44MOL   C30040806   4.099   7.956   4.485  0.9030  0.0012 -0.1224
   44MOL   C30140807   4.023   7.836   4.496 -0.3188  0.0893  0.2587
   44MOL   C30240808   4.017   7.738   4.388  0.0364  0.0119 -0.1292
   44MOL   O30340809   4.073   7.742   4.283  0.6005 -0.2431 -0.0293
   44MOL   O30440810   3.937   7.639   4.422 -0.9896  0.8405 -0.1998
   44MOL   C30540811   3.977   7.805   4.623 -0.6214 -0.9243  0.0362
   44MOL   C30640812   3.996   7.891   4.729  0.1266  0.0101  0.5484
   44MOL   H30740813   3.296   0.428   5.556 -0.7379  2.8538  0.6325
   44MOL   H30840814   3.467   0.455   5.579  1.4802 -1.0284 -0.9494
   44MOL   H30940815   3.316   0.640   5.451  2.2571  2.4891  0.2520
   44MOL   H31040816   3.321   0.549   5.312  1.3457 -2.7025 -1.0932
   44MOL   H31140817   3.512   0.728   5.321 -0.7784 -0.4942 -1.1830
   44MOL   H31240818   3.563   0.661   5.472  1.1483 -0.2818  0.0467
   44MOL   H31340819   3.555   0.526   5.196  2.2701 -2.1087 -0.6196
   44MOL   H31440820   3.613   0.444   5.338  0.6263  0.5311  0.8147
   44MOL   H31540821   3.716   0.687   5.205  0.8990  0.5793 -0.2298
   44MOL   H31640822   3.784   0.639   5.352 -3.4497 -0.1445  2.5603
   44MOL   H31740823   3.859   0.435   5.250 -0.8568 -0.1892  0.2293
   44MOL   H31840824   3.774   0.471   5.098  0.2156 -1.0083  0.2374
   44MOL   H31940825   3.916   0.671   5.053 -1.7914 -2.1851 -0.4319
   44MOL   H32040826   3.980   0.651   5.216  0.2014  0.1188  0.1749
   44MOL   H32140827   4.131   0.589   5.038  1.9834 -0.9848  0.6136
   44MOL   H32240828   4.098   0.446   5.144 -0.5359  0.5612  0.7741
   44MOL   H32340829   3.984   0.481   4.866  0.0205 -0.1144 -0.3571
   44MOL   H32440830   3.940   0.358   4.979  1.0551 -1.0445  0.6327
   44MOL   H32540831   4.196   0.302   4.971  1.3697  1.7759 -0.1897
   44MOL   H32640832   4.209   0.428   4.849 -0.4588  2.4109  2.7331
   44MOL   H32740833   4.188   0.147   4.577 -0.4154 -0.3007 -2.5116
   44MOL   H32840834   4.147   7.976   4.391  1.7542  0.5677  0.4308
   44MOL   H32940835   3.942   7.706   4.649  1.2714 -2.3162 -2.4683
   44MOL   H33040836   3.961   7.859   4.826 -0.9461  1.0291  0.5087
   44MOL   O33140837   3.917   7.546   4.303 -0.2976 -0.1240  0.1148
   44MOL   C33240838   3.982   7.426   4.340  0.0911  0.0099  0.3323
   44MOL   C33340839   3.889   7.337   4.425  0.2129  0.2261  0.7266
   44MOL   C33440840   3.952   7.220   4.494  0.5973  0.2633  0.1138
   44MOL   C33540841   3.862   7.129   4.577  0.9046  0.2834 -0.1940
   44MOL   C33640842   3.942   7.012   4.616  0.1814 -0.6049  0.4292
   44MOL   C33740843   3.880   6.917   4.714  0.1894 -0.3326 -0.3651
   44MOL   C33840844   3.957   6.783   4.742 -0.5130 -0.1190  0.6546
   44MOL   C33940845   3.922   6.685   4.635 -0.1041  0.1241  0.8180
   44MOL   C34040846   3.946   6.540   4.685 -0.0688 -0.2615 -0.0620
   44MOL   C34140847   3.899   6.437   4.580  0.0650 -0.5376 -0.0975
   44MOL   O34240848   4.007   6.443   4.489  0.7138 -0.9761  0.1604
   44MOL   C34340849   4.009   6.348   4.393 -0.6678  0.4392 -0.2451
   44MOL   O34440850   3.940   6.249   4.397  0.5862 -0.0490 -0.0300
   44MOL   C34540851   4.113   6.377   4.287  0.1107  0.2911 -0.2280
   44MOL   C34640852   4.140   6.276   4.187 -0.6694  0.3286  0.0731
   44MOL   C34740853   4.231   6.306   4.082  0.6617 -0.0557  0.0365
   44MOL   C34840854   4.275   6.441   4.063 -0.4641  1.1330  0.1919
   44MOL   C34940855   4.350   6.476   3.931 -0.1752  0.0035 -0.1568
   44MOL   O35040856   4.389   6.589   3.915  0.3199 -0.3314 -0.1129
   44MOL   O35140857   4.380   6.368   3.851 -0.1015 -0.0316  0.7286
   44MOL   C35240858   4.250   6.535   4.167  0.2940  0.8763 -0.1805
   44MOL   C35340859   4.175   6.505   4.280 -0.4566 -0.1508  0.0741
   44MOL   H35440860   4.031   7.372   4.259 -2.3524  0.1317 -1.2869
   44MOL   H35540861   4.059   7.464   4.407  0.7145  0.1809 -0.4699
   44MOL   H35640862   3.807   7.309   4.359  1.3040  0.4128 -0.7285
   44MOL   H35740863   3.825   7.390   4.495  0.2412  1.3148 -0.0452
   44MOL   H35840864   4.002   7.166   4.414  0.3078  1.9825 -1.2628
   44MOL   H35940865   4.028   7.265   4.558  0.1230  1.2843 -0.0275
   44MOL   H36040866   3.775   7.091   4.524  0.2849  1.9726 -0.4192
   44MOL   H36140867   3.818   7.180   4.663  1.0236  0.2065 -0.0876
   44MOL   H36240868   3.989   6.963   4.531  1.5289  1.1445  0.1317
   44MOL   H36340869   4.030   7.051   4.668  1.3618  1.9892 -3.3012
   44MOL   H36440870   3.868   6.964   4.812 -0.8231 -0.1143 -0.5848
   44MOL   H36540871   3.781   6.894   4.675  0.1931 -0.3979 -0.3357
   44MOL   H36640872   4.059   6.808   4.770 -0.2661 -0.4162  0.0320
   44MOL   H36740873   3.915   6.741   4.833 -0.9430  0.3247  0.6624
   44MOL   H36840874   3.822   6.693   4.593  0.8643 -1.4370 -1.8938
   44MOL   H36940875   3.992   6.714   4.556  2.6916 -3.5368  1.7925
   44MOL   H37040876   3.890   6.532   4.778  4.1162 -1.2373  2.5210
   44MOL   H37140877   4.048   6.524   4.721  0.2705  0.4736 -0.6907
   44MOL   H37240878   3.800   6.467   4.546 -0.0991  0.7330  1.4136
   44MOL   H37340879   3.890   6.343   4.635 -1.4628  0.0413  0.6504
   44MOL   H37440880   4.098   6.179   4.207 -0.0231  0.0360  0.0227
   44MOL   H37540881   4.257   6.225   4.016 -0.7589 -0.0798 -0.5056
   44MOL   H37640882   4.290   6.633   4.146  0.3041  1.1561  1.1269
   44MOL   H37740883   4.159   6.590   4.345  1.7238  0.4307 -0.1066
   44MOL   O37840884   4.488   6.411   3.755  0.2187  0.3865  0.2480
   44MOL   C37940885   4.429   6.418   3.624  0.1999 -0.9048  0.0905
   44MOL   C38040886   4.532   6.443   3.515 -0.2594 -0.0659  0.2944
   44MOL   C38140887   4.456   6.461   3.381 -0.2293 -0.3915  0.3259
   44MOL   C38240888   4.553   6.465   3.260  1.2574  0.5648 -0.1585
   44MOL   C38340889   4.483   6.529   3.136  0.3093  0.0189  0.4430
   44MOL   C38440890   4.589   6.551   3.019  0.3562  0.2087 -0.8420
   44MOL   C38540891   4.704   6.659   3.048  0.6896  0.2270  0.1471
   44MOL   C38640892   4.657   6.806   3.073  0.5979  0.9026  0.5514
   44MOL   C38740893   4.775   6.915   3.079 -0.2914 -0.2061 -0.1919
   44MOL   C38840894   4.752   7.054   3.030 -0.1396 -0.6856  0.9015
   44MOL   O38940895   4.877   7.118   3.033 -1.0267 -0.5848 -0.1779
   44MOL   C39040896   4.883   7.240   2.976  0.2418 -0.1922  0.0742
   44MOL   O39140897   4.791   7.305   2.926  0.5509  0.3363  0.2813
   44MOL   C39240898   5.023   7.294   2.983  0.1547  0.2258 -0.3697
   44MOL   C39340899   5.055   7.410   2.904 -0.5406 -0.5469 -0.0601
   44MOL   C39440900   5.183   7.466   2.911 -0.5025 -0.1147  0.7792
   44MOL   C39540901   5.286   7.401   2.985 -0.0745  0.2559  0.3620
   44MOL   C39640902   5.431   7.448   2.974 -0.1911 -0.8678  0.2878
   44MOL   O39740903   5.471   7.527   2.885 -0.3419  0.1816  0.7203
   44MOL   O39840904   5.509   7.384   3.057 -0.4687  0.1015  0.3356
   44MOL   C39940905   5.252   7.295   3.075 -0.3800  0.0153 -0.5291
   44MOL   C40040906   5.118   7.243   3.072  0.8172 -0.1843 -0.3619
   44MOL   H40140907   4.370   6.328   3.608  0.8015 -1.1933 -0.5288
   44MOL   H40240908   4.351   6.494   3.625 -0.5108 -1.6169 -1.2923
   44MOL   H40340909   4.604   6.361   3.511 -1.8224 -1.5346  1.5935
   44MOL   H40440910   4.585   6.536   3.537 -3.3359  1.6187  0.9064
   44MOL   H40540911   4.376   6.387   3.374 -0.3869 -0.2678  0.8216
   44MOL   H40640912   4.406   6.556   3.397  0.0877 -0.5003  2.1297
   44MOL   H40740913   4.583   6.363   3.237 -2.9216 -0.5426 -1.0421
   44MOL   H40840914   4.647   6.516   3.283  1.4353 -0.0475  0.4944
   44MOL   H40940915   4.408   6.467   3.085 -0.0476  1.5136 -0.9010
   44MOL   H41040916   4.438   6.625   3.163  1.9729  1.7233 -2.5627
   44MOL   H41140917   4.632   6.456   2.988 -0.1262 -1.1237  2.3070
   44MOL   H41240918   4.540   6.588   2.929  0.7973  0.0087 -1.1646
   44MOL   H41340919   4.773   6.615   3.120 -0.6626  0.2703  1.5122
   44MOL   H41440920   4.763   6.667   2.957 -1.1653  0.7618 -1.0365
   44MOL   H41540921   4.588   6.831   2.993  2.2454  0.7114 -0.9385
   44MOL   H41640922   4.604   6.821   3.168  0.5168  0.1283  0.6332
   44MOL   H41740923   4.857   6.882   3.014 -0.7408  0.6916 -1.2289
   44MOL   H41840924   4.813   6.917   3.181  1.8724  0.3621 -0.9647
   44MOL   H41940925   4.682   7.121   3.080 -1.4601  0.2799 -2.1445
   44MOL   H42040926   4.714   7.048   2.928 -1.8783  0.6650  1.4596
   44MOL   H42140927   4.985   7.464   2.842 -0.6849  3.8146  3.6072
   44MOL   H42240928   5.205   7.559   2.860 -3.7424 -0.0914 -0.7194
   44MOL   H42340929   5.329   7.240   3.127 -0.8238  0.0706  0.1964
   44MOL   H42440930   5.102   7.156   3.134  0.6435 -0.7471 -1.1922
   44MOL   O42540931   5.656   7.415   3.044 -0.2241  0.1550 -0.0157
   44MOL   C42640932   5.720   7.287   3.017 -0.0357  0.0337 -0.7499
   44MOL   C42740933   5.707   7.193   3.141 -0.0178  0.8916 -0.2680
   44MOL   C42840934   5.755   7.045   3.124  0.5183 -0.0255  0.4307
   44MOL   C42940935   5.738   6.969   3.254 -0.7937  0.1818  0.4500
   44MOL   C43040936   5.737   6.817   3.245  0.1096  0.1171 -0.0571
   44MOL   C43140937   5.734   6.733   3.372  0.5610  0.0811  1.1217
   44MOL   C43240938   5.611   6.747   3.462  0.3249 -0.7469  0.4298
   44MOL   C43340939   5.641   6.847   3.573 -0.3624 -0.6861  0.2096
   44MOL   C43440940   5.534   6.857   3.675  0.1737 -0.5083  0.0779
   44MOL   C43540941   5.593   6.941   3.795  0.1853  0.5964  0.6144
   44MOL   O43640942   5.638   7.065   3.752 -0.0359 -0.3450  0.1601
   44MOL   C43740943   5.571   7.179   3.749  0.2475  0.1202 -0.6364
   44MOL   O43840944   5.457   7.195   3.788  0.2145  0.0083 -0.0348
   44MOL   C43940945   5.650   7.299   3.698  0.7019 -0.2736  0.4085
   44MOL   C44040946   5.657   7.421   3.766 -0.0053  0.5535  0.0316
   44MOL   C44140947   5.749   7.520   3.735 -0.7916  0.1893  0.2013
   44MOL   C44240948   5.824   7.501   3.622 -0.2582  0.7598  0.0727
   44MOL   C44340949   5.910   7.619   3.584 -0.2140 -0.0106 -0.6493
   44MOL   O44440950   5.911   7.730   3.636 -0.0668 -0.1085 -0.4123
   44MOL   O44540951   5.996   7.594   3.485 -0.0833  0.9336  0.4319
   44MOL   C44640952   5.802   7.387   3.536 -0.1349 -0.7199 -0.3188
   44MOL   C44740953   5.721   7.282   3.575  0.5142 -0.7500  0.3065
   44MOL   H44840954   5.669   7.250   2.928  0.5392 -1.2797 -0.5441
   44MOL   H44940955   5.822   7.303   2.982  0.6222  0.1931  1.1893
   44MOL   H45040956   5.604   7.197   3.175 -0.2594  0.3985 -0.9371
   44MOL   H45140957   5.768   7.239   3.219 -1.5786  1.8611  0.3952
   44MOL   H45240958   5.701   6.983   3.053 -0.8942  0.3778  1.1493
   44MOL   H45340959   5.858   7.033   3.090  0.7734 -0.0061  1.1805
   44MOL   H45440960   5.642   6.999   3.297 -0.6241  1.2589  0.0825
   44MOL   H45540961   5.806   7.007   3.330 -1.1141  0.8793  0.3872
   44MOL   H45640962   5.650   6.793   3.184 -0.4036  0.2258  0.6366
   44MOL   H45740963   5.836   6.791   3.206  0.6316  0.2742  1.1424
   44MOL   H45840964   5.747   6.627   3.353 -1.1870 -0.0217  0.4223
   44MOL   H45940965   5.825   6.759   3.427  0.5661  0.2022  1.0565
   44MOL   H46040966   5.525   6.773   3.401  0.8368  2.0364  0.8332
   44MOL   H46140967   5.597   6.644   3.495 -0.9061  0.1434  2.8357
   44MOL   H46240968   5.725   6.811   3.632  1.1589  0.3299 -1.2787
   44MOL   H46340969   5.673   6.943   3.533 -0.3952 -0.4148  0.8337
   44MOL   H46440970   5.506   6.754   3.698  0.8921 -0.6014  0.5779
   44MOL   H46540971   5.447   6.910   3.636  0.8842  1.8729  1.6134
   44MOL   H46640972   5.679   6.891   3.838  0.3030 -0.4933 -0.8489
   44MOL   H46740973   5.526   6.952   3.880  0.3476 -0.9540  0.9470
   44MOL   H46840974   5.597   7.443   3.854 -0.4650 -0.2372 -0.0856
   44MOL   H46940975   5.748   7.604   3.803 -1.1597  0.7163 -0.4458
   44MOL   H47040976   5.852   7.380   3.440  1.7510  2.5858  0.3553
   44MOL   H47140977   5.700   7.199   3.509 -1.0767 -0.7817  0.8231
   44MOL   O47240978   6.063   7.716   3.432  0.9811  0.2553  0.6616
   44MOL   C47340979   6.183   7.743   3.499 -0.1181  0.8680  0.6070
   44MOL   C47440980   6.278   7.848   3.447 -0.2706 -0.1870  0.2881
   44MOL   C47540981   6.342   7.810   3.309  0.2061  0.0391 -0.1872
   44MOL   C47640982   6.479   7.881   3.286 -0.2077 -0.7017 -0.1609
   44MOL   C47740983   6.554   7.848   3.161 -1.2261 -0.0889  0.0712
   44MOL   C47840984   6.473   7.903   3.041 -0.0510 -0.0961 -0.7386
   44MOL   C47940985   6.468   0.076   3.028  0.4728 -0.9303  0.2305
   44MOL   C48040986   6.453   0.123   2.885  0.7254 -0.5483  1.2591
   44MOL   C48140987   6.446   0.278   2.869  0.4327 -0.2421  0.7068
   44MOL   C48240988   6.413   0.328   2.729  0.1990 -0.6683  0.1303
   44MOL   O48340989   6.471   0.257   2.628 -0.3022  0.2142  0.1062
   44MOL   C48440990   6.581   0.301   2.567  0.4029 -0.0540 -0.4120
   44MOL   O48540991   6.631   0.412   2.599  0.0874  0.2980 -0.1646
   44MOL   C48640992   6.620   0.208   2.459  0.5969 -0.0019  0.3527
   44MOL   C48740993   6.721   0.243   2.369  0.0170 -0.5422 -0.0978
   44MOL   C48840994   6.757   0.161   2.263  0.2131 -0.1771  0.7970
   44MOL   C48940995   6.683   0.043   2.239  0.6696 -0.5755 -0.0575
   44MOL   C49040996   6.712   7.934   2.123  0.5446 -0.2451  0.8197
   44MOL   O49140997   6.784   7.966   2.034  1.0703 -0.2568  0.4303
   44MOL   O49240998   6.650   7.819   2.130 -0.0413 -0.1436 -0.0251
   44MOL   C49340999   6.587   0.008   2.334 -0.2937  0.1402 -0.4512
   44MOL   C49441000   6.560   0.080   2.449 -0.1583 -0.0628  0.0303
   44MOL   H49541001   6.161   7.774   3.601  3.1576  0.3393  1.5126
   44MOL   H49641002   6.235   7.647   3.493 -2.4042 -0.3188 -1.3620
   44MOL   H49741003   6.361   7.870   3.513  1.6312 -1.9557 -1.4152
   44MOL   H49841004   6.228   7.944   3.432  2.1947  1.2650  1.2677
   44MOL   H49941005   6.357   7.702   3.303  0.5714  0.1248 -0.8332
   44MOL   H50041006   6.276   7.855   3.235  0.6932  2.1850  0.6442
   44MOL   H50141007   6.551   7.860   3.365  0.4734 -0.3441 -0.6852
   44MOL   H50241008   6.453   0.009   3.288  1.3585 -0.2939 -0.8451
   44MOL   H50341009   6.646   7.904   3.173 -2.3488  1.8459 -0.1479
   44MOL   H50441010   6.586   7.744   3.146  0.3834  0.4010  0.0166
   44MOL   H50541011   6.518   7.865   2.949  1.0767  0.4203 -0.4104
   44MOL   H50641012   6.371   7.864   3.035 -0.0047 -0.1183 -1.4370
   44MOL   H50741013   6.378   0.112   3.078  1.1629  1.1441  0.0221
   44MOL   H50841014   6.557   0.114   3.077  1.0485 -0.5969 -1.0663
   44MOL   H50941015   6.541   0.090   2.829 -0.0019  1.5714 -1.2537
   44MOL   H51041016   6.368   0.081   2.831  2.6301  0.0049 -2.3381
   44MOL   H51141017   6.549   0.312   2.876  0.5800 -0.3204 -0.7821
   44MOL   H51241018   6.379   0.319   2.944  0.5065  0.1298  0.5708
   44MOL   H51341019   6.415   0.435   2.708 -0.4411 -0.5175  0.8195
   44MOL   H51441020   6.304   0.319   2.731 -0.3431  4.2925  3.0936
   44MOL   H51541021   6.771   0.338   2.377  0.9966 -1.1085  0.8317
   44MOL   H51641022   6.829   0.184   2.186  2.3996 -0.9752  2.5651
   44MOL   H51741023   6.527   7.899   2.311  0.2729 -0.4465  0.2532
   44MOL   H51841024   6.497   0.040   2.527 -0.2715 -0.8057 -0.4356
   44MOL   O51941025   6.649   7.748   2.000 -0.1874 -0.3103  0.2462
   44MOL   C52041026   6.746   7.644   2.008  0.6543 -0.2819 -0.1805
   44MOL   C52141027   6.729   7.556   1.880  0.8912 -0.1145 -0.1831
   44MOL   C52241028   6.594   7.497   1.883 -1.3572 -0.4116  0.4852
   44MOL   C52341029   6.569   7.378   1.792 -0.4919 -0.1952 -0.1434
   44MOL   C52441030   6.438   7.305   1.825 -0.0373  0.0286 -0.1949
   44MOL   C52541031   6.405   7.195   1.723 -0.1339  0.6221  0.0985
   44MOL   C52641032   6.278   7.107   1.738  0.6978  0.1545 -0.3083
   44MOL   C52741033   6.280   6.975   1.665 -0.1991  0.0555 -0.2033
   44MOL   C52841034   6.142   6.925   1.652  0.2157 -0.2895  0.3224
   44MOL   C52941035   6.131   6.798   1.563  0.1579 -0.0066  0.1532
   44MOL   O53041036   6.186   6.820   1.432  0.0811  0.2947 -0.3904
   44MOL   C53141037   6.137   6.745   1.333  0.3090  0.3383 -1.0146
   44MOL   O53241038   6.075   6.642   1.344 -0.1568  0.0455  0.0037
   44MOL   C53341039   6.152   6.808   1.201  0.3830 -0.2291 -0.7000
   44MOL   C53441040   6.117   6.727   1.088 -0.5158 -0.1811  0.4414
   44MOL   C53541041   6.130   6.782   0.959 -0.2761 -0.4457 -0.4862
   44MOL   C53641042   6.184   6.908   0.934  0.6524  0.1500  0.7214
   44MOL   C53741043   6.191   6.970   0.799  0.1720  0.5121  0.4769
   44MOL   O53841044   6.180   6.902   0.695  0.3870 -0.4835  0.5708
   44MOL   O53941045   6.217   7.099   0.798  0.2884 -0.4561 -0.5555
   44MOL   C54041046   6.214   6.992   1.043 -0.6647  0.6258  0.1384
   44MOL   C54141047   6.199   6.940   1.178  0.3430  0.0629 -0.8658
   44MOL   H54241048   6.842   7.695   2.009  0.7237 -0.3687  3.2375
   44MOL   H54341049   6.725   7.593   2.102  1.1415  0.7291  0.4849
   44MOL   H54441050   6.806   7.479   1.882 -1.1301 -2.2610 -2.5185
   44MOL   H54541051   6.741   7.612   1.788  3.2851 -1.6063 -0.8021
   44MOL   H54641052   6.567   7.458   1.981  1.6018  0.0973  1.5294
   44MOL   H54741053   6.513   7.568   1.864 -1.0266 -0.3455 -0.7260
   44MOL   H54841054   6.660   7.320   1.802 -0.1194  0.7926  2.9620
   44MOL   H54941055   6.577   7.400   1.685  1.0787 -1.6337 -0.3363
   44MOL   H55041056   6.451   7.250   1.918 -0.9007  3.1383  1.8413
   44MOL   H55141057   6.368   7.388   1.829  1.0250  0.8583  2.3279
   44MOL   H55241058   6.411   7.226   1.619 -0.6333  0.8616  0.1452
   44MOL   H55341059   6.489   7.126   1.738  0.2824  1.2055  0.5063
   44MOL   H55441060   6.266   7.092   1.846 -0.4605 -0.8297 -0.5629
   44MOL   H55541061   6.199   7.169   1.698  2.7682  2.4271 -0.9409
   44MOL   H55641062   6.311   6.990   1.561 -2.4141  0.9425 -0.7804
   44MOL   H55741063   6.343   6.899   1.710 -1.1286 -1.3659 -1.2662
   44MOL   H55841064   6.072   7.001   1.618  1.1674 -0.7016 -2.6292
   44MOL   H55941065   6.114   6.900   1.755 -2.9238 -1.7407 -0.8043
   44MOL   H56041066   6.025   6.772   1.573  0.2983 -0.8412 -0.5045
   44MOL   H56141067   6.187   6.713   1.601  0.6458  0.6781  0.9877
   44MOL   H56241068   6.075   6.629   1.105  0.0529  0.0590  3.4733
   44MOL   H56341069   6.103   6.730   0.868 -1.7803  0.5780 -0.6399
   44MOL   H56441070   6.244   7.094   1.025 -2.5314  0.9915 -1.0089
   44MOL   H56541071   6.218   7.002   1.264 -0.2371  0.3851 -0.9714
   44MOL   O56641072   6.200   7.172   0.673  0.7271  0.4594  0.1768
   44MOL   C56741073   6.083   7.241   0.677  0.4304  0.3896 -0.3285
   44MOL   C56841074   6.100   7.387   0.727  0.1034 -0.4791 -0.6844
   44MOL   C56941075   5.965   7.463   0.729  0.0886  0.5200  0.3426
   44MOL   C57041076   5.956   7.605   0.790 -0.0084  0.4500 -0.4744
   44MOL   C57141077   5.809   7.645   0.779  0.2492 -0.3572  0.0927
   44MOL   C57241078   5.782   7.793   0.805  0.1256  0.1477  0.6878
   44MOL   C57341079   5.826   7.885   0.693 -0.0776 -0.0080  0.7288
   44MOL   C57441080   5.793   0.057   0.721 -0.0871  0.1449 -0.5736
   44MOL   C57541081   5.834   0.152   0.613 -0.8185  0.4107  0.0075
   44MOL   C57641082   5.822   0.290   0.678 -0.1561 -0.8966  0.1595
   44MOL   O57741083   5.811   0.390   0.578 -0.1998 -0.0731  0.1093
   44MOL   C57841084   5.685   0.443   0.553  0.1183  0.9168  0.3530
   44MOL   O57941085   5.585   0.429   0.628 -0.8654  0.5478  1.1029
   44MOL   C58041086   5.683   0.527   0.431  0.2764 -0.3188 -0.2611
   44MOL   C58141087   5.793   0.592   0.377  0.2333 -0.0878  0.7025
   44MOL   C58241088   5.780   0.674   0.263  0.3758 -0.3854  0.0499
   44MOL   C58341089   5.652   0.703   0.206  0.2867  0.1260  0.3389
   44MOL   C58441090   5.650   0.803   0.094 -0.2197 -0.2932 -0.2289
   44MOL   O58541091   5.741   0.808   0.016 -0.1221 -0.2282  0.1415
   44MOL   O58641092   5.550   0.895   0.098 -0.5704 -0.0510 -0.3427
   44MOL   C58741093   5.534   0.654   0.273 -0.1379 -0.2243  0.2053
   44MOL   C58841094   5.555   0.562   0.380  0.0119 -0.0627  0.1231
   44MOL   H58941095   6.041   7.247   0.577 -0.4768  1.6118  0.1076
   44MOL   H59041096   6.007   7.197   0.741  1.1570 -1.6833 -0.8632
   44MOL   H59141097   6.171   7.435   0.659  0.7653 -1.2152 -0.5220
   44MOL   H59241098   6.130   7.385   0.831 -0.8336 -0.5893 -0.4155
   44MOL   H59341099   5.915   7.456   0.632 -1.4260 -0.7276  1.1763
   44MOL   H59441100   5.908   7.392   0.790  2.9411 -3.3423 -1.3153
   44MOL   H59541101   6.021   7.676   0.738  0.2073  0.1614 -0.6083
   44MOL   H59641102   5.986   7.610   0.894 -2.9268  0.9215  0.3828
   44MOL   H59741103   5.774   7.595   0.689  1.2817  1.2902 -1.2642
   44MOL   H59841104   5.763   7.579   0.853  0.5246  0.2999  0.8525
   44MOL   H59941105   5.676   7.814   0.814  0.3466  1.6043  0.0885
   44MOL   H60041106   5.833   7.824   0.896 -1.4159 -1.1619  2.0214
   44MOL   H60141107   5.930   7.867   0.667 -0.8834 -2.4911 -1.0286
   44MOL   H60241108   5.783   7.848   0.599  1.0894  0.8396 -0.1633
   44MOL   H60341109   5.685   0.068   0.723 -0.3374 -2.1681  0.0375
   44MOL   H60441110   5.836   0.083   0.817 -2.1842  2.2277 -0.1566
   44MOL   H60541111   5.770   0.133   0.526  0.1053 -2.0123 -0.1947
   44MOL   H60641112   5.938   0.148   0.583 -0.1758 -0.3112  2.2847
   44MOL   H60741113   5.918   0.305   0.726  0.4841 -0.7509 -1.1459
   44MOL   H60841114   5.747   0.298   0.756 -0.9438  0.9001 -0.7508
   44MOL   H60941115   5.895   0.579   0.410  0.2729  2.2964  1.6404
   44MOL   H61041116   5.869   0.713   0.216  0.5543  0.8098  1.3365
   44MOL   H61141117   5.431   0.679   0.252 -0.1621 -0.2928  0.2431
   44MOL   H61241118   5.470   0.520   0.431  1.2877 -1.0239  1.5324
   44MOL   O61341119   5.554   0.994   7.959  0.2298  0.2284 -0.0439
   44MOL   C61441120   5.617   1.115   0.022  0.5450  0.0241  0.4407
   44MOL   C61541121   5.600   1.240   7.906 -0.2592 -0.6824  0.0095
   44MOL   C61641122   5.474   1.322   7.923  0.6189 -0.5443 -0.4191
   44MOL   C61741123   5.457   1.431   7.815 -0.4713  0.3812 -0.3830
   44MOL   C61841124   5.323   1.500   7.820 -0.4539  0.0704  0.3503
   44MOL   C61941125   5.321   1.623   7.730  0.3447  0.2959  0.0492
   44MOL   C62041126   5.180   1.688   7.722  0.1202 -0.5474  0.0249
   44MOL   C62141127   5.075   1.589   7.660  0.3084  0.0250  0.0545
   44MOL   C62241128   4.942   1.668   7.633  0.1218 -0.3253 -0.2449
   44MOL   C62341129   4.833   1.586   7.562  0.2377  0.4128  0.0008
   44MOL   O62441130   4.885   1.551   7.433 -0.3609 -0.5947 -0.4225
   44MOL   C62541131   4.864   1.631   7.326  0.8929  0.6456  0.0531
   44MOL   O62641132   4.830   1.748   7.331  0.2383 -0.0666  0.2743
   44MOL   C62741133   4.863   1.561   7.195  0.1896  0.3138 -0.0492
   44MOL   C62841134   4.890   1.420   7.183  0.0515  0.4538  0.3432
   44MOL   C62941135   4.899   1.354   7.062  0.6222 -0.0921  0.5739
   44MOL   C63041136   4.879   1.428   6.939 -0.3275 -0.2932 -0.8841
   44MOL   C63141137   4.901   1.377   6.801 -0.5499 -0.1729 -0.0726
   44MOL   O63241138   4.909   1.447   6.698 -0.4464 -0.9126 -0.0431
   44MOL   O63341139   4.912   1.237   6.788  0.2255 -0.0714 -0.5079
   44MOL   C63441140   4.846   1.566   6.952 -0.0152 -0.0296 -0.3889
   44MOL   C63541141   4.830   1.632   7.077 -0.2016 -0.1014 -0.1273
   44MOL   H63641142   5.575   1.136   0.120 -0.6569 -0.5439  0.0573
   44MOL   H63741143   5.724   1.096   0.033  0.5742  0.0501  0.2150
   44MOL   H63841144   5.592   1.203   7.803 -1.8420  0.9406 -0.4717
   44MOL   H63941145   5.684   1.309   7.915 -1.2119  0.6897 -1.3567
   44MOL   H64041146   5.383   1.262   7.926  0.3608 -0.1340 -0.1390
   44MOL   H64141147   5.474   1.362   0.046  0.9882 -0.4892 -0.4384
   44MOL   H64241148   5.484   1.383   7.721  1.1181 -0.2857  0.3995
   44MOL   H64341149   5.534   1.506   7.834 -0.3022  0.1065  0.0027
   44MOL   H64441150   5.253   1.428   7.778 -0.1498  0.2511 -0.4857
   44MOL   H64541151   5.291   1.532   7.919 -0.6068 -1.2941  0.7548
   44MOL   H64641152   5.398   1.697   7.754 -1.0768  1.4169  1.2515
   44MOL   H64741153   5.352   1.603   7.628  0.8464 -3.1566  0.8289
   44MOL   H64841154   5.141   1.704   7.822 -0.1124  1.9461 -0.4238
   44MOL   H64941155   5.177   1.778   7.661  0.5208 -1.0973 -0.8168
   44MOL   H65041156   5.113   1.532   7.575 -0.3271  0.9375 -0.8497
   44MOL   H65141157   5.056   1.520   7.742 -0.1683 -0.7942 -0.7388
   44MOL   H65241158   4.970   1.749   7.564 -1.8413  0.0431 -0.6489
   44MOL   H65341159   4.911   1.717   7.725 -0.2345 -0.3656 -0.3422
   44MOL   H65441160   4.735   1.635   7.559  0.4623  0.8992  0.4034
   44MOL   H65541161   4.810   1.495   7.617 -0.1905  0.6211  0.1722
   44MOL   H65641162   4.892   1.353   7.268 -0.6886 -2.0481 -1.5394
   44MOL   H65741163   4.916   1.248   7.062 -0.6560 -0.3816 -2.8241
   44MOL   H65841164   4.833   1.622   6.861  0.0821  0.2976 -0.2044
   44MOL   H65941165   4.814   1.738   7.081  1.3752  0.1798 -0.6567
   44MOL   O66041166   4.982   1.200   6.662 -0.2536 -0.0198 -0.1482
   44MOL   C66141167   5.120   1.215   6.690  0.1473  0.4944 -0.1698
   44MOL   C66241168   5.201   1.190   6.561  0.3929  0.0522 -0.5208
   44MOL   C66341169   5.354   1.172   6.571 -0.2445 -0.3833  0.8093
   44MOL   C66441170   5.423   1.260   6.469 -0.1446  0.1498 -0.2967
   44MOL   C66541171   5.578   1.254   6.467 -0.3354 -0.2995 -0.0627
   44MOL   C66641172   5.640   1.354   6.370 -0.6055  0.3353  0.4771
   44MOL   C66741173   5.683   1.490   6.435 -0.6678  0.0283 -0.0183
   44MOL   C66841174   5.723   1.592   6.325 -0.5277 -0.2456 -0.6052
   44MOL   C66941175   5.857   1.576   6.251  0.3031 -0.3976  0.0641
   44MOL   C67041176   5.979   1.608   6.332 -0.1086 -1.1573  0.2341
   44MOL   O67141177   5.986   1.502   6.426  0.4491  0.0954  0.0589
   44MOL   C67241178   6.076   1.517   6.537 -0.1514 -0.6950  0.5245
   44MOL   O67341179   6.152   1.616   6.555 -0.4032  0.7547  0.0640
   44MOL   C67441180   6.075   1.394   6.612  0.0919 -0.1761  0.1525
   44MOL   C67541181   6.001   1.276   6.576 -1.4252  0.4003 -0.5011
   44MOL   C67641182   6.007   1.168   6.665 -0.5760 -0.2654  0.5985
   44MOL   C67741183   6.094   1.166   6.773 -0.2074  0.0930 -0.9773
   44MOL   C67841184   6.106   1.041   6.861 -0.4740 -0.2030 -0.3108
   44MOL   O67941185   6.133   1.053   6.978  0.5229 -0.4666 -0.0897
   44MOL   O68041186   6.079   0.919   6.801 -0.1896  0.3712 -0.1485
   44MOL   C68141187   6.172   1.280   6.806  0.1049  0.5631 -0.0982
   44MOL   C68241188   6.163   1.394   6.724  0.0070 -0.3490 -0.1727
   44MOL   H68341189   5.153   1.313   6.723  1.0966  0.7494 -1.8034
   44MOL   H68441190   5.153   1.151   6.772 -3.5693  0.5575  1.4463
   44MOL   H68541191   5.179   1.275   6.496  0.1847 -0.4975 -1.1862
   44MOL   H68641192   5.161   1.099   6.516  0.5776 -1.0254  1.4508
   44MOL   H68741193   5.395   1.194   6.669  1.6863  0.4504 -0.1590
   44MOL   H68841194   5.376   1.067   6.550 -1.4080 -0.2631 -1.1711
   44MOL   H68941195   5.396   1.360   6.504  2.6558  0.2246  1.7965
   44MOL   H69041196   5.389   1.236   6.368 -0.9975 -1.2171  0.3091
   44MOL   H69141197   5.615   1.268   6.569 -1.3005 -1.3730  0.4552
   44MOL   H69241198   5.597   1.152   6.434  4.1905  0.5100 -0.3389
   44MOL   H69341199   5.739   1.316   6.343 -0.6670 -1.0576  2.1090
   44MOL   H69441200   5.582   1.378   6.281  1.3222 -2.3533 -1.6235
   44MOL   H69541201   5.601   1.529   6.495 -0.4205 -0.5221  0.6859
   44MOL   H69641202   5.765   1.482   6.507  0.1821 -0.1426 -0.9922
   44MOL   H69741203   5.653   1.602   6.242  0.7583 -1.6213 -1.8807
   44MOL   H69841204   5.729   1.687   6.379  0.0837  0.5219 -1.9882
   44MOL   H69941205   5.846   1.638   6.163 -2.5124 -1.7290 -0.5674
   44MOL   H70041206   5.878   1.476   6.213 -0.5831 -1.5031  2.3385
   44MOL   H70141207   5.961   1.698   6.391  2.1490 -1.8082  2.0004
   44MOL   H70241208   6.069   1.604   6.271 -0.1791  0.0463  0.0338
   44MOL   H70341209   5.922   1.267   6.503 -0.6570 -0.1016 -1.2782
   44MOL   H70441210   5.946   1.080   6.649  0.8261 -1.2760  0.7987
   44MOL   H70541211   6.235   1.283   6.894 -1.9237  1.7409  1.3610
   44MOL   H70641212   6.220   1.479   6.758  0.7512 -1.2268  0.8040
   44MOL   O70741213   6.016   0.814   6.892  0.1620 -0.2160  0.4725
   44MOL   C70841214   6.124   0.733   6.945 -0.4899  0.6787 -0.6411
   44MOL   C70941215   6.058   0.627   7.030 -0.2081 -0.1597 -0.7800
   44MOL   C71041216   6.156   0.531   7.090 -0.1645  0.1208 -0.6593
   44MOL   C71141217   6.096   0.457   7.214 -0.9989  0.5146  0.3795
   44MOL   C71241218   6.206   0.373   7.281  0.2113  0.3827  0.0796
   44MOL   C71341219   6.155   0.324   7.415 -0.1147 -0.2553 -0.0707
   44MOL   C71441220   6.262   0.247   7.491  0.1832  0.3855  0.7056
   44MOL   C71541221   6.214   0.185   7.627 -0.0378  0.0014 -0.7900
   44MOL   C71641222   6.305   0.118   7.724  0.0351 -0.4855 -0.3834
   44MOL   C71741223   6.249   0.131   7.862  0.6290  0.5099 -0.7639
   44MOL   O71841224   6.297   0.256   7.912 -0.0884 -0.0064 -0.0936
   44MOL   C71941225   6.354   0.265   0.055 -0.4024 -0.2204  0.2389
   44MOL   O72041226   6.389   0.173   0.128  0.0490  0.5633  0.0830
   44MOL   C72141227   6.384   0.405   0.093 -0.1197 -0.7013  0.0033
   44MOL   C72241228   6.315   0.513   0.026  0.7032 -0.3746  0.6218
   44MOL   C72341229   6.348   0.644   0.050  0.4891 -0.7180  0.5199
   44MOL   C72441230   6.454   0.676   0.138  0.3609  0.4200 -0.3340
   44MOL   C72541231   6.485   0.817   0.169 -0.0395 -1.0105 -0.8028
   44MOL   O72641232   6.498   0.860   0.286 -0.1356 -0.5142  0.4443
   44MOL   O72741233   6.493   0.891   0.057  0.2730 -0.3535 -0.5641
   44MOL   C72841234   6.515   0.572   0.210 -0.6575  0.6546  0.1602
   44MOL   C72941235   6.479   0.437   0.188 -0.2212  0.0404 -0.1431
   44MOL   H73041236   6.186   0.686   6.869 -1.9087 -0.1607 -1.3066
   44MOL   H73141237   6.188   0.799   7.004  0.8245 -2.7110  1.8811
   44MOL   H73241238   5.992   0.570   6.964 -1.5786  1.3991 -0.7899
   44MOL   H73341239   5.993   0.664   7.109  2.5835 -0.0525  1.5164
   44MOL   H73441240   6.185   0.455   7.018  3.6233  1.0398 -0.2075
   44MOL   H73541241   6.239   0.595   7.120  0.6443  0.4650 -3.4874
   44MOL   H73641242   6.008   0.396   7.191 -1.0767  1.1540 -1.0809
   44MOL   H73741243   6.060   0.539   7.276  4.0931  0.4982  3.6238
   44MOL   H73841244   6.230   0.291   7.214  2.1074 -1.7232  3.2238
   44MOL   H73941245   6.299   0.428   7.292  0.6030  0.1561 -1.8561
   44MOL   H74041246   6.127   0.413   7.470 -0.8320  0.1162 -1.0181
   44MOL   H74141247   6.071   0.256   7.401  0.1753 -0.5976 -0.1649
   44MOL   H74241248   6.316   0.172   7.432  1.2483  1.3198  0.4689
   44MOL   H74341249   6.340   0.313   7.530  0.8778 -0.2246  0.3672
   44MOL   H74441250   6.173   0.267   7.686  1.2432  0.0823  0.0129
   44MOL   H74541251   6.132   0.120   7.595 -0.2200 -0.0667 -0.1896
   44MOL   H74641252   6.403   0.163   7.712 -0.0703 -0.3012 -0.5471
   44MOL   H74741253   6.315   0.012   7.697 -1.5029 -0.3060 -1.7345
   44MOL   H74841254   6.290   0.041   7.907 -1.5878  0.2604  0.8003
   44MOL   H74941255   6.145   0.108   7.881  0.7943  0.3561 -0.0153
   44MOL   H75041256   6.228   0.488   7.944 -0.1436 -0.9673  2.0636
   44MOL   H75141257   6.296   0.728   0.006  0.4824 -0.3341  1.2472
   44MOL   H75241258   6.588   0.598   0.285 -2.7843  1.3943  2.0082
   44MOL   H75341259   6.522   0.360   0.250 -0.6491  1.8592  2.5079
   44MOL   O75441260   6.555   1.033   0.078  0.4639 -0.8368 -0.0138
   44MOL   C75541261   6.446   1.119   0.100 -0.3287 -0.1031  0.1152
   44MOL   C75641262   6.496   1.263   0.075  0.3766 -0.6225 -0.0471
   44MOL   C75741263   6.381   1.364   0.099 -0.4060  0.5322 -0.0108
   44MOL   C75841264   6.413   1.507   0.062 -0.1001  0.5113  0.2638
   44MOL   C75941265   6.506   1.574   0.154 -0.2187  1.0425 -0.9003
   44MOL   C76041266   6.526   1.716   0.119  0.2969 -0.3034  0.7346
   44MOL   C76141267   6.499   1.805   0.246 -0.0588  1.1879 -0.3698
   44MOL   C76241268   6.534   1.950   0.228  0.1846  0.4741  0.1371
   44MOL   C76341269   6.434   2.031   0.162 -0.2591 -0.1596 -0.0825
   44MOL   C76441270   6.465   2.177   0.142  0.1751 -0.1575  0.4017
   44MOL   O76541271   6.592   2.194   0.084  0.2235  0.2446 -0.4109
   44MOL   C76641272   6.632   2.314   0.044 -0.1845 -0.1511 -0.5123
   44MOL   O76741273   6.561   2.414   0.054 -0.2561 -0.0933 -0.1003
   44MOL   C76841274   6.767   2.313   7.963  0.2205 -0.5469 -0.2358
   44MOL   C76941275   6.839   2.198   7.948 -0.2587  0.0748  0.4953
   44MOL   C77041276   6.973   2.197   7.893 -0.1884  0.1899  0.1279
   44MOL   C77141277   7.038   2.312   7.865  1.2305  0.2774 -0.6849
   44MOL   C77241278   7.173   2.310   7.800  0.1802 -0.0556 -0.1804
   44MOL   O77341279   7.219   2.206   7.754 -0.5445  0.0260 -0.3975
   44MOL   O77441280   7.232   2.428   7.802 -0.1961  0.3070 -0.4393
   44MOL   C77541281   6.974   2.433   7.894 -0.5396 -0.2733  0.7092
   44MOL   C77641282   6.837   2.436   7.935  0.2118  0.8072 -0.5439
   44MOL   H77741283   6.361   1.096   0.036 -0.9520  0.6328  0.6747
   44MOL   H77841284   6.413   1.111   0.204  0.8211 -0.4333  0.4656
   44MOL   H77941285   6.530   1.267   7.949 -0.9292  1.8418 -0.4297
   44MOL   H78041286   6.580   1.290   0.139 -0.6471  0.5052  0.8525
   44MOL   H78141287   6.297   1.338   0.034  0.6871  0.8570 -1.5736
   44MOL   H78241288   6.354   1.362   0.205 -0.2185 -0.4150  0.0248
   44MOL   H78341289   6.315   1.555   0.066 -1.1734 -1.5995  0.3445
   44MOL   H78441290   6.447   1.503   7.937 -2.4343 -0.2909 -0.5069
   44MOL   H78541291   6.471   1.547   0.253  2.0117  2.4223  0.3117
   44MOL   H78641292   6.603   1.526   0.139 -2.2591 -3.0763 -1.4203
   44MOL   H78741293   6.617   1.744   0.067 -0.5054  1.0815  0.0294
   44MOL   H78841294   6.444   1.732   0.048  0.1662  1.6409  1.2891
   44MOL   H78941295   6.403   1.801   0.298  1.7429  3.0586  3.3321
   44MOL   H79041296   6.566   1.769   0.324  0.2406  0.3544 -1.0051
   44MOL   H79141297   6.546   1.993   0.328 -0.0987 -1.7967  1.1652
   44MOL   H79241298   6.636   1.956   0.189  0.0803  1.4201 -0.0153
   44MOL   H79341299   6.349   2.016   0.228  0.6430 -1.8571  0.7376
   44MOL   H79441300   6.413   1.990   0.064 -1.8689 -2.0672  1.0263
   44MOL   H79541301   6.472   2.228   0.237 -1.9682  0.6728  0.1573
   44MOL   H79641302   6.382   2.230   0.096  0.0558  1.1014  2.0416
   44MOL   H79741303   6.786   2.105   7.962 -2.8207  1.2624 -0.8943
   44MOL   H79841304   7.004   2.098   7.861 -0.8604  0.6416 -2.0207
   44MOL   H79941305   7.027   2.525   7.873  1.1182 -1.3933 -0.2222
   44MOL   H80041306   6.784   2.529   7.946 -0.3830  0.1857  2.3412
   44MOL   O80141307   7.364   2.438   7.725  0.3387 -0.8512  0.2099
   44MOL   C80241308   7.476   2.394   7.811  0.1827  0.0404 -0.0948
   44MOL   C80341309   7.601   2.402   7.721  0.6294 -0.1484  0.1497
   44MOL   C80441310   7.728   2.376   7.810 -0.5518  0.4749 -0.5538
   44MOL   C80541311   7.863   2.326   7.741  0.2830 -0.8000 -0.8220
   44MOL   C80641312   0.008   2.305   7.838  0.0619 -0.7461  0.6675
   44MOL   C80741313   0.131   2.261   7.760  0.3183 -0.5308  0.5429
   44MOL   C80841314   0.257   2.243   7.851  0.1879  0.6372  0.4793
   44MOL   C80941315   0.379   2.205   7.764 -0.0895  0.6210 -0.3691
   44MOL   C81041316   0.373   2.072   7.678 -0.3363  0.0178 -0.3755
   44MOL   C81141317   0.466   2.065   7.560 -0.1149  0.4613  0.1926
   44MOL   O81241318   0.435   2.178   7.479  0.4198  0.3821  0.0773
   44MOL   C81341319   0.526   2.242   7.403 -0.2988 -0.4099 -1.2003
   44MOL   O81441320   0.645   2.206   7.385 -0.1949 -0.2417  0.2915
   44MOL   C81541321   0.467   2.363   7.330  0.6714 -0.0380 -0.3258
   44MOL   C81641322   0.541   2.419   7.223 -0.1583 -0.3485 -0.2487
   44MOL   C81741323   0.485   2.532   7.157  0.2468  0.4003 -0.0374
   44MOL   C81841324   0.364   2.594   7.199 -0.4931  0.1742 -0.3234
   44MOL   C81941325   0.304   2.715   7.137  0.0976  0.1500 -0.4482
   44MOL   O82041326   0.200   2.769   7.170 -0.0768 -0.2898 -0.2084
   44MOL   O82141327   0.377   2.764   7.035 -0.2095 -0.4847  0.2484
   44MOL   C82241328   0.300   2.535   7.306 -0.5289 -0.0119 -0.0049
   44MOL   C82341329   0.349   2.427   7.371 -0.3646  0.5159 -0.3758
   44MOL   H82441330   7.478   2.468   7.892 -0.6980  0.2785 -0.2844
   44MOL   H82541331   7.450   2.293   7.842  0.4386 -0.5628 -1.8121
   44MOL   H82641332   7.604   2.506   7.689 -1.0355 -0.8549 -2.4696
   44MOL   H82741333   7.592   2.340   7.632  0.7326 -0.6883  0.5095
   44MOL   H82841334   7.739   2.462   7.876 -1.3736  1.3375 -1.5231
   44MOL   H82941335   7.696   2.295   7.877 -0.3267  1.2587  0.5151
   44MOL   H83041336   7.887   2.382   7.650 -0.3008 -0.3661 -0.7145
   44MOL   H83141337   7.844   2.227   7.699  0.6418 -1.7688  1.2359
   44MOL   H83241338   0.039   2.396   7.890 -2.2902  0.0704  0.6929
   44MOL   H83341339   7.970   2.224   7.909  1.7338  0.1319  2.0964
   44MOL   H83441340   0.101   2.166   7.715 -1.3011 -0.4294  1.3678
   44MOL   H83541341   0.152   2.333   7.680 -2.0574 -1.0848 -0.6320
   44MOL   H83641342   0.279   2.332   7.910  0.5074  0.6388  0.3599
   44MOL   H83741343   0.240   2.170   7.931 -1.6295 -0.9762 -1.2958
   44MOL   H83841344   0.405   2.286   7.695 -0.2904  1.3109  0.3531
   44MOL   H83941345   0.470   2.214   7.823  0.3248 -0.3606 -0.8546
   44MOL   H84041346   0.273   2.052   7.640  0.8065 -3.2591 -1.8348
   44MOL   H84141347   0.397   1.997   7.754 -1.2550  1.8500  1.7837
   44MOL   H84241348   0.467   1.977   7.495 -0.2568  0.0999  0.6712
   44MOL   H84341349   0.568   2.063   7.598  0.0416  1.0129 -0.1977
   44MOL   H84441350   0.637   2.376   7.200  1.6448  1.4468  3.5780
   44MOL   H84541351   0.532   2.576   7.070 -0.1828 -1.3829 -1.1940
   44MOL   H84641352   0.211   2.580   7.346 -0.1976 -0.0667  0.7882
   44MOL   H84741353   0.302   2.389   7.461 -0.1672  0.3145 -0.3576
   44MOL   O84841354   0.338   2.909   6.982 -0.2589  0.6560  0.2153
   44MOL   C84941355   0.283   2.899   6.857  0.6259 -0.0420 -0.5719
   44MOL   C85041356   0.193   3.024   6.834  0.6003  0.4827  0.1233
   44MOL   C85141357   0.277   3.157   6.844  0.4759  0.4442 -0.1318
   44MOL   C85241358   0.211   3.284   6.797  0.0578 -0.5040 -0.4041
   44MOL   C85341359   0.300   3.406   6.807 -0.5641 -0.0966 -0.6391
   44MOL   C85441360   0.231   3.523   6.736 -0.3459  1.0544  0.2085
   44MOL   C85541361   0.295   3.660   6.742  0.9731  0.0558  0.2524
   44MOL   C85641362   0.422   3.687   6.651 -0.6735  0.0076 -0.2424
   44MOL   C85741363   0.466   3.831   6.647  0.6759 -0.4923 -0.0278
   44MOL   C85841364   0.579   3.858   6.550  0.0458  0.3958  0.5949
   44MOL   O85941365   0.698   3.777   6.565  0.3381  0.2276  0.1936
   44MOL   C86041366   0.825   3.812   6.517  0.7210  0.0616 -0.5003
   44MOL   O86141367   0.842   3.916   6.457  0.1689  0.4008 -0.0714
   44MOL   C86241368   0.927   3.708   6.561 -0.2277  0.3818  0.0820
   44MOL   C86341369   1.062   3.721   6.510 -1.3665 -1.7286 -0.5412
   44MOL   C86441370   1.151   3.620   6.533 -0.3061  0.2014  0.4688
   44MOL   C86541371   1.108   3.495   6.588  0.1291 -0.7709  0.6166
   44MOL   C86641372   1.205   3.384   6.590 -0.2354 -0.0715 -0.0155
   44MOL   O86741373   1.326   3.410   6.559 -0.9052 -0.4023 -0.7131
   44MOL   O86841374   1.161   3.260   6.619  0.1310  0.4127  0.1224
   44MOL   C86941375   0.974   3.478   6.636 -0.2843  0.5063  0.2450
   44MOL   C87041376   0.882   3.586   6.622 -0.6260 -0.2170  0.4676
   44MOL   H87141377   0.355   2.881   6.777  0.5488 -1.6769 -0.2954
   44MOL   H87241378   0.226   2.807   6.854  0.4059  0.0345  0.9796
   44MOL   H87341379   0.119   3.031   6.913 -1.8606  1.1025 -2.1534
   44MOL   H87441380   0.137   3.008   6.742 -0.7035  1.2223  0.7896
   44MOL   H87541381   0.313   3.171   6.946  0.5838  1.7396 -0.3405
   44MOL   H87641382   0.362   3.144   6.777  0.4603  0.5709 -0.1745
   44MOL   H87741383   0.129   3.305   6.865 -0.6195  1.1377 -1.6925
   44MOL   H87841384   0.187   3.277   6.691  1.5778 -0.7601 -0.7533
   44MOL   H87941385   0.340   3.426   6.906 -2.5291 -1.5009  0.4930
   44MOL   H88041386   0.389   3.382   6.749 -0.8704 -1.8085 -0.4384
   44MOL   H88141387   0.207   3.497   6.633  2.5049 -0.3509 -0.1622
   44MOL   H88241388   0.134   3.528   6.785  0.2513 -2.1499  1.9245
   44MOL   H88341389   0.219   3.736   6.724 -0.1054 -1.1529 -0.3370
   44MOL   H88441390   0.315   3.680   6.847  0.1786 -1.3835  0.6876
   44MOL   H88541391   0.496   3.625   6.700 -0.6369 -0.9462 -1.4781
   44MOL   H88641392   0.404   3.644   6.552  1.2060  0.2578 -0.6962
   44MOL   H88741393   0.488   3.863   6.749  0.8202  1.1381 -0.5544
   44MOL   H88841394   0.381   3.884   6.604  1.2627 -0.6682 -1.4316
   44MOL   H88941395   0.607   3.962   6.564 -1.2125  0.5693  1.9014
   44MOL   H89041396   0.528   3.838   6.456 -0.6362  0.4050  0.9641
   44MOL   H89141397   1.090   3.818   6.472  0.5662 -1.1659  2.1126
   44MOL   H89241398   1.255   3.630   6.505  0.0609 -0.4210  1.5549
   44MOL   H89341399   0.937   3.380   6.665 -0.5649  0.4541 -0.2732
   44MOL   H89441400   0.782   3.569   6.660 -0.0422 -0.1240  2.1144
   44MOL   O89541401   1.269   3.148   6.618 -0.5264  0.0307  0.4775
   44MOL   C89641402   1.286   3.094   6.747 -0.0958  0.7895 -0.2644
   44MOL   C89741403   1.307   3.205   6.854 -0.3984 -0.3629  0.6771
   44MOL   C89841404   1.440   3.292   6.846  0.1206  0.5869 -0.3802
   44MOL   C89941405   1.445   3.421   6.931 -0.4890 -0.1409 -0.2649
   44MOL   C90041406   1.354   3.532   6.874  0.1945  0.0838  0.0068
   44MOL   C90141407   1.333   3.644   6.979 -0.1419 -0.2384 -0.7200
   44MOL   C90241408   1.249   3.777   6.942  0.6189 -0.0234  1.0069
   44MOL   C90341409   1.098   3.751   6.910 -0.0798 -0.5936 -0.3390
   44MOL   C90441410   1.008   3.736   7.035 -0.4374  0.0568 -0.0173
   44MOL   C90541411   0.868   3.693   7.009  0.2913 -0.0827  0.3024
   44MOL   O90641412   0.872   3.554   6.963  0.0651  0.4456 -0.0080
   44MOL   C90741413   0.754   3.486   6.947  0.0816  1.0766  0.7292
   44MOL   O90841414   0.637   3.532   6.958 -0.3549  0.5394  0.1459
   44MOL   C90941415   0.777   3.343   6.916 -0.2569  0.0766  0.6174
   44MOL   C91041416   0.906   3.285   6.911 -0.6039 -0.2505 -0.0164
   44MOL   C91141417   0.922   3.145   6.904 -0.4415  0.1975 -0.6794
   44MOL   C91241418   0.819   3.060   6.887  0.3639 -0.3504  0.7058
   44MOL   C91341419   0.837   2.912   6.887  0.6983  0.1708  0.3033
   44MOL   O91441420   0.740   2.840   6.880 -0.1963  0.7197 -0.1578
   44MOL   O91541421   0.965   2.869   6.914  0.6829  0.0280  0.1557
   44MOL   C91641422   0.688   3.123   6.877  0.3659  0.0856 -0.4936
   44MOL   C91741423   0.668   3.261   6.884 -0.0842  0.2745  0.2085
   44MOL   H91841424   1.212   3.019   6.776  2.0945 -1.6673 -0.7989
   44MOL   H91941425   1.378   3.035   6.748 -1.2627 -1.0704  2.5893
   44MOL   H92041426   1.285   3.165   6.953 -1.1919 -1.6973 -0.0266
   44MOL   H92141427   1.221   3.272   6.854 -1.5230 -1.7424 -1.5278
   44MOL   H92241428   1.516   3.226   6.888  0.9926  2.0152  0.3332
   44MOL   H92341429   1.474   3.315   6.745 -0.6277 -0.4587 -0.8847
   44MOL   H92441430   1.548   3.452   6.950  0.2695 -2.9812  0.5373
   44MOL   H92541431   1.415   3.393   7.032 -1.8980 -2.3217 -1.2470
   44MOL   H92641432   1.401   3.573   6.785  1.1412  0.6370  0.7435
   44MOL   H92741433   1.256   3.490   6.852 -0.4247  1.2741  0.4291
   44MOL   H92841434   1.281   3.605   7.067  0.4313  1.2208  0.2807
   44MOL   H92941435   1.431   3.679   7.011 -1.3681 -0.7668  3.8701
   44MOL   H93041436   1.258   3.851   7.022 -0.9692  1.5929 -0.2858
   44MOL   H93141437   1.302   3.823   6.858 -1.5294 -0.4086 -0.6035
   44MOL   H93241438   1.061   3.828   6.842  1.2765 -0.1654 -0.6005
   44MOL   H93341439   1.099   3.658   6.853  2.4406 -0.7161 -0.1313
   44MOL   H93441440   1.013   3.833   7.084 -3.5401  0.3725 -0.2077
   44MOL   H93541441   1.061   3.668   7.101 -0.5162  1.1153  1.1542
   44MOL   H93641442   0.828   3.752   6.926  0.8261 -1.5424 -1.0276
   44MOL   H93741443   0.810   3.698   7.101  0.7995 -1.6374  0.7152
   44MOL   H93841444   0.994   3.348   6.917 -1.3128  0.6618  0.9112
   44MOL   H93941445   1.022   3.108   6.920 -0.2673  1.3777  1.1648
   44MOL   H94041446   0.602   3.058   6.867  0.8252 -0.6283  0.0875
   44MOL   H94141447   0.570   3.307   6.887  0.3626  1.4124 -1.5971
   44MOL   H94241448   0.958   2.774   6.918 -0.3373  0.0181 -1.3315
   45MOL     O141449   5.554   2.835   6.501  0.2970 -0.6216 -0.0025
   45MOL     C241450   5.497   2.950   6.452  0.0405  0.8195 -0.4520
   45MOL     C341451   5.413   3.027   6.553  0.2889 -0.0217  0.2636
   45MOL     C441452   5.301   3.117   6.490 -0.3495  0.0766 -0.1551
   45MOL     C541453   5.225   3.213   6.590 -0.2695 -0.1564 -0.2244
   45MOL     C641454   5.077   3.244   6.556 -0.7654 -0.4548 -0.2935
   45MOL     C741455   5.015   3.330   6.665 -0.5426  0.3800 -0.0291
   45MOL     C841456   4.858   3.307   6.671  0.1007  0.0836 -0.8040
   45MOL     C941457   4.793   3.367   6.798 -0.4788 -0.9047  0.2116
   45MOL    C1041458   4.640   3.353   6.808  0.0921 -0.2740  0.2189
   45MOL    C1141459   4.569   3.404   6.938 -0.0542 -0.7761 -0.5705
   45MOL    O1241460   4.593   3.543   6.948  0.3859 -1.2642  0.1425
   45MOL    C1341461   4.512   3.642   6.901  0.4769  0.9356 -0.1731
   45MOL    O1441462   4.421   3.623   6.823 -0.1623  0.6521  0.0356
   45MOL    C1541463   4.559   3.778   6.942  0.7914  0.6765 -0.2500
   45MOL    C1641464   4.661   3.788   7.041 -0.1339 -0.8787  0.0080
   45MOL    C1741465   4.690   3.916   7.087  0.1227 -0.0352 -0.0168
   45MOL    C1841466   4.639   4.037   7.044 -1.0621  0.2823 -0.2771
   45MOL    C1941467   4.683   4.170   7.097 -0.4649 -0.3451  0.1640
   45MOL    O2041468   4.736   4.185   7.211  0.8311 -0.6561 -0.1812
   45MOL    O2141469   4.649   4.277   7.021 -0.2341 -0.5689  0.3247
   45MOL    C2241470   4.528   4.027   6.949 -0.0300  0.3793  0.4234
   45MOL    C2341471   4.501   3.898   6.890  0.4060 -0.4400  0.3743
   45MOL    H2441472   5.586   3.007   6.426  0.8899  0.1910  1.0250
   45MOL    H2541473   5.449   2.913   6.361 -0.6596  0.9907 -0.1540
   45MOL    H2641474   5.474   3.100   6.606  0.1459  0.3544 -0.0830
   45MOL    H2741475   5.379   2.965   6.636 -1.2018 -0.8039 -0.8999
   45MOL    H2841476   5.342   3.184   6.416 -1.0387  1.2885  0.5406
   45MOL    H2941477   5.239   3.042   6.441  1.8360 -2.6529  1.1188
   45MOL    H3041478   5.279   3.307   6.603 -1.0791  0.2180  0.4531
   45MOL    H3141479   5.226   3.167   6.689  0.6525 -0.2373 -0.2706
   45MOL    H3241480   5.069   3.306   6.466 -0.2104  2.0901  1.3497
   45MOL    H3341481   5.015   3.156   6.540 -1.3204  0.0635 -1.0825
   45MOL    H3441482   5.062   3.302   6.759  1.2202  2.0515 -0.3894
   45MOL    H3541483   5.042   3.435   6.668  0.9752 -0.0286  1.8313
   45MOL    H3641484   4.796   3.348   6.590  1.3233 -2.6052 -3.2042
   45MOL    H3741485   4.835   3.201   6.682 -0.6621  0.3176 -0.0930
   45MOL    H3841486   4.837   3.303   6.875  1.7127 -0.4867 -0.6683
   45MOL    H3941487   4.828   3.468   6.818 -0.0894 -1.0411  0.2147
   45MOL    H4041488   4.618   3.247   6.796  0.1500 -0.1318 -1.2165
   45MOL    H4141489   4.587   3.400   6.725  0.1741  0.5783  0.6374
   45MOL    H4241490   4.609   3.349   7.023  1.6798 -3.5145 -3.0746
   45MOL    H4341491   4.462   3.384   6.937 -0.3285  0.6106 -0.6184
   45MOL    H4441492   4.715   3.700   7.072 -1.1084 -1.0448  1.2775
   45MOL    H4541493   4.770   3.923   7.160  0.0207  2.5064 -0.1067
   45MOL    H4641494   4.478   4.115   6.910 -0.7500 -0.3160 -0.2336
   45MOL    H4741495   4.430   3.892   6.809  0.0014  0.1132  0.6773
   45MOL    H4841496   5.478   2.779   6.507 -0.8021  0.8457  0.0655
   45MOL    O4941497   4.690   4.411   7.084 -0.1127  0.1282  0.5735
   45MOL    C5041498   4.582   4.477   7.148  0.1615 -0.0490  0.2058
   45MOL    C5141499   4.641   4.609   7.203  0.7123 -1.2047  0.2382
   45MOL    C5241500   4.544   4.714   7.253  0.7749 -0.6353 -0.0502
   45MOL    C5341501   4.472   4.787   7.131  0.3259 -0.4041 -0.2881
   45MOL    C5441502   4.382   4.908   7.171 -0.1347  0.4642 -0.2156
   45MOL    C5541503   4.278   4.951   7.062 -0.6784 -0.0750 -0.2370
   45MOL    C5641504   4.156   4.856   7.050  0.7854 -0.1852  0.1580
   45MOL    C5741505   4.065   4.884   6.933  0.2105  0.6265  0.0439
   45MOL    C5841506   3.945   4.799   6.936 -0.0074 -0.7661 -0.1831
   45MOL    C5941507   3.827   4.838   6.838  0.6159  0.2218 -0.2133
   45MOL    O6041508   3.864   4.820   6.697  0.4265 -0.0027  0.0068
   45MOL    C6141509   3.926   4.918   6.638  0.0605  0.2099  0.3812
   45MOL    O6241510   3.946   5.035   6.682 -0.3545  0.3112  0.3495
   45MOL    C6341511   3.943   4.886   6.493 -0.1561 -0.0678 -0.1287
   45MOL    C6441512   3.895   4.773   6.429 -0.4566  0.0375  0.0899
   45MOL    C6541513   3.924   4.752   6.293 -0.3229  0.1316  0.9042
   45MOL    C6641514   4.004   4.848   6.225  0.1874  0.0942  0.7771
   45MOL    C6741515   4.040   4.829   6.079  0.1943 -0.1570  0.1223
   45MOL    O6841516   4.125   4.891   6.025 -0.1025 -0.3646  0.0755
   45MOL    O6941517   3.954   4.751   6.015 -0.4564  0.1562  0.1310
   45MOL    C7041518   4.043   4.967   6.283  0.7364  0.8679  0.2135
   45MOL    C7141519   4.011   4.984   6.420  0.6198  0.1170 -0.0196
   45MOL    H7241520   4.507   4.481   7.069  1.1400  2.3466 -0.6425
   45MOL    H7341521   4.538   4.411   7.223  0.6993 -1.0772 -0.3706
   45MOL    H7441522   4.713   4.646   7.130 -1.1202  1.6816 -0.1902
   45MOL    H7541523   4.698   4.587   7.294  1.2273  0.5353  0.3620
   45MOL    H7641524   4.468   4.660   7.310 -0.7543 -1.6893 -2.9883
   45MOL    H7741525   4.581   4.796   7.315 -2.5043  0.2309  0.8872
   45MOL    H7841526   4.431   4.716   7.059  0.0296  0.1233 -0.6467
   45MOL    H7941527   4.559   4.821   7.075  1.9109 -2.9714  0.5677
   45MOL    H8041528   4.327   4.884   7.262  1.3360  0.0861  0.6030
   45MOL    H8141529   4.438   4.998   7.200  0.8771 -0.2621  0.1450
   45MOL    H8241530   4.242   5.048   7.096 -0.4374  0.0732 -0.4021
   45MOL    H8341531   4.325   4.969   6.966 -0.8334 -0.5599 -0.4047
   45MOL    H8441532   4.194   4.756   7.029  1.9351 -0.2629  2.5117
   45MOL    H8541533   4.105   4.843   7.145  0.7571  1.0672  0.3224
   45MOL    H8641534   4.038   4.989   6.921  0.3698  0.7218  0.5249
   45MOL    H8741535   4.113   4.871   6.836 -0.6685  1.9085 -0.5681
   45MOL    H8841536   3.903   4.805   7.036 -0.5555  0.9458 -0.5053
   45MOL    H8941537   3.980   4.699   6.910  0.2624 -1.3819  2.4303
   45MOL    H9041538   3.782   4.931   6.873  1.0026 -0.2888  1.7069
   45MOL    H9141539   3.743   4.772   6.861  0.8692 -0.3146 -0.8142
   45MOL    H9241540   3.844   4.693   6.480 -2.5612  1.5077  0.3507
   45MOL    H9341541   3.882   4.668   6.241  2.2779 -0.0286 -1.0577
   45MOL    H9441542   4.087   5.043   6.220  0.4094 -0.1849 -1.3130
   45MOL    H9541543   4.050   5.078   6.457 -1.0963  1.6451 -1.9792
   45MOL    O9641544   4.002   4.700   5.887  0.3847 -0.0042 -0.1408
   45MOL    C9741545   4.020   4.563   5.903  0.2077 -0.9942  0.2497
   45MOL    C9841546   3.879   4.503   5.882 -0.4749  0.8408  0.6448
   45MOL    C9941547   3.898   4.351   5.866 -0.2266 -0.6091 -0.4509
   45MOL   C10041548   3.768   4.280   5.833  0.0767 -0.6062  0.3514
   45MOL   C10141549   3.802   4.135   5.802 -0.9025  0.4481 -0.7264
   45MOL   C10241550   3.683   4.042   5.768 -0.5905  0.2518  0.1084
   45MOL   C10341551   3.564   4.065   5.863  0.2475  0.1438 -0.4745
   45MOL   C10441552   3.457   3.951   5.857  0.0798 -0.6137 -0.7301
   45MOL   C10541553   3.401   3.936   5.712  0.7123  0.3437  0.4272
   45MOL   C10641554   3.268   3.859   5.699  0.6847  0.3220  0.5197
   45MOL   O10741555   3.167   3.935   5.758 -0.3613  0.2805 -0.2189
   45MOL   C10841556   3.072   4.004   5.690  0.9307 -0.2718 -0.5966
   45MOL   O10941557   3.064   4.019   5.570  0.3544 -0.6649  0.2434
   45MOL   C11041558   2.979   4.082   5.786 -0.0233  0.0091 -0.1142
   45MOL   C11141559   2.945   4.215   5.762  0.1415 -0.3727  0.0706
   45MOL   C11241560   2.866   4.297   5.848 -0.4966 -0.1413 -0.1732
   45MOL   C11341561   2.805   4.230   5.952  0.0435  1.1279 -0.0177
   45MOL   C11441562   2.711   4.307   6.048 -0.6972 -0.1393  0.3162
   45MOL   O11541563   2.663   4.415   6.024 -0.2497 -0.6867 -0.0155
   45MOL   O11641564   2.690   4.238   6.171  0.7490 -0.5595 -0.2071
   45MOL   C11741565   2.828   4.093   5.974 -0.0564 -0.0861 -0.1160
   45MOL   C11841566   2.920   4.025   5.897 -0.1076  0.0140 -0.1796
   45MOL   H11941567   4.090   4.541   5.822  0.4882  0.9413 -0.0408
   45MOL   H12041568   4.062   4.526   5.996  1.5152  0.9264  0.4488
   45MOL   H12141569   3.837   4.536   5.786  0.3978 -0.1091 -0.0789
   45MOL   H12241570   3.807   4.530   5.959 -0.7738  2.6156 -0.2239
   45MOL   H12341571   3.976   4.346   5.790  1.8040 -0.9908  1.6030
   45MOL   H12441572   3.949   4.305   5.950  1.7519  0.3375 -1.1072
   45MOL   H12541573   3.717   4.319   5.746  0.9105  2.7053  1.2840
   45MOL   H12641574   3.703   4.287   5.920  1.3317 -0.8401  1.3200
   45MOL   H12741575   3.875   4.119   5.723  1.6169 -0.7827  1.7694
   45MOL   H12841576   3.851   4.098   5.892  0.9747  1.8179 -1.1492
   45MOL   H12941577   3.660   4.053   5.661 -1.8473  2.2039  0.5462
   45MOL   H13041578   3.717   3.939   5.779  0.2149  0.3799 -1.0417
   45MOL   H13141579   3.616   4.070   5.959  0.3552 -0.1724 -0.5148
   45MOL   H13241580   3.523   4.164   5.842 -0.4135 -0.2054 -0.8415
   45MOL   H13341581   3.501   3.854   5.880  1.2571 -0.3075 -1.6733
   45MOL   H13441582   3.383   3.988   5.928  0.3087  1.0220 -1.3244
   45MOL   H13541583   3.474   3.892   5.644  0.6038  1.8132 -0.6699
   45MOL   H13641584   3.381   4.031   5.663 -1.3361  0.2110  0.9750
   45MOL   H13741585   3.273   3.758   5.740  2.1873  0.0247 -0.3916
   45MOL   H13841586   3.251   3.831   5.595  2.3870  0.3578  0.2230
   45MOL   H13941587   3.001   4.261   5.682  1.6671 -0.1830  1.2196
   45MOL   H14041588   2.847   4.401   5.830 -1.4704 -0.5123 -1.3825
   45MOL   H14141589   2.795   4.045   6.065 -3.0967  1.0875 -0.5725
   45MOL   H14241590   2.933   3.920   5.919 -1.1412 -0.0384  0.2189
   45MOL   O14341591   2.606   4.320   6.266 -0.0719 -0.1562 -0.1761
   45MOL   C14441592   2.697   4.394   6.347 -0.2427 -0.1980 -0.3111
   45MOL   C14541593   2.804   4.313   6.409 -0.3163 -0.4233 -0.7559
   45MOL   C14641594   2.858   4.381   6.537 -0.6946  0.0521 -0.5594
   45MOL   C14741595   2.935   4.284   6.628 -0.1139  0.8268  0.2690
   45MOL   C14841596   3.075   4.254   6.573  0.1505  0.3198 -0.4027
   45MOL   C14941597   3.181   4.218   6.683 -0.3057  0.1784  0.4984
   45MOL   C15041598   3.297   4.139   6.631  0.0413  0.6113 -0.2376
   45MOL   C15141599   3.404   4.123   6.749  0.3741 -0.6417  0.1595
   45MOL   C15241600   3.527   4.031   6.712  0.4177 -0.1669 -0.4651
   45MOL   C15341601   3.631   4.024   6.828  0.0407 -0.0657 -0.4203
   45MOL   O15441602   3.577   3.979   6.949 -0.4063  0.3043 -0.9332
   45MOL   C15541603   3.648   3.946   7.050 -0.6513  0.0838  0.2379
   45MOL   O15641604   3.762   3.907   7.038 -0.0223 -0.3120  0.1890
   45MOL   C15741605   3.578   3.954   7.181 -0.8434  0.2566  0.4539
   45MOL   C15841606   3.650   3.905   7.289  0.3944  0.2898  0.2959
   45MOL   C15941607   3.593   3.932   7.412 -0.1533  0.4815 -0.5798
   45MOL   C16041608   3.459   3.978   7.433 -0.0991 -0.0336 -1.1437
   45MOL   C16141609   3.403   3.982   7.572 -0.1260 -0.3661  0.2824
   45MOL   O16241610   3.281   4.008   7.590 -0.5196  0.0046 -0.4158
   45MOL   O16341611   3.491   3.980   7.662 -0.2382  0.4010 -0.8810
   45MOL   C16441612   3.383   4.021   7.319 -0.4480 -0.1703  0.6582
   45MOL   C16541613   3.448   4.013   7.194 -0.1508 -0.4591 -0.3805
   45MOL   H16641614   2.738   4.476   6.288 -1.2622  0.3807 -0.2151
   45MOL   H16741615   2.629   4.441   6.418 -0.1591 -0.0110 -0.3516
   45MOL   H16841616   2.878   4.278   6.338  0.7534 -1.1227  0.6803
   45MOL   H16941617   2.757   4.218   6.435  0.3185  0.1392  2.7314
   45MOL   H17041618   2.924   4.463   6.513 -0.6352 -0.3027 -1.6305
   45MOL   H17141619   2.791   4.425   6.611 -0.4219  0.2935 -0.4560
   45MOL   H17241620   2.886   4.190   6.653 -2.6095  1.7814 -0.8453
   45MOL   H17341621   2.955   4.331   6.724  0.9145 -1.4066  1.1877
   45MOL   H17441622   3.078   4.174   6.499  1.8739 -0.6661  0.6882
   45MOL   H17541623   3.108   4.342   6.517 -1.2667  0.5177 -0.9502
   45MOL   H17641624   3.217   4.315   6.718 -2.9367  0.6792  1.9461
   45MOL   H17741625   3.145   4.174   6.776  0.0876 -0.9353  0.1368
   45MOL   H17841626   3.260   4.043   6.595  1.9962  0.2500 -1.4009
   45MOL   H17941627   3.334   4.200   6.549 -1.0357  2.0595  0.3375
   45MOL   H18041628   3.454   4.215   6.780 -1.7333 -0.0264  1.8450
   45MOL   H18141629   3.348   4.073   6.828  0.3262  0.6281  0.9392
   45MOL   H18241630   3.577   4.076   6.627  0.7604 -0.0070 -0.1764
   45MOL   H18341631   3.497   3.933   6.675 -1.7622  1.2486 -2.5771
   45MOL   H18441632   3.668   4.126   6.835  0.3880 -0.2219  0.0091
   45MOL   H18541633   3.725   3.973   6.806 -0.5618 -1.6964  0.6450
   45MOL   H18641634   3.750   3.867   7.280  1.2076  2.1607  1.0836
   45MOL   H18741635   3.647   3.903   7.502  1.1277 -0.1504 -1.5361
   45MOL   H18841636   3.288   4.070   7.333 -1.0108 -0.3378 -2.2363
   45MOL   H18941637   3.382   4.036   7.111 -0.6978  0.1848  0.2258
   45MOL   O19041638   3.460   4.058   7.792 -0.3956  0.0104 -0.1598
   45MOL   C19141639   3.419   3.972   7.899 -0.7639  0.1047  0.0049
   45MOL   C19241640   3.395   4.052   0.052  0.4662 -0.7477  0.7310
   45MOL   C19341641   3.274   4.144   0.057 -0.5057  0.1622 -0.4143
   45MOL   C19441642   3.280   4.232   0.189 -0.1329 -0.3916 -0.0994
   45MOL   C19541643   3.154   4.314   0.205 -0.0293  0.2440 -0.4836
   45MOL   C19641644   3.148   4.406   0.325 -0.0939  1.1880 -0.0272
   45MOL   C19741645   3.256   4.522   0.339  0.2189 -0.1263  0.5163
   45MOL   C19841646   3.249   4.583   0.479  0.2856 -0.4539  0.2277
   45MOL   C19941647   3.376   4.658   0.521 -0.0200  0.7691  0.0139
   45MOL   C20041648   3.357   4.752   0.635 -0.7106 -0.4492  0.2552
   45MOL   O20141649   3.347   4.678   0.750  0.2072  0.3650  1.0253
   45MOL   C20241650   3.288   4.733   0.862 -0.1374  0.1908 -0.4292
   45MOL   O20341651   3.228   4.843   0.868 -0.4248  0.1418  0.1552
   45MOL   C20441652   3.293   4.633   0.976 -0.2816  0.2147 -0.4996
   45MOL   C20541653   3.341   4.498   0.962  0.6061  0.4639 -0.2988
   45MOL   C20641654   3.321   4.411   1.068 -0.1126  0.2965 -0.0237
   45MOL   C20741655   3.251   4.451   1.184  0.0831 -0.5349  0.6954
   45MOL   C20841656   3.220   4.348   1.292  0.6404  0.3222 -0.2550
   45MOL   O20941657   3.250   4.230   1.286 -0.3363 -0.5068 -0.0448
   45MOL   O21041658   3.151   4.403   1.395  0.0821 -0.0851 -0.4201
   45MOL   C21141659   3.201   4.581   1.190 -0.2500 -0.1035 -0.8216
   45MOL   C21241660   3.228   4.672   1.091  0.3318  0.7053  0.5960
   45MOL   H21341661   3.328   3.917   7.878 -0.3792  0.1688 -2.0064
   45MOL   H21441662   3.495   3.893   7.905  0.1505  1.0508  1.1891
   45MOL   H21541663   3.481   4.119   0.062 -0.8021  0.7500  1.9637
   45MOL   H21641664   3.398   3.978   0.132 -1.0944  1.4285  2.8756
   45MOL   H21741665   3.270   4.222   7.959  1.9440  0.0267 -0.6965
   45MOL   H21841666   3.182   4.084   0.054 -0.3226 -0.1122 -0.5581
   45MOL   H21941667   3.367   4.298   0.192  0.6426 -1.3459 -1.0624
   45MOL   H22041668   3.292   4.161   0.270 -1.5868 -0.2286  0.2823
   45MOL   H22141669   3.150   4.375   0.115 -0.0411 -0.1246 -0.7364
   45MOL   H22241670   3.066   4.250   0.210 -1.0598  1.7159  0.2811
   45MOL   H22341671   3.048   4.448   0.341 -1.9258 -1.7980 -3.0528
   45MOL   H22441672   3.170   4.349   0.415  0.3706 -0.7810 -1.3495
   45MOL   H22541673   3.360   4.490   0.333  0.0237 -0.8983  1.1502
   45MOL   H22641674   3.230   4.607   0.276  0.3211 -2.4556 -2.7368
   45MOL   H22741675   3.154   4.634   0.492  0.8478  0.4268  0.9080
   45MOL   H22841676   3.224   4.504   0.549  1.6846 -0.5509  0.6271
   45MOL   H22941677   3.404   4.727   0.442  0.2706  0.2661 -0.3283
   45MOL   H23041678   3.456   4.585   0.531 -1.5792 -0.8260  1.2625
   45MOL   H23141679   3.274   4.820   0.615 -0.4788 -0.6683 -1.5512
   45MOL   H23241680   3.445   4.816   0.640  0.3506 -1.7302 -1.2415
   45MOL   H23341681   3.389   4.469   0.869  0.2953  0.1894 -0.3717
   45MOL   H23441682   3.366   4.313   1.056 -0.1998  0.2556 -0.0153
   45MOL   H23541683   3.141   4.619   1.271 -1.1659 -0.1024 -1.4968
   45MOL   H23641684   3.194   4.773   1.109  0.8102  1.4215 -2.2467
   45MOL   O23741685   3.106   4.301   1.496  0.1528  0.3152  0.0715
   45MOL   C23841686   2.971   4.257   1.467  0.0849  0.5195 -0.4840
   45MOL   C23941687   2.930   4.151   1.571 -0.8992  0.0784  0.0230
   45MOL   C24041688   3.002   4.020   1.555 -0.3045 -0.2642  0.5340
   45MOL   C24141689   2.990   3.944   1.421  0.3366  0.8426 -0.1415
   45MOL   C24241690   3.007   3.799   1.445 -0.8213 -0.4991  0.5914
   45MOL   C24341691   2.988   3.709   1.327 -0.5966  0.6096  0.6679
   45MOL   C24441692   2.854   3.695   1.262  0.0411 -0.2274 -0.1408
   45MOL   C24541693   2.836   3.581   1.158 -0.3982  0.5902 -0.1821
   45MOL   C24641694   2.706   3.609   1.080  0.6267 -0.8391 -0.0160
   45MOL   C24741695   2.579   3.613   1.171 -0.3873  1.3929  0.7872
   45MOL   O24841696   2.564   3.487   1.228 -0.1573 -0.0344  0.4677
   45MOL   C24941697   2.442   3.467   1.296  0.2267 -0.1300  0.0715
   45MOL   O25041698   2.337   3.521   1.272 -0.4410 -0.0590 -0.8572
   45MOL   C25141699   2.450   3.352   1.401 -0.5102  0.1280 -0.7096
   45MOL   C25241700   2.372   3.359   1.519 -0.5416 -0.4298  0.1614
   45MOL   C25341701   2.383   3.264   1.620 -0.2089  0.4915  0.3697
   45MOL   C25441702   2.474   3.153   1.600  0.0034  0.3962 -0.6687
   45MOL   C25541703   2.498   3.048   1.707 -0.1727 -0.3307  0.7610
   45MOL   O25641704   2.574   2.955   1.688  0.3280 -0.2809 -0.0514
   45MOL   O25741705   2.431   3.059   1.819  1.0221  0.3816  0.2824
   45MOL   C25841706   2.546   3.141   1.484 -0.5014 -0.0436  0.4403
   45MOL   C25941707   2.534   3.237   1.379 -0.3460  0.4407 -0.3449
   45MOL   H26041708   2.916   4.351   1.482  3.1301  2.0492  1.5843
   45MOL   H26141709   2.962   4.223   1.364  3.3123  0.7775 -0.9111
   45MOL   H26241710   2.826   4.128   1.545 -1.5541  0.5165  2.1699
   45MOL   H26341711   2.938   4.186   1.674 -0.7915 -1.7001  0.6399
   45MOL   H26441712   3.105   4.030   1.589  0.0854 -1.0763 -0.3717
   45MOL   H26541713   2.957   3.955   1.629  0.5743 -0.6627  0.7256
   45MOL   H26641714   3.067   3.975   1.350  0.7919 -0.0467 -0.0358
   45MOL   H26741715   2.892   3.952   1.374 -0.7632 -2.4189  1.4693
   45MOL   H26841716   3.103   3.771   1.488 -0.6997 -0.8670  0.0789
   45MOL   H26941717   2.928   3.773   1.516 -1.8657 -0.0787 -0.4057
   45MOL   H27041718   3.057   3.724   1.245 -0.6325 -1.8142  0.1533
   45MOL   H27141719   3.014   3.606   1.351 -0.3992  0.1105 -1.6406
   45MOL   H27241720   2.789   3.672   1.346  1.0915 -0.1647  0.7007
   45MOL   H27341721   2.823   3.791   1.222 -1.0793 -1.5557 -2.5949
   45MOL   H27441722   2.933   3.562   1.111  0.3722  0.6065  1.3977
   45MOL   H27541723   2.817   3.489   1.213  1.7612  0.4147  0.3165
   45MOL   H27641724   2.689   3.550   0.991  0.7850  0.4414 -0.9109
   45MOL   H27741725   2.732   3.708   1.041 -0.5043  0.0462  1.4178
   45MOL   H27841726   2.496   3.634   1.103  0.8190  0.5310 -0.9947
   45MOL   H27941727   2.592   3.701   1.235 -0.0697  1.5188  0.5493
   45MOL   H28041728   2.304   3.441   1.536  0.1157 -0.6778  4.5849
   45MOL   H28141729   2.311   3.273   1.700  0.5129  0.6166  1.0142
   45MOL   H28241730   2.614   3.058   1.471  0.6633  0.9294  0.2787
   45MOL   H28341731   2.598   3.227   1.293  0.0599  2.5693 -0.3304
   45MOL   O28441732   2.447   2.944   1.914  0.9213  0.2963  0.1188
   45MOL   C28541733   2.537   2.979   2.014 -0.0663  0.2825 -0.7475
   45MOL   C28641734   2.468   3.072   2.118 -0.0246  0.2524 -0.5651
   45MOL   C28741735   2.565   3.139   2.215  0.1958  0.4349  0.2180
   45MOL   C28841736   2.504   3.215   2.326  0.8157 -1.2519 -0.3870
   45MOL   C28941737   2.413   3.127   2.425 -0.2683  0.4361 -0.4068
   45MOL   C29041738   2.378   3.211   2.543  0.7801  0.2807  0.7113
   45MOL   C29141739   2.293   3.153   2.654  0.0718  0.9255 -0.2401
   45MOL   C29241740   2.257   3.237   2.778 -0.8336 -0.3114 -0.3087
   45MOL   C29341741   2.360   3.250   2.895  0.3929  0.4783  0.6685
   45MOL   C29441742   2.362   3.149   3.009 -0.3283  0.2291 -0.6359
   45MOL   O29541743   2.406   3.025   2.961  0.5092 -0.0510  0.3811
   45MOL   C29641744   2.415   2.925   3.051 -0.3079 -0.4388  0.4802
   45MOL   O29741745   2.398   2.935   3.171 -0.3447 -0.2002  0.1073
   45MOL   C29841746   2.439   2.793   2.990 -0.2347  0.3119  0.3805
   45MOL   C29941747   2.493   2.783   2.861  0.2782 -0.4865  0.6129
   45MOL   C30041748   2.513   2.654   2.803 -0.5697 -0.3548  0.4365
   45MOL   C30141749   2.473   2.540   2.870  0.8149 -0.8296 -0.0573
   45MOL   C30241750   2.497   2.407   2.813 -0.3691  0.2945 -0.3871
   45MOL   O30341751   2.500   2.301   2.888 -0.2097  0.0257  0.2679
   45MOL   O30441752   2.512   2.404   2.682  0.1958  0.0666  0.0855
   45MOL   C30541753   2.433   2.552   3.006  0.4443  0.3983  0.6731
   45MOL   C30641754   2.419   2.672   3.069 -1.0510 -0.3524 -0.4497
   45MOL   H30741755   2.563   2.886   2.066  2.1142  0.1241 -2.0762
   45MOL   H30841756   2.627   3.022   1.971  0.6157 -0.2671  0.0906
   45MOL   H30941757   2.385   3.019   2.166  1.6460 -0.4003  1.6448
   45MOL   H31041758   2.423   3.151   2.058  1.7841  0.5205 -1.6058
   45MOL   H31141759   2.634   3.064   2.252 -1.7881 -1.5661 -0.0276
   45MOL   H31241760   2.639   3.200   2.162 -1.3046  1.8939 -0.2550
   45MOL   H31341761   2.444   3.295   2.282 -1.1729 -1.8882  1.0586
   45MOL   H31441762   2.584   3.258   2.386 -1.2258  1.9980  0.1546
   45MOL   H31541763   2.321   3.089   2.380  0.2209  0.9071 -1.8295
   45MOL   H31641764   2.467   3.047   2.475  2.1711  2.1280 -0.2828
   45MOL   H31741765   2.463   3.236   2.605  1.7826 -0.2289 -0.4348
   45MOL   H31841766   2.336   3.304   2.504 -0.1248  0.2011  1.4749
   45MOL   H31941767   2.200   3.116   2.610  1.6823 -1.6666 -1.5764
   45MOL   H32041768   2.348   3.067   2.691  0.2215  0.9850 -0.3257
   45MOL   H32141769   2.246   3.335   2.733  1.1457  0.4206  0.7331
   45MOL   H32241770   2.158   3.205   2.811 -1.5099  1.4453 -0.6060
   45MOL   H32341771   2.338   3.344   2.945 -0.6382  1.4508 -1.5406
   45MOL   H32441772   2.460   3.256   2.853 -0.0409  2.2078 -0.2012
   45MOL   H32541773   2.270   3.144   3.067  0.3141 -0.5335  0.3242
   45MOL   H32641774   2.441   3.184   3.075 -1.0551  1.4538 -0.3990
   45MOL   H32741775   2.545   2.862   2.808 -0.8058 -0.8603 -1.0683
   45MOL   H32841776   2.550   2.657   2.702  1.1510 -0.5460  1.0519
   45MOL   H32941777   2.409   2.457   3.053  0.9784  0.3161  0.7895
   45MOL   H33041778   2.394   2.673   3.174 -0.8883 -1.1767 -0.3989
   45MOL   O33141779   2.536   2.266   2.621  0.0939  0.3560  0.1568
   45MOL   C33241780   2.436   2.241   2.524  0.7487  0.4740 -0.0371
   45MOL   C33341781   2.462   2.335   2.406 -0.3744 -0.3092  0.1545
   45MOL   C33441782   2.369   2.299   2.286  1.3829  0.0375 -0.7357
   45MOL   C33541783   2.349   2.414   2.181  0.3918 -0.5307 -0.3231
   45MOL   C33641784   2.463   2.423   2.078  0.0206 -0.3305 -0.7417
   45MOL   C33741785   2.438   2.517   1.957 -0.9794  0.4486 -0.0950
   45MOL   C33841786   2.556   2.518   1.856 -0.6047 -0.0472  0.2445
   45MOL   C33941787   2.526   2.607   1.737 -0.1959 -0.0697 -0.1594
   45MOL   C34041788   2.654   2.619   1.653 -0.3100  0.1583  0.4839
   45MOL   C34141789   2.624   2.678   1.522 -0.3514 -0.5432 -0.3022
   45MOL   O34241790   2.741   2.693   1.449  0.2081 -0.1111  0.4523
   45MOL   C34341791   2.731   2.728   1.322 -0.2906 -0.1765  0.4307
   45MOL   O34441792   2.631   2.779   1.268 -0.6783 -0.3254 -0.3983
   45MOL   C34541793   2.863   2.722   1.246 -0.4300 -0.4037  0.3345
   45MOL   C34641794   2.862   2.740   1.107 -0.4399 -0.0745 -0.1597
   45MOL   C34741795   2.979   2.756   1.034 -0.0783  0.6988  0.0232
   45MOL   C34841796   3.106   2.752   1.093  0.2119  0.9101 -0.6218
   45MOL   C34941797   3.229   2.768   1.007  0.5726 -0.9505  0.3484
   45MOL   O35041798   3.221   2.800   0.884  0.8921 -0.1004  0.2138
   45MOL   O35141799   3.338   2.768   1.080 -0.2145  0.0768 -0.0447
   45MOL   C35241800   3.106   2.728   1.236  0.4702  0.5569  0.5596
   45MOL   C35341801   2.987   2.713   1.312  0.4312 -0.0114 -1.1804
   45MOL   H35441802   2.453   2.142   2.482 -3.4838 -0.5359  0.4368
   45MOL   H35541803   2.332   2.241   2.558  1.0242 -1.5231  0.8613
   45MOL   H35641804   2.566   2.349   2.376 -0.2700 -1.0602  0.1631
   45MOL   H35741805   2.427   2.430   2.446  1.0217  0.0355  0.5886
   45MOL   H35841806   2.404   2.211   2.232  0.4423 -1.6941  1.3681
   45MOL   H35941807   2.268   2.279   2.322  0.9836  0.6583 -1.5102
   45MOL   H36041808   2.338   2.509   2.234  0.6552 -0.8465  0.3098
   45MOL   H36141809   2.262   2.391   2.120  0.2323  2.9432 -1.4774
   45MOL   H36241810   2.557   2.442   2.129  0.6484 -1.5855 -1.4022
   45MOL   H36341811   2.473   2.325   2.032 -0.3546  0.7035 -3.0661
   45MOL   H36441812   2.352   2.477   1.905 -1.4009  0.8647  0.2825
   45MOL   H36541813   2.419   2.617   1.995  0.5232  0.1808  1.4755
   45MOL   H36641814   2.639   2.557   1.916  0.8120 -1.0401 -1.0565
   45MOL   H36741815   2.583   2.415   1.835  2.7241  0.8895 -0.4808
   45MOL   H36841816   2.444   2.573   1.674  1.7602 -3.2749 -1.0724
   45MOL   H36941817   2.489   2.703   1.772 -0.7242  0.6587 -2.5896
   45MOL   H37041818   2.684   2.515   1.636  0.7712  0.7463 -1.3081
   45MOL   H37141819   2.737   2.667   1.704  1.0765  0.0854 -1.6418
   45MOL   H37241820   2.574   2.774   1.538 -2.7503 -1.4170 -2.2658
   45MOL   H37341821   2.551   2.620   1.466 -0.5451 -0.3078 -0.2957
   45MOL   H37441822   2.768   2.750   1.054  0.0252  1.2251 -0.7685
   45MOL   H37541823   2.978   2.752   0.926 -0.0803 -1.5849  0.0703
   45MOL   H37641824   3.208   2.717   1.272  0.8197  1.7976 -0.0112
   45MOL   H37741825   2.985   2.703   1.419 -0.6869 -0.7255 -1.2647
   45MOL   O37841826   3.463   2.794   1.003 -0.2160  0.1074  0.1862
   45MOL   C37941827   3.529   2.675   0.970 -0.6096 -0.0116  0.5136
   45MOL   C38041828   3.678   2.706   0.965  0.3541 -0.0530  0.2889
   45MOL   C38141829   3.761   2.585   0.913 -0.5224  0.2191  0.1409
   45MOL   C38241830   3.908   2.622   0.894  0.2388  0.2917  0.0385
   45MOL   C38341831   3.994   2.603   1.021 -0.3758  0.2508 -0.0299
   45MOL   C38441832   4.151   2.615   0.994  0.1987  0.2221  0.6671
   45MOL   C38541833   4.241   2.611   1.117  0.4128 -0.5200 -0.4529
   45MOL   C38641834   4.386   2.653   1.092  0.6108 -0.2961 -0.6238
   45MOL   C38741835   4.491   2.593   1.193 -0.8659 -0.8583  0.1779
   45MOL   C38841836   4.630   2.606   1.129 -0.2501  0.0034 -0.1796
   45MOL   O38941837   4.728   2.552   1.217  0.5190  0.5427  0.7438
   45MOL   C39041838   4.860   2.545   1.182 -0.6710  0.8872 -0.8595
   45MOL   O39141839   4.911   2.586   1.082 -0.1913 -0.0182  0.2514
   45MOL   C39241840   4.939   2.466   1.292  0.1802  0.6053  1.0529
   45MOL   C39341841   5.080   2.448   1.270 -0.1153  0.0251  0.1227
   45MOL   C39441842   5.156   2.388   1.373 -0.9526  0.6098 -0.8846
   45MOL   C39541843   5.107   2.368   1.501  0.1821  0.1743 -0.1458
   45MOL   C39641844   5.200   2.321   1.606  0.0493  0.0468 -0.6502
   45MOL   O39741845   5.319   2.311   1.601  0.9049 -0.4476 -0.1334
   45MOL   O39841846   5.138   2.278   1.719  0.4250 -0.2260  0.7331
   45MOL   C39941847   4.969   2.387   1.523  0.0665 -0.0228  0.0522
   45MOL   C40041848   4.888   2.432   1.419  0.0630 -0.4928  0.2716
   45MOL   H40141849   3.510   2.592   1.038 -0.9643  1.0954  1.7935
   45MOL   H40241850   3.489   2.642   0.874 -0.8390 -1.0265  0.9561
   45MOL   H40341851   3.710   2.745   1.062 -0.9483 -0.2943  0.8178
   45MOL   H40441852   3.698   2.796   0.907 -1.1837  0.3270  0.3273
   45MOL   H40541853   3.763   2.494   0.974  1.3890  0.9421  1.2107
   45MOL   H40641854   3.729   2.562   0.812  0.6140 -0.9701  0.0398
   45MOL   H40741855   3.919   2.725   0.861  0.5280  0.1017 -0.4725
   45MOL   H40841856   3.933   2.553   0.813  0.4288  1.4065 -0.8612
   45MOL   H40941857   3.963   2.662   1.107  0.2151  0.1663  0.2471
   45MOL   H41041858   3.978   2.502   1.060 -1.0077  0.5947  0.6166
   45MOL   H41141859   4.176   2.553   0.908 -2.1526  0.8816 -0.5330
   45MOL   H41241860   4.174   2.710   0.946  1.3834  0.4028  1.5598
   45MOL   H41341861   4.206   2.678   1.195 -0.8745  0.6020 -1.9469
   45MOL   H41441862   4.219   2.511   1.155 -0.4184 -0.8920 -1.8368
   45MOL   H41541863   4.411   2.606   0.997  0.5530  1.1139 -1.3477
   45MOL   H41641864   4.395   2.761   1.075 -1.2453  0.0975  0.6646
   45MOL   H41741865   4.486   2.488   1.220 -0.4354 -1.3556 -1.6334
   45MOL   H41841866   4.493   2.659   1.280 -1.0651 -0.9639  0.2612
   45MOL   H41941867   4.659   2.705   1.095 -0.3195  0.0775 -0.0229
   45MOL   H42041868   4.627   2.535   1.046 -0.3171  0.7497 -0.8320
   45MOL   H42141869   5.122   2.482   1.176 -0.0353 -0.5114 -0.0326
   45MOL   H42241870   5.258   2.362   1.347 -1.1434 -0.2231 -0.8184
   45MOL   H42341871   4.920   2.381   1.619  4.4748  2.4175  2.6068
   45MOL   H42441872   4.782   2.444   1.437  0.2015  1.1929  0.1198
   45MOL   O42541873   5.228   2.236   1.828 -0.4289  0.2821  0.3110
   45MOL   C42641874   5.267   2.353   1.894 -0.3190 -0.2652 -0.1332
   45MOL   C42741875   5.307   2.322   2.039  0.3725 -0.3314 -0.1409
   45MOL   C42841876   5.297   2.441   2.139  0.2623  0.1581  0.2497
   45MOL   C42941877   5.362   2.577   2.099 -0.7012  0.1742  0.1423
   45MOL   C43041878   5.516   2.569   2.081  0.2972 -0.9081  0.2780
   45MOL   C43141879   5.576   2.710   2.067  0.2411 -0.5923  0.1288
   45MOL   C43241880   5.723   2.686   2.079 -0.4492 -0.3072 -0.2924
   45MOL   C43341881   5.803   2.821   2.081  0.2132 -0.1868 -0.1245
   45MOL   C43441882   5.816   2.876   1.936  0.6358 -0.1468 -0.5860
   45MOL   C43541883   5.907   2.994   1.925  0.2973 -0.3830  0.4278
   45MOL   O43641884   5.854   3.092   2.002 -0.1517  0.2112  0.0228
   45MOL   C43741885   5.927   3.210   2.015  0.0759 -0.1641 -0.2801
   45MOL   O43841886   6.014   3.245   1.934  0.3619  0.1786 -0.2336
   45MOL   C43941887   5.869   3.301   2.121 -0.0322  0.1023  0.4234
   45MOL   C44041888   5.913   3.436   2.137 -0.2934 -0.2809  0.6998
   45MOL   C44141889   5.860   3.515   2.238  0.1682 -0.0870 -0.3605
   45MOL   C44241890   5.762   3.470   2.326  0.0643 -0.1015 -0.0567
   45MOL   C44341891   5.716   3.559   2.438  0.2366  0.1088 -0.2808
   45MOL   O44441892   5.776   3.662   2.481  0.2651 -0.1879 -0.2492
   45MOL   O44541893   5.604   3.511   2.500  0.0069  0.2553  0.0419
   45MOL   C44641894   5.711   3.341   2.302 -0.9426 -0.5554  0.4392
   45MOL   C44741895   5.765   3.252   2.201  0.1922 -0.0758  0.1581
   45MOL   H44841896   5.338   2.406   1.830  0.9186 -1.6021  0.1020
   45MOL   H44941897   5.173   2.407   1.908 -0.7606 -1.2406  0.7494
   45MOL   H45041898   5.408   2.279   2.042  0.2062 -0.7924 -0.9693
   45MOL   H45141899   5.238   2.246   2.075 -0.2833  0.7886  0.9524
   45MOL   H45241900   5.195   2.474   2.160  0.7114  0.4899  2.0157
   45MOL   H45341901   5.333   2.415   2.239 -2.0771  0.2892  1.1736
   45MOL   H45441902   5.334   2.650   2.174  1.9045  1.2520  0.1270
   45MOL   H45541903   5.321   2.611   2.003 -0.1592  1.4109  0.3404
   45MOL   H45641904   5.550   2.520   2.172  0.2063  2.4288  2.1626
   45MOL   H45741905   5.540   2.494   2.005 -2.2688  0.6277 -2.1229
   45MOL   H45841906   5.556   2.760   1.972 -2.1351 -2.9773 -0.6846
   45MOL   H45941907   5.523   2.766   2.144 -0.5921 -0.8707 -0.2365
   45MOL   H46041908   5.747   2.648   2.178 -0.7117  1.4571  0.4599
   45MOL   H46141909   5.761   2.622   1.998  2.4318 -1.2347  1.7187
   45MOL   H46241910   5.767   2.894   2.153  3.3174  0.9341  0.3801
   45MOL   H46341911   5.908   2.806   2.105  0.7584  1.1201 -1.5685
   45MOL   H46441912   5.714   2.899   1.905  0.8300  1.1318 -0.3396
   45MOL   H46541913   5.850   2.799   1.868  1.6693  0.0289 -0.2816
   45MOL   H46641914   5.915   3.022   1.819  1.1156 -0.5617  0.4379
   45MOL   H46741915   6.011   2.972   1.948  0.2720 -0.3627  0.5608
   45MOL   H46841916   5.992   3.476   2.075  0.5307  1.7647  2.9683
   45MOL   H46941917   5.903   3.613   2.252  0.8221 -0.3229 -0.6684
   45MOL   H47041918   5.630   3.304   2.362 -0.3329  0.0318  1.6321
   45MOL   H47141919   5.721   3.155   2.188  2.3846 -0.9071 -1.5042
   45MOL   O47241920   5.575   3.576   2.637  0.2781  0.1514  0.6501
   45MOL   C47341921   5.652   3.514   2.736  0.3379 -0.3904 -0.5314
   45MOL   C47441922   5.604   3.376   2.763 -0.0082  0.1881  0.3514
   45MOL   C47541923   5.696   3.287   2.842 -0.1377  0.0829 -0.1371
   45MOL   C47641924   5.641   3.158   2.897 -0.5822  1.0662 -0.3359
   45MOL   C47741925   5.681   3.027   2.813 -0.8434  0.0589  0.1360
   45MOL   C47841926   5.615   2.899   2.860 -0.1536  0.5154  0.8982
   45MOL   C47941927   5.686   2.858   2.992  0.3077 -0.3289 -0.0338
   45MOL   C48041928   5.829   2.795   2.969 -0.1823  0.1510  0.4605
   45MOL   C48141929   5.824   2.658   2.905  1.5096  0.1199 -0.2289
   45MOL   C48241930   5.947   2.554   2.912 -0.9937 -0.2661  0.5895
   45MOL   O48341931   6.060   2.612   2.842  0.7098  0.0253 -0.1345
   45MOL   C48441932   6.144   2.685   2.917  0.7974 -0.2657 -0.1377
   45MOL   O48541933   6.141   2.691   3.040  0.7645  0.2958  0.6652
   45MOL   C48641934   6.238   2.763   2.840 -0.5928  0.1747  0.7141
   45MOL   C48741935   6.360   2.798   2.903  0.3004 -0.4134 -0.8681
   45MOL   C48841936   6.457   2.876   2.842 -0.4209  0.3979  0.1613
   45MOL   C48941937   6.433   2.910   2.704 -0.1354 -0.1490 -0.1247
   45MOL   C49041938   6.537   2.981   2.633 -0.1213 -0.7178  0.3764
   45MOL   O49141939   6.626   3.041   2.684 -0.2411  0.5376 -0.2353
   45MOL   O49241940   6.520   2.971   2.498  0.4211  0.0424 -0.6447
   45MOL   C49341941   6.305   2.878   2.644  0.5247  0.4813  0.0893
   45MOL   C49441942   6.209   2.803   2.708  0.0267 -0.5064  0.4602
   45MOL   H49541943   5.757   3.500   2.711  0.5470 -0.2109  0.2256
   45MOL   H49641944   5.646   3.573   2.828 -0.4454 -1.1949 -0.0668
   45MOL   H49741945   5.575   3.334   2.667  0.4260  1.3341 -0.2948
   45MOL   H49841946   5.510   3.385   2.819 -1.3010 -1.2343 -1.5327
   45MOL   H49941947   5.783   3.262   2.780 -1.1781 -1.6190 -0.9486
   45MOL   H50041948   5.734   3.350   2.922  2.9156 -0.1444 -1.3025
   45MOL   H50141949   5.535   3.175   2.913 -0.4781 -0.4269  2.1083
   45MOL   H50241950   5.685   3.140   2.995  2.2442  1.8803 -1.3906
   45MOL   H50341951   5.638   3.049   2.715 -1.9116  1.1467  0.8218
   45MOL   H50441952   5.787   3.010   2.795 -0.8265  0.5237 -0.2339
   45MOL   H50541953   5.508   2.919   2.863 -0.1713  1.2101 -2.1962
   45MOL   H50641954   5.625   2.822   2.784  1.5195  1.9831 -0.4180
   45MOL   H50741955   5.694   2.940   3.063 -1.2107 -1.8083  1.8958
   45MOL   H50841956   5.623   2.779   3.033 -0.5563 -0.5659 -1.7727
   45MOL   H50941957   5.906   2.846   2.911  0.7078 -0.2513  1.2743
   45MOL   H51041958   5.875   2.775   3.066 -1.0867 -2.2600  0.4099
   45MOL   H51141959   5.821   2.688   2.800  1.9307 -1.5754 -0.7489
   45MOL   H51241960   5.727   2.614   2.926  1.3896  2.4996  4.9617
   45MOL   H51341961   5.909   2.466   2.861 -0.2222 -0.4717  0.3676
   45MOL   H51441962   5.959   2.532   3.018  2.2467  0.8584  0.5161
   45MOL   H51541963   6.374   2.757   3.002 -2.8936  1.3736  0.4051
   45MOL   H51641964   6.551   2.890   2.893  0.2865  2.2159 -1.5871
   45MOL   H51741965   6.272   2.911   2.547  0.1967  0.5578  0.2291
   45MOL   H51841966   6.116   2.781   2.659 -1.0990  0.6489  2.0450
   45MOL   O51941967   6.634   3.033   2.419  0.0766 -0.7017 -1.0515
   45MOL   C52041968   6.606   3.170   2.388  0.2099 -0.0047  0.0813
   45MOL   C52141969   6.716   3.246   2.310 -0.8827 -0.8535 -0.3447
   45MOL   C52241970   6.674   3.393   2.294  0.0343  0.0417  0.8267
   45MOL   C52341971   6.733   3.449   2.161  0.1122 -0.1582  0.2404
   45MOL   C52441972   6.735   3.599   2.141 -0.7105  0.0296  0.8133
   45MOL   C52541973   6.812   3.672   2.256  0.1919 -1.0037 -0.3623
   45MOL   C52641974   6.819   3.828   2.228 -0.2417  0.0414 -1.6312
   45MOL   C52741975   6.922   3.903   2.317  0.0682 -0.1062  0.1215
   45MOL   C52841976   7.069   3.883   2.282  0.1269  0.2122 -0.3390
   45MOL   C52941977   7.123   3.924   2.146  0.3243 -0.2313 -0.2362
   45MOL   O53041978   7.266   3.934   2.164  0.0636 -0.5373 -0.2520
   45MOL   C53141979   7.341   3.972   2.062  0.2928 -0.6691 -0.0756
   45MOL   O53241980   7.294   3.995   1.949 -0.1296  0.2739 -0.0138
   45MOL   C53341981   7.489   3.995   2.097 -0.3370 -0.4036  0.0533
   45MOL   C53441982   7.585   3.998   1.993 -0.1496 -0.1396 -0.4562
   45MOL   C53541983   7.717   4.033   2.013 -0.2629 -0.1662  0.0836
   45MOL   C53641984   7.755   4.077   2.140  0.6530 -0.4253  0.0200
   45MOL   C53741985   7.887   4.143   2.168 -0.6409  0.0028 -0.0789
   45MOL   O53841986   7.957   4.198   2.082  0.1585  0.7397 -0.7976
   45MOL   O53941987   7.931   4.128   2.297  0.0480 -0.0698  0.2016
   45MOL   C54041988   7.660   4.074   2.246 -0.3727 -0.9646  0.3700
   45MOL   C54141989   7.525   4.040   2.228 -0.4051  1.1494 -0.8360
   45MOL   H54241990   6.505   3.192   2.356  0.4263  1.2701  0.2333
   45MOL   H54341991   6.614   3.221   2.484  1.5400  0.2948 -0.1709
   45MOL   H54441992   6.744   3.202   2.215 -2.3844 -3.4609  0.3673
   45MOL   H54541993   6.809   3.233   2.365 -2.4379  0.9343  2.8557
   45MOL   H54641994   6.566   3.407   2.293 -0.0565 -0.6565  1.0793
   45MOL   H54741995   6.706   3.460   2.373 -0.7751  0.6391  0.6606
   45MOL   H54841996   6.686   3.405   2.073  0.4591  1.0915 -0.5959
   45MOL   H54941997   6.840   3.425   2.158  0.1693 -0.2924  2.5075
   45MOL   H55041998   6.771   3.621   2.040  0.2270 -1.1584  0.8825
   45MOL   H55141999   6.631   3.633   2.140 -0.7777 -0.1507  1.5100
   45MOL   H55242000   6.758   3.667   2.350  0.6531  1.9026  0.1180
   45MOL   H55342001   6.906   3.620   2.272 -0.6384 -2.2837  0.4700
   45MOL   H55442002   6.846   3.840   2.123  4.0776  0.6135 -0.5564
   45MOL   H55542003   6.724   3.880   2.241  0.4601  0.9256  0.1037
   45MOL   H55642004   6.901   4.010   2.312  1.6251  0.1090 -2.2847
   45MOL   H55742005   6.909   3.877   2.423 -0.9958  0.1028  0.0496
   45MOL   H55842006   7.099   3.779   2.297  0.5454  0.1383 -1.6718
   45MOL   H55942007   7.124   3.940   2.356 -0.3667  1.5138 -0.9676
   45MOL   H56042008   7.081   4.021   2.120  1.3607  0.2437 -0.1668
   45MOL   H56142009   7.099   3.842   2.079  2.1782 -0.4413 -0.6865
   45MOL   H56242010   7.546   3.990   1.893 -3.9378  1.9217  0.7759
   45MOL   H56342011   7.788   4.032   1.931  0.9521  0.4390  1.1194
   45MOL   H56442012   7.688   4.103   2.346  0.8545  1.1537 -0.5429
   45MOL   H56542013   7.449   4.045   2.305 -0.3699 -0.9582 -0.6318
   45MOL   O56642014   0.096   4.183   2.309 -0.1470  0.2545 -0.4676
   45MOL   C56742015   0.076   4.321   2.347 -0.3235 -0.0316 -0.2970
   45MOL   C56842016   0.020   4.334   2.489  0.0775  0.3936 -0.1234
   45MOL   C56942017   0.083   4.243   2.591  1.1580  0.0659  0.9593
   45MOL   C57042018   0.034   4.261   2.734  0.0458  0.0007 -0.2295
   45MOL   C57142019   7.866   4.246   2.767 -0.1943  0.2564  0.4614
   45MOL   C57242020   7.842   4.252   2.915 -0.1859  0.2097  0.3810
   45MOL   C57342021   7.695   4.283   2.957  0.0014 -0.6055  0.1067
   45MOL   C57442022   7.596   4.177   2.909  0.2796 -0.3897  0.8642
   45MOL   C57542023   7.441   4.226   2.920  0.0898  0.3144  0.5447
   45MOL   C57642024   7.352   4.108   2.937 -0.2880  0.5550  0.2250
   45MOL   O57742025   7.366   4.013   2.830 -0.2704  0.2039  0.1729
   45MOL   C57842026   7.323   3.884   2.837  0.2058  0.3133  0.1618
   45MOL   O57942027   7.263   3.830   2.935 -1.1063 -0.2340 -0.1847
   45MOL   C58042028   7.350   3.811   2.707  0.0843  0.1121 -0.4232
   45MOL   C58142029   7.424   3.867   2.604  0.4629  0.3844 -0.3567
   45MOL   C58242030   7.425   3.802   2.476  0.4126 -0.4289 -0.6259
   45MOL   C58342031   7.364   3.676   2.453  0.8233 -0.1459  0.8222
   45MOL   C58442032   7.373   3.604   2.321 -0.4917  0.0899  0.2321
   45MOL   O58542033   7.352   3.478   2.310 -0.2407 -0.6448 -0.6258
   45MOL   O58642034   7.405   3.679   2.219  0.0318 -0.3701  0.7617
   45MOL   C58742035   7.293   3.620   2.560 -0.1923  0.5483  0.4752
   45MOL   C58842036   7.289   3.691   2.681 -0.4949 -0.2477 -0.0911
   45MOL   H58942037   0.176   4.365   2.344 -0.9659  1.6105  1.4843
   45MOL   H59042038   0.025   4.386   2.276 -0.9634  0.3472  0.5006
   45MOL   H59142039   7.894   4.303   2.474  0.7108 -2.1546  0.5621
   45MOL   H59242040   0.020   4.440   2.514 -1.1137  0.2399  0.5989
   45MOL   H59342041   0.067   4.139   2.559  1.3566  0.9221 -2.1096
   45MOL   H59442042   0.191   4.262   2.592  0.9497  1.3883 -0.4630
   45MOL   H59542043   0.070   4.353   2.781 -1.6619  1.4836 -1.7172
   45MOL   H59642044   0.085   4.183   2.791  2.9393  0.9573 -1.4324
   45MOL   H59742045   7.815   4.332   2.724  0.7604  0.1580 -0.9023
   45MOL   H59842046   7.834   4.149   2.729 -1.9430  0.8015  0.5137
   45MOL   H59942047   7.870   4.155   2.957 -2.0066 -1.3052 -1.8103
   45MOL   H60042048   7.911   4.324   2.959  0.6850 -0.6823  0.4862
   45MOL   H60142049   7.679   4.293   3.065  1.3771  1.5681  0.1354
   45MOL   H60242050   7.676   4.379   2.911 -1.0264  0.2127  2.1664
   45MOL   H60342051   7.625   4.150   2.808  2.1385  0.3068  1.1822
   45MOL   H60442052   7.620   4.081   2.955  0.8068 -1.1783 -1.0054
   45MOL   H60542053   7.421   4.296   2.839 -0.0880 -1.2979 -0.8389
   45MOL   H60642054   7.432   4.286   3.011  0.8181 -1.9760  2.1822
   45MOL   H60742055   7.249   4.143   2.937 -0.9433 -1.3114 -1.2808
   45MOL   H60842056   7.379   4.060   3.031 -1.4029  0.3339  0.4310
   45MOL   H60942057   7.477   3.959   2.625  1.8414 -0.2146 -1.1694
   45MOL   H61042058   7.488   3.840   2.398  0.4885  0.7243 -0.0048
   45MOL   H61142059   7.228   3.534   2.555  1.2261 -0.5331  0.2915
   45MOL   H61242060   7.242   3.650   2.770 -3.1887  0.9473 -0.9092
   45MOL   O61342061   7.388   3.619   2.084  0.5979  0.5814 -0.4965
   45MOL   C61442062   7.515   3.577   2.037  0.2000  0.2882 -0.0980
   45MOL   C61542063   7.500   3.505   1.906  0.4214  0.2344  0.0860
   45MOL   C61642064   7.437   3.594   1.789 -0.6597 -0.3892 -0.3274
   45MOL   C61742065   7.459   3.522   1.653 -0.7366  0.1781 -0.0278
   45MOL   C61842066   7.593   3.567   1.587 -0.3425 -0.0813 -0.1643
   45MOL   C61942067   7.579   3.698   1.509 -0.4519 -0.4186  0.5663
   45MOL   C62042068   7.704   3.759   1.442 -0.1256 -0.7632  0.1806
   45MOL   C62142069   7.782   3.675   1.342  0.0018  0.3642  0.3977
   45MOL   C62242070   7.704   3.614   1.222  0.0436  0.4963 -0.0001
   45MOL   C62342071   7.782   3.530   1.119 -0.1585  0.6516  0.6959
   45MOL   O62442072   7.703   3.497   1.009  0.1050 -0.0664 -0.6296
   45MOL   C62542073   7.752   3.508   0.881  0.1328 -0.2834  0.4401
   45MOL   O62642074   7.860   3.556   0.853  0.7393 -0.2139 -0.0606
   45MOL   C62742075   7.660   3.460   0.779  0.1851  0.1205 -0.1105
   45MOL   C62842076   7.571   3.354   0.803  0.0368  0.0357  0.0588
   45MOL   C62942077   7.501   3.292   0.701 -0.9312 -0.0298 -0.0685
   45MOL   C63042078   7.498   3.350   0.569 -0.3718  0.5042  0.5041
   45MOL   C63142079   7.415   3.287   0.460  0.4347 -0.2432  0.5253
   45MOL   O63242080   7.345   3.185   0.478 -0.2379 -0.7935  0.0263
   45MOL   O63342081   7.428   3.349   0.339  0.1721 -0.5783 -0.3608
   45MOL   C63442082   7.586   3.456   0.545 -0.1467 -0.2081 -0.2567
   45MOL   C63542083   7.668   3.504   0.651 -0.2798 -1.0296  0.3616
   45MOL   H63642084   7.581   3.663   2.027  0.4457  0.2705  1.2630
   45MOL   H63742085   7.556   3.505   2.108  0.9371  1.5766  0.7954
   45MOL   H63842086   7.442   3.414   1.920 -0.5564  0.6681 -1.1175
   45MOL   H63942087   7.598   3.469   1.875  0.9787  0.4135  1.6019
   45MOL   H64042088   7.329   3.605   1.795 -0.3905  1.4222  1.6256
   45MOL   H64142089   7.472   3.697   1.784 -0.2490 -0.4925  0.3235
   45MOL   H64242090   7.371   3.546   1.592  0.6979 -0.3556 -2.3880
   45MOL   H64342091   7.469   3.417   1.681 -0.7090  0.6359  1.7181
   45MOL   H64442092   7.673   3.562   1.659  0.5760 -0.5172 -1.2030
   45MOL   H64542093   7.599   3.487   1.513 -1.7037 -2.7500  2.4855
   45MOL   H64642094   7.494   3.691   1.441 -0.8057 -0.7731  1.0449
   45MOL   H64742095   7.534   3.773   1.575 -0.7463 -1.8827  2.0608
   45MOL   H64842096   7.685   3.853   1.391  0.3750 -1.8427 -2.0822
   45MOL   H64942097   7.756   3.782   1.535  0.7541 -3.0859  0.3011
   45MOL   H65042098   7.867   3.739   1.317  0.2842 -0.8346 -1.8033
   45MOL   H65142099   7.835   3.603   1.404  1.3227 -1.9885 -3.3146
   45MOL   H65242100   7.666   3.692   1.156  1.5160 -0.0898 -1.5565
   45MOL   H65342101   7.622   3.552   1.261  1.5484 -1.2230  0.5040
   45MOL   H65442102   7.793   3.431   1.162 -1.0841  0.2434 -0.0167
   45MOL   H65542103   7.882   3.569   1.097 -0.8337  0.1130 -3.5532
   45MOL   H65642104   7.577   3.298   0.895  0.5980  0.9696  0.6033
   45MOL   H65742105   7.446   3.202   0.723  1.0461 -0.6792  2.3692
   45MOL   H65842106   7.598   3.497   0.446  1.5333  0.5947  0.2603
   45MOL   H65942107   7.748   3.572   0.626 -1.7558  0.5173 -0.1823
   45MOL   O66042108   7.393   3.263   0.221 -0.3651  0.1348 -0.3292
   45MOL   C66142109   7.504   3.222   0.146 -0.0263 -0.0881  0.2481
   45MOL   C66242110   7.618   3.139   0.208 -0.3335  0.5343 -0.0902
   45MOL   C66342111   7.741   3.130   0.128  0.3423  0.1040  0.2046
   45MOL   C66442112   7.865   3.068   0.210  0.1173 -0.0430  0.3189
   45MOL   C66542113   0.024   3.129   0.175 -0.0942 -0.1780  0.8768
   45MOL   C66642114   0.141   3.123   0.269 -0.3570  0.1130  0.4916
   45MOL   C66742115   0.258   3.216   0.231 -0.3459  0.6859 -0.5992
   45MOL   C66842116   0.382   3.206   0.328 -0.5864 -0.1887  0.0360
   45MOL   C66942117   0.507   3.274   0.284 -0.6581 -0.2879  0.2835
   45MOL   C67042118   0.644   3.222   0.354  0.3451  0.5416 -0.2387
   45MOL   O67142119   0.642   3.283   0.483 -0.8527 -0.5381 -0.0431
   45MOL   C67242120   0.746   3.261   0.570  0.7276  0.4111  0.4670
   45MOL   O67342121   0.845   3.195   0.536 -0.2696 -0.2995  0.4038
   45MOL   C67442122   0.728   3.316   0.707  0.0695 -0.0609 -0.3140
   45MOL   C67542123   0.616   3.399   0.740  0.0446 -0.7976  0.0505
   45MOL   C67642124   0.611   3.459   0.868  0.4017 -0.0265 -0.4824
   45MOL   C67742125   0.703   3.417   0.964 -0.2255  0.0020  0.1343
   45MOL   C67842126   0.686   3.463   1.108  0.1619 -0.1637 -0.1257
   45MOL   O67942127   0.790   3.483   1.177  0.1245 -0.1763 -0.2778
   45MOL   O68042128   0.557   3.469   1.150  0.7034  0.4923 -0.4453
   45MOL   C68142129   0.815   3.341   0.935  0.1713  0.4191  0.5806
   45MOL   C68242130   0.830   3.291   0.804 -0.7048  0.8457 -0.6010
   45MOL   H68342131   7.465   3.167   0.061  0.1862  0.3189 -0.1198
   45MOL   H68442132   7.547   3.315   0.107  1.2286 -0.6906  0.1848
   45MOL   H68542133   7.595   3.039   0.244  0.3471  0.8684  1.3202
   45MOL   H68642134   7.641   3.195   0.300 -1.7843 -0.7501  1.0631
   45MOL   H68742135   7.729   3.069   0.039  0.1169  2.3310 -1.3301
   45MOL   H68842136   7.771   3.221   0.076 -0.6538  0.4548  0.2274
   45MOL   H68942137   7.873   2.962   0.189 -2.3616  0.0132 -1.1693
   45MOL   H69042138   7.858   3.074   0.318  0.9707 -0.5963  0.4093
   45MOL   H69142139   0.056   3.069   0.089 -0.7147  1.1741 -0.3173
   45MOL   H69242140   0.017   3.233   0.143 -1.8229  0.0387  1.8807
   45MOL   H69342141   0.109   3.162   0.365 -0.0026  0.7073  0.3672
   45MOL   H69442142   0.169   3.019   0.291 -1.2930 -0.4809 -1.0455
   45MOL   H69542143   0.284   3.195   0.127  1.2337  0.8625 -0.2584
   45MOL   H69642144   0.214   3.315   0.229  0.3559  1.0604  1.2233
   45MOL   H69742145   0.358   3.248   0.426  0.4956 -0.0612  0.2579
   45MOL   H69842146   0.402   3.099   0.340 -0.7950 -0.3682 -1.1402
   45MOL   H69942147   0.500   3.382   0.298 -1.1170 -0.4932  1.6698
   45MOL   H70042148   0.520   3.251   0.178 -1.0312 -3.9471  0.9704
   45MOL   H70142149   0.734   3.253   0.300  0.5809  1.4944  0.6826
   45MOL   H70242150   0.649   3.117   0.380  1.9586  0.4621 -0.8110
   45MOL   H70342151   0.539   3.426   0.670  0.4722  2.2985  0.6770
   45MOL   H70442152   0.525   3.515   0.902  1.8179  0.6641  2.0669
   45MOL   H70542153   0.871   3.308   1.021  0.8811  1.1746  0.4194
   45MOL   H70642154   0.917   3.240   0.764  0.4628  1.7830  0.6943
   45MOL   O70742155   0.540   3.525   1.287  0.1456  0.8873 -0.4729
   45MOL   C70842156   0.522   3.415   1.376 -0.4257  0.9987 -0.1615
   45MOL   C70942157   0.381   3.352   1.366  0.5122  0.5468  0.0376
   45MOL   C71042158   0.270   3.464   1.365 -0.7428  0.0914 -1.2378
   45MOL   C71142159   0.264   3.543   1.496  0.4358  0.3393 -0.2320
   45MOL   C71242160   0.157   3.645   1.496 -0.3757  0.2137 -0.2536
   45MOL   C71342161   0.163   3.739   1.618 -0.0082  0.3829 -0.1934
   45MOL   C71442162   0.027   3.792   1.670  0.4887  0.5871 -0.0812
   45MOL   C71542163   0.026   3.908   1.762  0.1989  0.6532 -0.1325
   45MOL   C71642164   0.069   3.886   1.911 -0.4480  0.5683  0.9420
   45MOL   C71742165   0.214   3.858   1.941 -0.2832 -0.4750  0.0197
   45MOL   O71842166   0.230   3.866   2.082  0.3840 -0.3395  1.0262
   45MOL   C71942167   0.350   3.835   2.142  0.5784 -0.5147  0.0531
   45MOL   O72042168   0.451   3.803   2.087 -0.7417 -0.8873  0.5345
   45MOL   C72142169   0.337   3.840   2.296 -0.5024 -0.6472  0.3100
   45MOL   C72242170   0.449   3.842   2.381  1.1810  0.5518  0.3215
   45MOL   C72342171   0.439   3.859   2.522 -0.3453 -0.9228 -0.1116
   45MOL   C72442172   0.310   3.888   2.573  0.2723  0.4386 -0.5375
   45MOL   C72542173   0.280   3.913   2.724 -0.4591  0.3246 -0.3421
   45MOL   O72642174   0.169   3.935   2.766  0.1458 -0.0923 -0.1657
   45MOL   O72742175   0.394   3.898   2.800  0.4522  0.4106 -0.3732
   45MOL   C72842176   0.200   3.905   2.486  0.0005  0.1886 -0.4546
   45MOL   C72942177   0.209   3.871   2.350 -0.0959 -0.1995  0.0711
   45MOL   H73042178   0.597   3.344   1.343 -1.5559 -0.5973  0.6335
   45MOL   H73142179   0.541   3.445   1.479  0.8029 -0.5789  0.0780
   45MOL   H73242180   0.375   3.294   1.458 -0.3863  2.2332  1.0561
   45MOL   H73342181   0.364   3.288   1.280 -0.4180  0.3109  0.3978
   45MOL   H73442182   0.282   3.526   1.276  0.0910  2.6890  0.6176
   45MOL   H73542183   0.177   3.410   1.351 -0.1358 -0.8283 -1.7710
   45MOL   H73642184   0.362   3.586   1.516  0.5020 -0.5158  1.3472
   45MOL   H73742185   0.239   3.478   1.580 -1.1762  1.3698  0.1161
   45MOL   H73842186   0.179   3.699   1.404  1.8139 -0.1375  0.0303
   45MOL   H73942187   0.064   3.588   1.492  1.6232 -3.0444 -2.0874
   45MOL   H74042188   0.203   3.680   1.701 -2.6533  0.4841  1.2286
   45MOL   H74142189   0.233   3.818   1.591 -0.9454  1.1360 -0.4424
   45MOL   H74242190   7.947   3.832   1.587  0.7111 -0.0899 -0.5781
   45MOL   H74342191   7.947   3.713   1.717  0.6918  0.4621 -0.0389
   45MOL   H74442192   0.096   3.984   1.725  1.6581 -0.9125 -0.6512
   45MOL   H74542193   7.902   3.944   1.775 -0.1843 -0.0823 -1.0540
   45MOL   H74642194   0.014   3.797   1.941 -1.9991  1.3055  0.3290
   45MOL   H74742195   0.034   3.964   1.978 -2.1284 -0.8101  1.7234
   45MOL   H74842196   0.281   3.920   1.881 -1.0250 -1.2963 -1.6996
   45MOL   H74942197   0.239   3.758   1.906  1.0002 -0.0468 -0.2977
   45MOL   H75042198   0.546   3.826   2.336  0.8515 -2.6815  0.6470
   45MOL   H75142199   0.530   3.842   2.578  2.0912 -0.4598 -3.7148
   45MOL   H75242200   0.103   3.934   2.525  0.9716  2.1603  0.5812
   45MOL   H75342201   0.118   3.871   2.292 -0.2661 -1.3245  0.3411
   45MOL   O75442202   0.373   3.945   2.936  0.2709 -0.0766 -0.3399
   45MOL   C75542203   0.403   4.086   2.946 -0.2051  0.1905  0.1673
   45MOL   C75642204   0.380   4.138   3.085 -0.0620  0.6475 -0.3957
   45MOL   C75742205   0.380   4.293   3.100 -0.3960 -0.0226  0.8389
   45MOL   C75842206   0.279   4.365   3.018 -0.2913 -0.1348 -0.5362
   45MOL   C75942207   0.255   4.518   3.037 -0.6377 -0.4377  0.6241
   45MOL   C76042208   0.386   4.608   3.009 -0.3749 -0.3351 -0.4370
   45MOL   C76142209   0.362   4.755   3.037 -0.3367 -0.1258  0.4578
   45MOL   C76242210   0.473   4.863   2.992 -0.9002 -0.2990 -0.2730
   45MOL   C76342211   0.610   4.827   3.045 -0.4442  0.4592 -0.3426
   45MOL   C76442212   0.693   4.955   3.042  0.2257 -0.2494 -0.3479
   45MOL   O76542213   0.717   4.992   2.905 -0.5001  0.1783 -0.6294
   45MOL   C76642214   0.717   5.124   2.865 -0.0656 -0.4226  0.5928
   45MOL   O76742215   0.678   5.225   2.929  0.5975  0.4949  0.3782
   45MOL   C76842216   0.772   5.137   2.730 -0.0348 -0.1209  0.3473
   45MOL   C76942217   0.818   5.266   2.682  0.7936  0.5904  0.2101
   45MOL   C77042218   0.882   5.286   2.560  0.0285  0.3937 -0.6035
   45MOL   C77142219   0.899   5.177   2.474  0.5176 -0.5425  0.3502
   45MOL   C77242220   0.971   5.199   2.339  0.4977 -0.5690  0.3085
   45MOL   O77342221   1.044   5.295   2.308  0.1725 -0.3582  0.1196
   45MOL   O77442222   0.948   5.100   2.254  0.2514 -0.4563  0.0125
   45MOL   C77542223   0.850   5.047   2.513  0.6200  0.1244  0.1873
   45MOL   C77642224   0.778   5.028   2.638 -0.0176 -0.0353  0.5440
   45MOL   H77742225   0.506   4.109   2.920 -0.2213 -0.6005 -0.6277
   45MOL   H77842226   0.335   4.137   2.878 -0.8057 -0.2681  0.4188
   45MOL   H77942227   0.455   4.099   3.154 -1.0748 -0.5662  0.0552
   45MOL   H78042228   0.283   4.103   3.121  1.3177 -1.4321  1.4436
   45MOL   H78142229   0.351   4.314   3.203 -0.0773  2.0445  0.5227
   45MOL   H78242230   0.476   4.339   3.074 -1.1427  1.1757  0.1315
   45MOL   H78342231   0.182   4.315   3.027  0.1923 -0.8504  0.8386
   45MOL   H78442232   0.288   4.351   2.910 -0.3489  1.6429 -0.7872
   45MOL   H78542233   0.181   4.539   2.959  0.2145  3.6002  0.7957
   45MOL   H78642234   0.220   4.545   3.136  1.3609  0.8604  0.9988
   45MOL   H78742235   0.464   4.568   3.074 -1.4496 -0.2337  0.9370
   45MOL   H78842236   0.415   4.584   2.907  0.1946 -0.2489 -0.2979
   45MOL   H78942237   0.273   4.801   2.993  0.3972  1.5530  0.6614
   45MOL   H79042238   0.339   4.759   3.143 -1.4635  0.3590  0.2031
   45MOL   H79142239   0.483   4.862   2.884  2.4339  0.6479 -0.0046
   45MOL   H79242240   0.446   4.963   3.024  0.0550  0.1570 -0.8708
   45MOL   H79342241   0.661   4.753   2.983 -0.3918  1.4805 -1.5433
   45MOL   H79442242   0.597   4.803   3.150 -0.5424  3.4243  0.3710
   45MOL   H79542243   0.789   4.932   3.088  0.8124  1.9239 -0.4276
   45MOL   H79642244   0.641   5.026   3.106  1.2487 -2.1742  2.6952
   45MOL   H79742245   0.805   5.353   2.746 -1.2771 -0.8274  1.7887
   45MOL   H79842246   0.921   5.385   2.539  1.2797 -0.0341 -0.3670
   45MOL   H79942247   0.858   4.966   2.443 -1.6668 -1.4534  1.6900
   45MOL   H80042248   0.744   4.930   2.668  0.9371 -0.6629 -0.4256
   45MOL   O80142249   1.011   5.118   2.118 -0.0924 -0.2554  0.2147
   45MOL   C80242250   0.910   5.149   2.024 -0.3504 -0.2654  0.3743
   45MOL   C80342251   0.942   5.126   1.875  0.4354 -0.8999 -0.4331
   45MOL   C80442252   0.845   5.167   1.765 -0.6221 -0.1255  0.2913
   45MOL   C80542253   0.884   5.115   1.622  0.3755 -0.5909  0.4446
   45MOL   C80642254   0.775   5.143   1.521  0.1497  0.3525 -0.3446
   45MOL   C80742255   0.802   5.086   1.383 -0.0759  0.3762  0.0087
   45MOL   C80842256   0.780   4.938   1.365  0.0271 -0.0437 -0.7451
   45MOL   C80942257   0.783   4.884   1.225 -0.3942  0.7400  0.1536
   45MOL   C81042258   0.820   4.736   1.207  0.2992  0.3395 -0.6067
   45MOL   C81142259   0.748   4.637   1.294  0.2361 -1.0659  0.0493
   45MOL   O81242260   0.605   4.639   1.262  0.6073  0.5955  0.1322
   45MOL   C81342261   0.522   4.554   1.320 -0.9125 -0.0121  0.1686
   45MOL   O81442262   0.558   4.466   1.395 -0.7722 -0.4952  0.3632
   45MOL   C81542263   0.381   4.570   1.289 -0.1392  0.8186 -0.8892
   45MOL   C81642264   0.336   4.670   1.198  0.4029 -0.3243 -0.5192
   45MOL   C81742265   0.200   4.691   1.177  0.2636 -0.1631  0.4436
   45MOL   C81842266   0.102   4.614   1.239  0.7720  0.4725 -0.2736
   45MOL   C81942267   7.940   4.629   1.217  1.1948  0.4478  0.2633
   45MOL   O82042268   7.899   4.687   1.117 -0.0878  0.6617  0.6459
   45MOL   O82142269   7.859   4.568   1.309  0.0714 -0.5593  0.2509
   45MOL   C82242270   0.147   4.516   1.334 -1.0965  0.2813  0.5089
   45MOL   C82342271   0.282   4.496   1.360 -0.0488 -0.1509  0.0344
   45MOL   H82442272   0.820   5.095   2.053 -0.3038 -0.3917  0.2790
   45MOL   H82542273   0.905   5.258   2.036 -0.0513 -0.3648  1.5238
   45MOL   H82642274   0.945   5.017   1.874 -3.3225 -1.1199  1.6402
   45MOL   H82742275   1.042   5.167   1.862  0.1706  0.7865  2.3933
   45MOL   H82842276   0.759   5.112   1.802  0.2337  0.1323  2.7755
   45MOL   H82942277   0.824   5.273   1.753  1.1296  0.2593  0.4655
   45MOL   H83042278   0.901   5.007   1.630  0.0209 -0.5443  1.9084
   45MOL   H83142279   0.983   5.140   1.584 -0.0514  1.6046  0.7355
   45MOL   H83242280   0.676   5.108   1.550 -0.0779  1.7610  0.6210
   45MOL   H83342281   0.772   5.252   1.520 -1.5361  0.3219 -0.6206
   45MOL   H83442282   0.740   5.124   1.302  2.4840  2.3924 -1.0705
   45MOL   H83542283   0.904   5.098   1.346 -0.1218 -2.8511 -1.3519
   45MOL   H83642284   0.848   4.875   1.422 -0.3867  0.8369  0.7493
   45MOL   H83742285   0.683   4.913   1.409 -0.0738 -0.0704 -0.9820
   45MOL   H83842286   0.688   4.902   1.175 -0.8394 -1.3533  0.1621
   45MOL   H83942287   0.856   4.940   1.167 -1.1156  0.7404 -0.7502
   45MOL   H84042288   0.925   4.719   1.230 -0.1116 -1.0048  0.2739
   45MOL   H84142289   0.800   4.702   1.105  2.0914  0.3609 -0.9873
   45MOL   H84242290   0.756   4.657   1.401 -2.0427 -0.4351  0.1457
   45MOL   H84342291   0.771   4.532   1.278 -1.7378 -1.1040 -3.1268
   45MOL   H84442292   0.395   4.744   1.145  0.3644 -0.2533 -0.4648
   45MOL   H84542293   0.174   4.761   1.099  0.7119  0.7603  1.1092
   45MOL   H84642294   0.076   4.449   1.381 -1.2559 -0.5492 -0.8704
   45MOL   H84742295   0.306   4.425   1.438  1.1820 -0.5781 -0.7308
   45MOL   O84842296   7.708   4.603   1.298 -0.1649  0.0813  0.0495
   45MOL   C84942297   7.681   4.721   1.380 -0.3084  0.2865 -0.9332
   45MOL   C85042298   7.701   4.689   1.526 -0.0674 -0.4894 -0.1677
   45MOL   C85142299   7.668   4.814   1.618  0.1861 -0.3275  0.1272
   45MOL   C85242300   7.652   4.785   1.766  0.4077  0.6017  0.5645
   45MOL   C85342301   7.581   4.902   1.844  0.5192  0.2915  0.1913
   45MOL   C85442302   7.674   5.024   1.873 -0.7785  0.6047 -0.1419
   45MOL   C85542303   7.597   5.149   1.894  0.5894  0.8472 -0.6397
   45MOL   C85642304   7.680   5.271   1.931 -0.8327 -0.7962 -0.3497
   45MOL   C85742305   7.724   5.275   2.077 -0.0020 -0.1884  0.6337
   45MOL   C85842306   7.610   5.296   2.176 -0.2019 -0.3189 -0.0079
   45MOL   O85942307   7.667   5.325   2.296 -0.2084 -0.4458 -0.9696
   45MOL   C86042308   7.590   5.380   2.394 -0.5208  0.0471  0.3677
   45MOL   O86142309   7.477   5.413   2.375 -0.0441 -0.3682 -0.1853
   45MOL   C86242310   7.662   5.405   2.519 -0.1396  0.0023 -0.7106
   45MOL   C86342311   7.608   5.472   2.626  0.7751  0.2311  0.2137
   45MOL   C86442312   7.669   5.486   2.752  0.3107  0.2142 -0.1077
   45MOL   C86542313   7.795   5.421   2.772  0.0562  0.0134  0.4913
   45MOL   C86642314   7.870   5.436   2.894  0.0496  0.1519  0.1426
   45MOL   O86742315   0.010   5.407   2.904  0.2075  0.6298 -0.6380
   45MOL   O86842316   7.787   5.490   2.983  0.0559  0.0856 -0.5927
   45MOL   C86942317   7.853   5.353   2.662 -0.1896 -0.4890 -1.0957
   45MOL   C87042318   7.792   5.350   2.536  0.0665 -0.7206 -0.0994
   45MOL   H87142319   7.752   4.800   1.354  0.1915  0.0226 -0.3843
   45MOL   H87242320   7.578   4.752   1.362 -0.7220 -1.2868 -1.3387
   45MOL   H87342321   7.808   4.671   1.531  0.2530  0.8440 -1.7402
   45MOL   H87442322   7.634   4.609   1.558 -2.1360  1.0208 -0.5805
   45MOL   H87542323   7.739   4.896   1.604 -0.5711  0.7050  2.1027
   45MOL   H87642324   7.577   4.859   1.578  1.4269  1.7954 -0.3817
   45MOL   H87742325   7.741   4.746   1.815 -1.0741 -0.8060  2.2453
   45MOL   H87842326   7.573   4.709   1.771  1.7771 -0.9122 -0.1940
   45MOL   H87942327   7.503   4.939   1.778  1.8010  0.5474 -1.2131
   45MOL   H88042328   7.547   4.861   1.939 -1.2470 -1.2566 -1.0736
   45MOL   H88142329   7.732   4.996   1.962  1.1962  1.2871 -1.1729
   45MOL   H88242330   7.754   5.042   1.801 -3.5893  0.0431 -3.5294
   45MOL   H88342331   7.546   5.167   1.799 -1.3212  2.7195  0.6791
   45MOL   H88442332   7.518   5.122   1.964  1.1853  0.4264 -0.1254
   45MOL   H88542333   7.765   5.283   1.864 -1.3089  0.0285 -0.8197
   45MOL   H88642334   7.615   5.356   1.913  0.3509  0.2598  0.3431
   45MOL   H88742335   7.786   5.362   2.096 -1.6409  0.4101  3.4592
   45MOL   H88842336   7.778   5.183   2.100  0.6283 -0.2885 -1.1274
   45MOL   H88942337   7.550   5.205   2.182 -0.4723 -0.2375 -1.4139
   45MOL   H89042338   7.553   5.381   2.138 -2.8861 -1.2893  1.6435
   45MOL   H89142339   7.508   5.514   2.624  0.9714  0.8927  2.3526
   45MOL   H89242340   7.612   5.543   2.824  0.7525 -2.6694  2.6417
   45MOL   H89342341   7.954   5.317   2.675 -0.5843 -0.8164  1.3130
   45MOL   H89442342   7.851   5.299   2.460  0.6319 -0.5428  0.2146
   45MOL   O89542343   7.857   5.532   3.106  0.0902 -0.3937 -0.3452
   45MOL   C89642344   7.832   5.432   3.204 -0.2195  0.4698 -0.2487
   45MOL   C89742345   7.709   5.463   3.289 -0.0349  0.1716  0.6257
   45MOL   C89842346   7.571   5.430   3.228  0.2529 -0.6247 -0.0580
   45MOL   C89942347   7.449   5.475   3.306  0.3783  0.0647 -0.4750
   45MOL   C90042348   7.309   5.454   3.229  0.0350 -0.0194  0.4445
   45MOL   C90142349   7.265   5.309   3.219  1.0842  0.0813 -0.1193
   45MOL   C90242350   7.120   5.301   3.152 -0.6329  0.0944 -0.3861
   45MOL   C90342351   7.011   5.379   3.217  0.4920 -0.1211 -0.3428
   45MOL   C90442352   6.878   5.355   3.145 -0.7398  0.3696  0.2825
   45MOL   C90542353   6.765   5.461   3.184  0.5785  0.2311  0.3522
   45MOL   O90642354   6.635   5.424   3.135  0.2211 -0.3606 -0.0352
   45MOL   C90742355   6.533   5.501   3.168 -0.2001 -0.0017 -0.6164
   45MOL   O90842356   6.531   5.592   3.256  0.1003 -0.3784 -0.0894
   45MOL   C90942357   6.410   5.457   3.094 -0.0545 -0.7944  0.4285
   45MOL   C91042358   6.291   5.519   3.121  0.2991 -0.4969 -0.8328
   45MOL   C91142359   6.177   5.472   3.046 -1.0934 -0.4047 -0.6525
   45MOL   C91242360   6.180   5.369   2.949 -0.1148  0.1266  0.0656
   45MOL   C91342361   6.057   5.343   2.869 -0.3203  0.6224  0.4722
   45MOL   O91442362   5.951   5.407   2.882  0.7520  0.0256 -0.2260
   45MOL   O91542363   6.078   5.243   2.782  0.1423  0.1541  0.0833
   45MOL   C91642364   6.305   5.309   2.922  0.5846  0.2867  0.1170
   45MOL   C91742365   6.418   5.356   2.989 -0.1710 -0.6728 -0.0995
   45MOL   H91842366   7.817   5.336   3.155  0.3612  0.4176 -0.3337
   45MOL   H91942367   7.926   5.434   3.260 -2.1991  3.2258  3.2380
   45MOL   H92042368   7.699   5.569   3.311 -1.8117  0.4195 -1.2115
   45MOL   H92142369   7.721   5.415   3.386  0.1562 -1.6305 -0.2688
   45MOL   H92242370   7.564   5.464   3.125  1.0039  1.6626  0.6133
   45MOL   H92342371   7.561   5.325   3.201  0.5433 -0.2880 -1.5496
   45MOL   H92442372   7.465   5.580   3.331 -3.1182  0.1169  1.9861
   45MOL   H92542373   7.455   5.419   3.399  0.8807  0.5429 -0.2186
   45MOL   H92642374   7.225   5.514   3.264 -0.0672 -0.1891  0.4941
   45MOL   H92742375   7.313   5.499   3.131  2.0223 -1.2111 -0.0582
   45MOL   H92842376   7.320   5.246   3.149  0.9646 -0.4869  0.2973
   45MOL   H92942377   7.267   5.242   3.305  0.0241 -2.9139 -2.3754
   45MOL   H93042378   7.137   5.320   3.046 -1.1581  2.0103 -0.1442
   45MOL   H93142379   7.083   5.199   3.153  1.6419 -0.7427  0.9575
   45MOL   H93242380   7.009   5.366   3.325  1.8408  1.5615 -0.0968
   45MOL   H93342381   7.025   5.487   3.210  1.3835 -0.3102 -1.5930
   45MOL   H93442382   6.845   5.258   3.182  1.1279 -0.6600 -0.7210
   45MOL   H93542383   6.894   5.352   3.038  0.9472 -1.2496  0.5478
   45MOL   H93642384   6.772   5.565   3.152  1.1599  0.6918  1.9823
   45MOL   H93742385   6.762   5.460   3.293 -2.1841 -0.5310  0.3100
   45MOL   H93842386   6.294   5.589   3.203  1.4253 -1.6967  0.1634
   45MOL   H93942387   6.085   5.521   3.072 -2.4099 -2.2008 -1.8316
   45MOL   H94042388   6.319   5.220   2.863  3.6382 -0.0888  1.3251
   45MOL   H94142389   6.515   5.313   2.968  0.1336  0.6228 -1.5123
   45MOL   H94242390   6.030   5.249   2.700 -0.1627 -1.9665  0.0845
   46MOL     O142391   5.712   2.860   6.746  0.4021  0.2664  0.2274
   46MOL     C242392   5.857   2.877   6.734 -0.4618  0.9519 -0.1036
   46MOL     C342393   5.922   2.779   6.633 -0.5348 -0.3064  0.2558
   46MOL     C442394   6.059   2.829   6.588  0.1548  0.0016  0.1614
   46MOL     C542395   6.144   2.743   6.498  0.3551 -0.5740 -0.0990
   46MOL     C642396   6.278   2.806   6.449  0.4147 -0.0190  0.2744
   46MOL     C742397   6.266   2.934   6.364  0.3291  0.4007 -0.0159
   46MOL     C842398   6.396   2.997   6.323  0.5851  0.2731  0.1058
   46MOL     C942399   6.446   2.930   6.195 -0.0269 -0.2714  0.3709
   46MOL    C1042400   6.588   2.964   6.162  0.5120  0.4507 -0.0568
   46MOL    C1142401   6.624   2.974   6.014 -0.2030  0.4485 -0.0661
   46MOL    O1242402   6.752   3.023   6.007  0.7533  0.2662 -0.1989
   46MOL    C1342403   6.830   2.996   5.897 -0.2178 -0.7295 -0.0051
   46MOL    O1442404   6.792   2.930   5.803 -0.1772  0.2352  0.2546
   46MOL    C1542405   6.972   3.054   5.909  0.0640 -0.1825 -0.3309
   46MOL    C1642406   7.007   3.139   6.013  0.6219 -0.1483 -0.2833
   46MOL    C1742407   7.131   3.195   6.021 -0.0907 -0.1879  0.0042
   46MOL    C1842408   7.225   3.181   5.916 -0.2221 -0.1448  0.4744
   46MOL    C1942409   7.358   3.248   5.928 -0.2455 -1.1541 -0.0287
   46MOL    O2042410   7.386   3.328   6.019 -0.3742 -0.0214  0.8168
   46MOL    O2142411   7.444   3.210   5.832  0.1198  0.4371  0.9100
   46MOL    C2242412   7.196   3.094   5.811 -0.0763  0.9488  0.3170
   46MOL    C2342413   7.074   3.021   5.810  0.7970  0.0910  0.3205
   46MOL    H2442414   5.870   2.977   6.692  0.1237  1.4517  1.2521
   46MOL    H2542415   5.917   2.871   6.824 -2.6649  0.7004  1.3755
   46MOL    H2642416   5.867   2.781   6.539 -1.9030 -0.6055  1.0408
   46MOL    H2742417   5.921   2.678   6.673 -0.1746  0.1789  1.5463
   46MOL    H2842418   6.049   2.917   6.524 -0.5943 -0.8795 -0.9514
   46MOL    H2942419   6.110   2.878   6.672  1.4721 -0.2585 -0.4767
   46MOL    H3042420   6.087   2.721   6.408 -0.0901 -0.3768  0.1377
   46MOL    H3142421   6.169   2.649   6.547 -2.0126 -0.6518  1.0134
   46MOL    H3242422   6.347   2.815   6.533 -2.6423  1.4614  2.7242
   46MOL    H3342423   6.320   2.736   6.376  0.9983  2.4041 -1.7525
   46MOL    H3442424   6.187   2.938   6.289 -0.4403  1.6400  0.8442
   46MOL    H3542425   6.234   3.000   6.445  0.8852 -0.9042  1.2963
   46MOL    H3642426   6.388   3.106   6.317 -1.0345  0.1596 -0.1249
   46MOL    H3742427   6.468   2.988   6.404  2.2687 -2.4844 -1.6310
   46MOL    H3842428   6.436   2.822   6.202 -0.2584 -0.1622  1.9278
   46MOL    H3942429   6.385   2.957   6.108 -0.3851 -0.2466  0.6292
   46MOL    H4042430   6.654   2.902   6.223 -1.7957 -0.4744  1.5750
   46MOL    H4142431   6.604   3.058   6.215 -2.6106  0.3523  1.1960
   46MOL    H4242432   6.555   3.043   5.965  0.7711  0.5233 -1.3805
   46MOL    H4342433   6.620   2.877   5.965  1.4009  0.6600 -0.6361
   46MOL    H4442434   6.938   3.157   6.095  0.4172  1.8313 -0.8611
   46MOL    H4542435   7.161   3.257   6.104 -0.6091  0.1471 -0.0601
   46MOL    H4642436   7.260   3.061   5.730 -0.7216 -1.2103  0.6808
   46MOL    H4742437   7.052   2.951   5.730 -1.3569  0.1589  0.8331
   46MOL    H4842438   5.680   2.869   6.657  0.4554  1.4068  0.3122
   46MOL    O4942439   7.563   3.304   5.831 -0.7435 -0.1931 -0.3079
   46MOL    C5042440   7.674   3.235   5.889  0.1423  0.3196 -0.4528
   46MOL    C5142441   7.795   3.229   5.791 -0.1519  0.2777 -0.3208
   46MOL    C5242442   7.911   3.138   5.847  0.6309  0.1670 -0.0502
   46MOL    C5342443   0.039   3.233   5.904  0.9290  0.2185  0.0295
   46MOL    C5442444   0.135   3.158   5.998 -0.0545 -0.2913  0.1237
   46MOL    C5542445   0.218   3.047   5.936  0.0047  0.4251 -0.8356
   46MOL    C5642446   0.317   2.997   6.036 -0.7838 -0.3242 -0.6737
   46MOL    C5742447   0.424   2.899   5.989 -0.4573 -1.1183 -0.1790
   46MOL    C5842448   0.504   2.831   6.097 -0.4389 -0.2372  0.0941
   46MOL    C5942449   0.627   2.744   6.055  0.3882 -0.0013 -0.5740
   46MOL    O6042450   0.591   2.672   5.943 -0.0619 -0.6705 -0.3139
   46MOL    C6142451   0.681   2.594   5.872  0.8079 -0.0621 -0.4199
   46MOL    O6242452   0.793   2.567   5.909 -0.7736  0.0605 -0.1927
   46MOL    C6342453   0.619   2.530   5.753  0.4881  0.7940 -0.0728
   46MOL    C6442454   0.670   2.407   5.717 -0.2242 -0.0465 -0.0886
   46MOL    C6542455   0.628   2.338   5.602  0.2579  0.5004  0.0846
   46MOL    C6642456   0.517   2.380   5.527 -0.3863  0.2965 -0.5299
   46MOL    C6742457   0.467   2.299   5.412 -0.0807 -0.7826 -0.1633
   46MOL    O6842458   0.516   2.192   5.386  0.2282  0.2247  0.1959
   46MOL    O6942459   0.346   2.343   5.362  0.7497  0.1126  0.0999
   46MOL    C7042460   0.454   2.500   5.568  0.1303 -0.8126 -0.1775
   46MOL    C7142461   0.506   2.571   5.683 -0.0024  0.0701 -0.8365
   46MOL    H7242462   7.703   3.282   5.984 -0.7999  0.3430 -0.1695
   46MOL    H7342463   7.654   3.133   5.920  0.1674  0.8988  1.5892
   46MOL    H7442464   7.827   3.331   5.767  3.0139 -0.3599  0.9454
   46MOL    H7542465   7.759   3.191   5.695 -0.7061  1.7003 -0.6995
   46MOL    H7642466   7.867   3.065   5.915 -0.3030 -0.0682 -0.8831
   46MOL    H7742467   7.957   3.084   5.764  0.3205 -0.7208  0.3408
   46MOL    H7842468   7.964   3.299   5.974  1.4566  2.0932 -1.2835
   46MOL    H7942469   0.093   3.298   5.835 -0.3354 -0.9817 -2.1419
   46MOL    H8042470   0.208   3.228   6.039  2.9771 -1.0990 -3.6079
   46MOL    H8142471   0.079   3.115   6.081 -2.5770 -0.5961 -1.7049
   46MOL    H8242472   0.163   2.957   5.908  1.8574 -0.4124 -1.8398
   46MOL    H8342473   0.258   3.084   5.842  0.4808 -3.6828 -2.3398
   46MOL    H8442474   0.370   3.079   6.084 -0.1618  0.1220 -2.0875
   46MOL    H8542475   0.260   2.944   6.112 -0.7806  0.8654  0.1610
   46MOL    H8642476   0.379   2.816   5.934  0.0967 -0.9547 -0.8901
   46MOL    H8742477   0.499   2.947   5.926 -0.7850  0.5021  0.6246
   46MOL    H8842478   0.433   2.768   6.151  0.7827 -0.9030  0.9474
   46MOL    H8942479   0.540   2.903   6.171 -0.3660 -0.1760 -0.0016
   46MOL    H9042480   0.667   2.674   6.129  0.5048  0.9667  0.2981
   46MOL    H9142481   0.706   2.813   6.027  0.3218  0.7840  1.0706
   46MOL    H9242482   0.762   2.372   5.763  1.7469  2.4086 -2.0079
   46MOL    H9342483   0.676   2.244   5.580 -0.3769  0.1239  0.3054
   46MOL    H9442484   0.369   2.546   5.520 -0.2457 -0.1601  1.0948
   46MOL    H9542485   0.452   2.658   5.716 -0.4923 -0.7186  0.4737
   46MOL    O9642486   0.310   2.294   5.229  0.0964 -0.2418 -0.1430
   46MOL    C9742487   0.301   2.405   5.138 -0.3540  0.2876 -0.0751
   46MOL    C9842488   0.275   2.345   5.000  0.0045 -0.1349 -0.1633
   46MOL    C9942489   0.316   2.437   4.879 -0.6774 -0.2724 -0.3684
   46MOL   C10042490   0.209   2.549   4.847 -0.2097  0.2465  0.6516
   46MOL   C10142491   0.248   2.638   4.730  0.3721 -0.9430  0.5614
   46MOL   C10242492   0.244   2.575   4.593 -0.0217  0.0836 -0.3637
   46MOL   C10342493   0.275   2.677   4.482  1.0813  0.1350 -0.1451
   46MOL   C10442494   0.274   2.618   4.345 -0.5732  0.2720 -0.4773
   46MOL   C10542495   0.322   2.722   4.247  0.6744 -0.4473 -0.7086
   46MOL   C10642496   0.353   2.670   4.107 -0.2905 -0.5301  0.3464
   46MOL   O10742497   0.247   2.595   4.052 -0.2935  0.1446 -0.3068
   46MOL   C10842498   0.150   2.661   3.989 -0.7338 -0.5822  0.2982
   46MOL   O10942499   0.126   2.780   3.991  0.8203  0.0991  0.4716
   46MOL   C11042500   0.057   2.572   3.917 -0.0618 -0.4708 -0.8309
   46MOL   C11142501   7.933   2.631   3.842  0.3183  0.7158  0.5902
   46MOL   C11242502   7.841   2.553   3.767  0.0820  0.7198 -0.1251
   46MOL   C11342503   7.860   2.412   3.752 -0.0906 -0.3241  0.1611
   46MOL   C11442504   7.784   2.327   3.665  0.6103 -0.2057  0.0610
   46MOL   O11542505   7.792   2.204   3.669 -0.6188  0.1949  0.5098
   46MOL   O11642506   7.717   2.393   3.571  0.0286  0.6929  0.4311
   46MOL   C11742507   7.959   2.356   3.835  0.0551 -0.1744 -0.2286
   46MOL   C11842508   0.072   2.430   3.917 -0.1566  0.0332 -0.5790
   46MOL   H11942509   0.217   2.463   5.177 -0.8829 -1.1163  0.8965
   46MOL   H12042510   0.391   2.466   5.133  0.8368 -1.4340  0.0355
   46MOL   H12142511   0.180   2.294   4.984  0.8272 -1.2441 -1.7175
   46MOL   H12242512   0.352   2.268   4.997  0.5780  0.3840  1.1511
   46MOL   H12342513   0.416   2.480   4.882 -1.1498  0.9598 -1.6337
   46MOL   H12442514   0.318   2.373   4.791 -1.2681  0.1936 -0.7332
   46MOL   H12542515   0.182   2.601   4.938 -0.0544 -0.1180  0.9042
   46MOL   H12642516   0.120   2.490   4.825 -0.9320  2.4530 -2.8575
   46MOL   H12742517   0.176   2.720   4.730  1.0259 -0.3625 -0.3172
   46MOL   H12842518   0.349   2.674   4.750 -0.0437  0.3930  0.3033
   46MOL   H12942519   0.321   2.498   4.592 -0.4862 -0.4086  0.8223
   46MOL   H13042520   0.151   2.522   4.573  0.4150 -1.0092  0.4598
   46MOL   H13142521   0.222   2.772   4.489 -1.0349 -1.2043  3.3024
   46MOL   H13242522   0.377   2.712   4.502  0.4930  0.7819  1.8381
   46MOL   H13342523   0.344   2.534   4.339 -1.8373 -0.7877 -0.4076
   46MOL   H13442524   0.172   2.587   4.323 -1.5063  1.9009  1.4014
   46MOL   H13542525   0.407   2.780   4.282  0.2062 -0.5292  0.5641
   46MOL   H13642526   0.255   2.808   4.237  0.2909 -0.7922 -1.1613
   46MOL   H13742527   0.444   2.610   4.105 -1.3336 -2.1262  0.2358
   46MOL   H13842528   0.376   2.750   4.037  0.8217 -0.7062  0.4867
   46MOL   H13942529   7.917   2.737   3.849 -0.9107  0.5811  0.0532
   46MOL   H14042530   7.759   2.603   3.718 -1.2348 -1.1148  0.1215
   46MOL   H14142531   0.011   2.253   3.843  0.6275 -0.1892 -2.3225
   46MOL   H14242532   0.150   2.377   3.969 -2.2992  0.8594  3.7622
   46MOL   O14342533   7.667   2.310   3.452 -0.5782 -0.3533  0.2914
   46MOL   C14442534   7.735   2.355   3.340  0.0363 -0.2052  0.1009
   46MOL   C14542535   7.721   2.265   3.224 -0.0616 -0.4730  0.3116
   46MOL   C14642536   7.787   2.336   3.103 -0.6232  0.3304  0.5318
   46MOL   C14742537   7.792   2.258   2.973 -0.0069 -0.0919  0.5965
   46MOL   C14842538   7.867   2.318   2.849  0.1329 -0.8457 -0.0520
   46MOL   C14942539   7.858   2.224   2.729  0.0043  0.0028  0.5372
   46MOL   C15042540   7.950   2.104   2.733  0.7322  0.3118  0.1426
   46MOL   C15142541   7.933   2.008   2.609  0.0126 -0.1676 -0.2908
   46MOL   C15242542   0.010   1.871   2.636  0.2302 -0.5260  0.6484
   46MOL   C15342543   7.910   1.792   2.740  0.3549  0.2800  0.9493
   46MOL   O15442544   7.959   1.811   2.870 -0.9031  0.0574  0.1014
   46MOL   C15542545   7.893   1.763   2.970 -0.4337  0.2684  0.3649
   46MOL   O15642546   7.811   1.672   2.965  0.0851 -0.2180  0.0333
   46MOL   C15742547   7.928   1.842   3.094 -0.0252  0.0011  0.3996
   46MOL   C15842548   0.038   1.957   3.098 -0.0100 -0.1765 -0.3153
   46MOL   C15942549   0.055   2.023   3.221 -0.4205  0.4241 -0.1252
   46MOL   C16042550   7.976   1.978   3.341 -0.7115 -0.4176  0.3545
   46MOL   C16142551   0.033   2.030   3.473 -0.5278 -0.7289  0.1016
   46MOL   O16242552   0.028   1.964   3.575 -0.0603  0.1201 -0.7435
   46MOL   O16342553   0.078   2.161   3.463 -0.9729  0.3324 -0.6511
   46MOL   C16442554   7.895   1.862   3.338 -0.1291 -0.6412  0.1452
   46MOL   C16542555   7.875   1.796   3.221  0.3426  0.6150  0.0396
   46MOL   H16642556   7.694   2.453   3.316 -0.0369 -0.1420  0.4780
   46MOL   H16742557   7.840   2.354   3.370 -0.2183 -0.1068  1.0386
   46MOL   H16842558   7.618   2.253   3.188 -0.3784 -3.0713  1.9428
   46MOL   H16942559   7.760   2.164   3.235 -2.4604 -1.4454  0.2993
   46MOL   H17042560   7.731   2.425   3.073  0.4697  0.5661 -0.8572
   46MOL   H17142561   7.889   2.372   3.120  0.1577 -1.1562 -0.7913
   46MOL   H17242562   7.696   2.220   2.939  1.4506 -1.8604 -1.6767
   46MOL   H17342563   7.859   2.175   2.994  1.6292  1.7017  2.8402
   46MOL   H17442564   7.814   2.411   2.825 -0.4880 -1.4856 -1.2498
   46MOL   H17542565   7.967   2.344   2.884 -0.5908  1.5107  0.3989
   46MOL   H17642566   7.756   2.191   2.708 -0.0596  0.3926  0.2311
   46MOL   H17742567   7.878   2.283   2.640 -0.5200 -0.4064  0.1429
   46MOL   H17842568   0.072   2.143   2.749  0.4759  0.7415  0.7017
   46MOL   H17942569   7.912   2.046   2.817 -2.2778  0.9034 -0.7416
   46MOL   H18042570   7.826   1.988   2.598 -0.1124  0.6769 -0.6608
   46MOL   H18142571   7.960   2.050   2.513 -1.7279  2.3361  0.2823
   46MOL   H18242572   0.110   1.879   2.681 -0.0123  0.6779  0.9777
   46MOL   H18342573   0.028   1.817   2.543 -0.8599 -0.8720  0.6309
   46MOL   H18442574   7.918   1.686   2.715  0.1994  0.2581  0.9946
   46MOL   H18542575   7.806   1.825   2.741  0.9549  2.2895  0.6185
   46MOL   H18642576   0.080   1.987   3.004  0.4426  1.4214  0.3906
   46MOL   H18742577   0.124   2.105   3.231  1.4709 -1.0511 -0.8648
   46MOL   H18842578   7.856   1.830   3.434 -0.5355  2.6000  1.1260
   46MOL   H18942579   7.814   1.707   3.224  1.0179  0.1193 -0.7441
   46MOL   O19042580   0.142   2.212   3.589  0.1646  0.1307  0.4582
   46MOL   C19142581   0.280   2.193   3.569  0.9159  0.1573 -0.1650
   46MOL   C19242582   0.359   2.290   3.660 -0.4974 -0.3585  0.0542
   46MOL   C19342583   0.331   2.442   3.634  0.6178 -0.1153 -0.7002
   46MOL   C19442584   0.417   2.531   3.720 -0.5503 -0.0516 -0.0759
   46MOL   C19542585   0.426   2.681   3.681  0.3492  0.0617 -0.5070
   46MOL   C19642586   0.516   2.751   3.777  0.8059 -0.2599 -0.1586
   46MOL   C19742587   0.492   2.897   3.753 -0.4037  0.2473 -0.5753
   46MOL   C19842588   0.369   2.961   3.810  0.5145 -0.4830 -0.9840
   46MOL   C19942589   0.344   3.105   3.754  0.0137 -0.2404  0.0870
   46MOL   C20042590   0.235   3.179   3.825 -0.0595 -0.4444 -0.9410
   46MOL   O20142591   0.216   3.166   3.964 -0.1628  0.5402  0.0389
   46MOL   C20242592   0.300   3.233   4.049  0.3240 -0.5020 -0.6319
   46MOL   O20342593   0.392   3.307   4.018  0.0461 -0.0310 -0.2738
   46MOL   C20442594   0.273   3.198   4.194 -0.3797  0.0807 -0.5257
   46MOL   C20542595   0.340   3.266   4.301 -0.5738 -0.2410  0.5147
   46MOL   C20642596   0.327   3.224   4.433 -0.0347 -0.0414  0.2521
   46MOL   C20742597   0.236   3.122   4.467  0.5183 -0.3428 -0.5060
   46MOL   C20842598   0.223   3.087   4.614 -0.1945 -0.6665  0.5947
   46MOL   O20942599   0.146   3.002   4.657  0.1718 -0.4293 -0.5464
   46MOL   O21042600   0.299   3.161   4.699  0.7206 -0.4682  0.4402
   46MOL   C21142601   0.167   3.049   4.367 -0.0667  0.1614  0.2111
   46MOL   C21242602   0.188   3.086   4.231 -0.1591 -0.3063 -0.5473
   46MOL   H21342603   0.317   2.094   3.597  1.2411  0.0854 -0.8414
   46MOL   H21442604   0.318   2.200   3.467  1.5053  1.2218  0.1199
   46MOL   H21542605   0.466   2.271   3.650 -0.4069  0.9229 -1.6434
   46MOL   H21642606   0.338   2.281   3.767  3.0290 -3.4361  0.5853
   46MOL   H21742607   0.358   2.458   3.529  1.5024 -1.7037 -0.7276
   46MOL   H21842608   0.224   2.458   3.648  0.9960  0.0526  2.1315
   46MOL   H21942609   0.519   2.493   3.721 -0.9989 -1.2474  1.2591
   46MOL   H22042610   0.384   2.513   3.822  0.0620 -0.0660  0.1243
   46MOL   H22142611   0.456   2.690   3.577  1.2440 -2.8251 -0.5349
   46MOL   H22242612   0.323   2.718   3.687  0.4266  0.0130  1.5252
   46MOL   H22342613   0.506   2.711   3.878 -1.5158 -1.0602 -0.6805
   46MOL   H22442614   0.616   2.721   3.745  1.0426 -0.4826  0.7615
   46MOL   H22542615   0.574   2.955   3.795  0.3615 -1.4378  0.2955
   46MOL   H22642616   0.512   2.909   3.647 -3.7354 -0.1460 -1.2870
   46MOL   H22742617   0.284   2.894   3.793  0.7280 -0.8803 -0.5143
   46MOL   H22842618   0.386   2.968   3.917  3.3407 -2.0256 -1.2918
   46MOL   H22942619   0.309   3.100   3.651 -0.0139 -2.6675  0.1903
   46MOL   H23042620   0.434   3.165   3.760 -1.4757  1.9890  1.0610
   46MOL   H23142621   0.145   3.132   3.786  1.2215 -2.9989 -0.9731
   46MOL   H23242622   0.224   3.285   3.801  0.3126 -0.0393  0.6154
   46MOL   H23342623   0.409   3.341   4.265 -0.5236 -0.1507  0.8017
   46MOL   H23442624   0.381   3.276   4.511  0.8438 -0.1020 -0.3162
   46MOL   H23542625   0.100   2.965   4.382  0.9756 -0.7370 -0.0849
   46MOL   H23642626   0.137   3.032   4.152 -0.6490  1.1341 -1.2343
   46MOL   O23742627   0.291   3.112   4.839 -0.1023 -0.0749  0.6656
   46MOL   C23842628   0.421   3.075   4.872 -0.0181 -0.2079 -0.0071
   46MOL   C23942629   0.434   3.019   5.014  0.7325 -0.0587 -0.3441
   46MOL   C24042630   0.325   2.905   5.048 -0.5230 -0.1516 -0.9230
   46MOL   C24142631   0.326   2.878   5.193  0.2358  0.2571  0.1700
   46MOL   C24242632   0.448   2.802   5.239  0.5113  0.7220 -0.3636
   46MOL   C24342633   0.502   2.843   5.373 -0.1653 -0.4267 -0.2096
   46MOL   C24442634   0.590   2.978   5.371 -0.0713 -0.3290 -0.0321
   46MOL   C24542635   0.631   3.032   5.513  0.5439  0.0508  0.4307
   46MOL   C24642636   0.710   3.165   5.511  0.3844 -0.0262  0.4741
   46MOL   C24742637   0.690   3.259   5.634  0.3840 -0.2022 -0.0375
   46MOL   O24842638   0.556   3.310   5.637  0.1974  0.6186  0.4494
   46MOL   C24942639   0.517   3.380   5.739  0.5889 -0.0431 -0.2973
   46MOL   O25042640   0.591   3.415   5.829  0.6139 -0.4335  0.0934
   46MOL   C25142641   0.380   3.422   5.716 -0.7471  0.2925 -0.3370
   46MOL   C25242642   0.297   3.355   5.624 -0.5157  0.3433 -1.0411
   46MOL   C25342643   0.168   3.408   5.599  0.8489 -0.2697  0.0113
   46MOL   C25442644   0.123   3.526   5.666  0.2172  0.7376 -0.3385
   46MOL   C25542645   7.965   3.585   5.636 -0.4797  1.4280  0.9265
   46MOL   O25642646   7.903   3.662   5.709  0.2228  0.2708  0.2342
   46MOL   O25742647   7.909   3.535   5.519  0.3141 -0.2216 -0.0086
   46MOL   C25842648   0.206   3.591   5.757 -0.6102  0.7648 -0.0846
   46MOL   C25942649   0.339   3.545   5.771  0.5450 -0.1062  0.3862
   46MOL   H26042650   0.455   2.998   4.802 -2.1480 -1.2409  0.0625
   46MOL   H26142651   0.487   3.157   4.846 -0.3634  0.8011  2.2684
   46MOL   H26242652   0.420   3.095   5.091 -0.7626  1.2335 -1.8434
   46MOL   H26342653   0.537   2.990   5.033  1.2396 -0.4961 -3.5342
   46MOL   H26442654   0.227   2.941   5.016 -0.0365  1.3737 -0.7013
   46MOL   H26542655   0.348   2.810   4.999  0.4402 -0.1556 -0.4717
   46MOL   H26642656   0.237   2.819   5.219 -0.8348  1.4962 -0.6092
   46MOL   H26742657   0.313   2.965   5.257 -0.5093 -0.1018  0.5269
   46MOL   H26842658   0.423   2.697   5.256 -0.1205  1.0493  0.7834
   46MOL   H26942659   0.525   2.800   5.162 -1.1819 -0.8368 -2.0938
   46MOL   H27042660   0.420   2.849   5.444 -0.3750 -4.8500  0.1054
   46MOL   H27142661   0.560   2.762   5.418 -0.6069 -0.0513  1.0633
   46MOL   H27242662   0.681   2.960   5.313 -0.2196  1.6326 -0.9006
   46MOL   H27342663   0.536   3.057   5.319  1.5123  0.6290 -0.2394
   46MOL   H27442664   0.537   3.033   5.568 -0.4000 -0.1847 -1.1470
   46MOL   H27542665   0.689   2.954   5.562 -0.7076 -0.5346  0.9855
   46MOL   H27642666   0.694   3.221   5.419  1.5628 -0.5259 -0.0335
   46MOL   H27742667   0.817   3.147   5.500  0.2038  1.1448 -4.3832
   46MOL   H27842668   0.760   3.341   5.624 -0.2358  0.4018  0.5220
   46MOL   H27942669   0.696   3.205   5.729 -1.3711  2.8751  1.8955
   46MOL   H28042670   0.342   3.269   5.577 -0.8423 -0.4529  0.1011
   46MOL   H28142671   0.103   3.358   5.529  3.4430 -0.9687 -2.0013
   46MOL   H28242672   0.175   3.680   5.811 -1.4528  0.8038 -0.6160
   46MOL   H28342673   0.407   3.595   5.839  1.4646 -0.5129 -0.2229
   46MOL   O28442674   7.768   3.592   5.510 -0.3658  0.1639  0.1335
   46MOL   C28542675   7.674   3.498   5.561  0.0868  0.4479 -0.4552
   46MOL   C28642676   7.532   3.554   5.537 -0.6883 -0.6543  0.2346
   46MOL   C28742677   7.419   3.445   5.530 -0.1183  0.2317  0.1917
   46MOL   C28842678   7.417   3.368   5.395  0.0119  0.3827 -0.1805
   46MOL   C28942679   7.329   3.237   5.405  0.3528 -0.0379 -0.2416
   46MOL   C29042680   7.310   3.151   5.280 -0.7546  0.1727  0.3980
   46MOL   C29142681   7.227   3.213   5.168 -0.1459 -0.0465  0.3688
   46MOL   C29242682   7.188   3.110   5.059 -0.7519 -0.0507 -0.0109
   46MOL   C29342683   7.075   3.015   5.096  0.0371 -0.9367  0.3103
   46MOL   C29442684   7.016   2.940   4.971 -0.3246 -0.1337 -0.3402
   46MOL   O29542685   7.115   2.867   4.898 -0.5860  0.3588 -0.0192
   46MOL   C29642686   7.079   2.757   4.827 -0.2459 -0.2938  0.1007
   46MOL   O29742687   6.963   2.724   4.803  0.3865 -0.0750  0.6036
   46MOL   C29842688   7.193   2.679   4.778 -0.0878 -0.3309  0.4443
   46MOL   C29942689   7.174   2.554   4.712  0.3176 -0.0869 -0.4362
   46MOL   C30042690   7.282   2.466   4.683 -0.2766 -0.3065 -0.0858
   46MOL   C30142691   7.416   2.510   4.692  0.7307  0.1235  0.5487
   46MOL   C30242692   7.523   2.423   4.636 -0.4279 -0.2221 -0.2087
   46MOL   O30342693   7.508   2.309   4.585  0.7320 -0.3110 -0.2291
   46MOL   O30442694   7.649   2.473   4.663 -0.3965 -0.4488  0.5408
   46MOL   C30542695   7.439   2.638   4.744  0.2634  1.0020 -0.1135
   46MOL   C30642696   7.331   2.716   4.784 -0.0441  0.4803  0.0129
   46MOL   H30742697   7.693   3.397   5.526 -4.5356 -0.3731 -0.9549
   46MOL   H30842698   7.682   3.491   5.670  0.4516 -0.6032 -0.5469
   46MOL   H30942699   7.537   3.613   5.445 -0.6609  0.9952  1.2813
   46MOL   H31042700   7.505   3.628   5.612 -0.8534  2.3381 -2.6605
   46MOL   H31142701   7.434   3.385   5.620 -3.1694 -0.0070  0.5878
   46MOL   H31242702   7.329   3.500   5.554 -0.3530  0.3157 -0.8447
   46MOL   H31342703   7.515   3.357   5.350  0.3122 -0.5073  0.6849
   46MOL   H31442704   7.360   3.424   5.321  0.1728  0.1007 -0.5204
   46MOL   H31542705   7.384   3.176   5.478 -2.7364  0.4197  2.5651
   46MOL   H31642706   7.228   3.240   5.446  1.2730  0.0778  2.1357
   46MOL   H31742707   7.408   3.110   5.254  0.0150  2.8908 -1.1410
   46MOL   H31842708   7.268   3.056   5.315 -0.3981 -0.3812 -0.6432
   46MOL   H31942709   7.137   3.257   5.211  1.0944  2.3006  0.6165
   46MOL   H32042710   7.285   3.293   5.121 -0.2746 -0.1360  0.0535
   46MOL   H32142711   7.149   3.169   4.976 -1.1678  0.2855  0.4187
   46MOL   H32242712   7.270   3.056   5.011  1.1440 -0.3300  3.4150
   46MOL   H32342713   6.990   3.058   5.147  0.7545  0.2487  0.5255
   46MOL   H32442714   7.113   2.940   5.165  0.6282 -0.9083  0.0208
   46MOL   H32542715   6.978   3.016   4.903 -2.7928  1.4534  2.6792
   46MOL   H32642716   6.933   2.876   5.003 -1.3296  1.0799 -0.4880
   46MOL   H32742717   7.071   2.522   4.698 -0.1151  0.8080  0.6384
   46MOL   H32842718   7.271   2.366   4.645  0.7979 -0.5900  0.3332
   46MOL   H32942719   7.530   2.695   4.742 -0.5198  2.6027  4.1808
   46MOL   H33042720   7.355   2.812   4.828 -0.9926  0.3110  0.9439
   46MOL   O33142721   7.761   2.376   4.640 -0.2501  0.2406  0.0284
   46MOL   C33242722   7.822   2.352   4.756  0.6467  0.1489 -0.3255
   46MOL   C33342723   7.923   2.241   4.736 -0.4373  0.4242 -0.7730
   46MOL   C33442724   7.856   2.103   4.724 -0.6310 -0.0315  0.1914
   46MOL   C33542725   7.975   2.011   4.698  0.0364  0.7008 -0.2635
   46MOL   C33642726   7.941   1.863   4.667 -0.0688  0.1253 -0.1149
   46MOL   C33742727   0.074   1.784   4.592 -0.4617  0.8163 -0.2756
   46MOL   C33842728   0.050   1.626   4.578 -0.1356  0.1808 -0.7792
   46MOL   C33942729   0.038   1.557   4.712 -0.2513 -0.1014 -0.1044
   46MOL   C34042730   7.869   1.535   4.745 -0.2096  0.9051  0.2326
   46MOL   C34142731   7.856   1.513   4.893 -0.1623  0.2946 -0.0074
   46MOL   O34242732   7.872   1.639   4.961  0.6777  0.3372 -0.0156
   46MOL   C34342733   7.877   1.638   5.097 -0.2586 -0.1819 -0.1975
   46MOL   O34442734   7.870   1.531   5.161 -0.2305 -0.4709 -0.3855
   46MOL   C34542735   7.900   1.767   5.160 -0.2116 -0.0541  0.3780
   46MOL   C34642736   7.961   1.871   5.088  0.2615 -0.1403 -0.0977
   46MOL   C34742737   7.964   2.000   5.144  0.7282  0.1400 -0.6264
   46MOL   C34842738   7.911   2.027   5.275 -0.7621  0.4026  0.7799
   46MOL   C34942739   7.909   2.162   5.329  0.2323  0.2774  0.6729
   46MOL   O35042740   7.831   2.189   5.418  0.2404 -0.2561  0.0584
   46MOL   O35142741   0.013   2.246   5.250 -0.3214  0.0026 -0.6809
   46MOL   C35242742   7.857   1.918   5.352 -1.0443 -0.1053  0.1173
   46MOL   C35342743   7.853   1.789   5.294  0.1848 -0.2892  0.1146
   46MOL   H35442744   7.871   2.449   4.766 -0.6961  0.9298 -1.1107
   46MOL   H35542745   7.754   2.340   4.840  1.0699 -2.5343 -0.3201
   46MOL   H35642746   0.015   2.241   4.819 -0.8184  0.4160 -0.4491
   46MOL   H35742747   0.001   2.269   4.646 -1.3360 -1.2199 -1.8665
   46MOL   H35842748   7.800   2.069   4.811  1.5184 -0.3587  1.4893
   46MOL   H35942749   7.777   2.095   4.650  1.2003 -3.7013 -1.5472
   46MOL   H36042750   0.066   2.023   4.782  0.3641  0.6847 -0.5318
   46MOL   H36142751   0.051   2.062   4.619  0.3568  0.2638 -0.3292
   46MOL   H36242752   7.911   1.815   4.761  2.0798  0.3162  0.6893
   46MOL   H36342753   7.852   1.871   4.605  0.4356  0.2336 -0.8292
   46MOL   H36442754   0.106   1.839   4.503  1.2182  0.1429 -0.1038
   46MOL   H36542755   0.163   1.797   4.652 -0.1369 -3.1758  0.2861
   46MOL   H36642756   7.940   1.610   4.517  0.7887 -2.6167 -1.4761
   46MOL   H36742757   0.120   1.566   4.520 -2.0102 -3.1315  0.2353
   46MOL   H36842758   0.103   1.470   4.705  3.1640  2.4138 -0.8542
   46MOL   H36942759   0.094   1.619   4.782 -3.0285  2.6325 -0.2237
   46MOL   H37042760   7.824   1.458   4.682 -1.9201  3.1573 -1.3847
   46MOL   H37142761   7.807   1.621   4.724  1.9142  2.1561 -1.0442
   46MOL   H37242762   7.917   1.433   4.936  0.9912 -0.4257 -2.8240
   46MOL   H37342763   7.751   1.485   4.900 -0.0315 -0.1949 -0.0048
   46MOL   H37442764   0.004   1.868   4.982  0.8527 -1.6566  0.0615
   46MOL   H37542765   0.018   2.074   5.072 -1.4116  0.3098 -1.4312
   46MOL   H37642766   7.819   1.933   5.452 -0.1085  0.2357  0.4276
   46MOL   H37742767   7.823   1.702   5.349  4.2290 -0.9817  1.4042
   46MOL   O37842768   0.005   2.393   5.290  0.6602 -0.6134  0.2570
   46MOL   C37942769   7.897   2.458   5.199 -0.6251  0.0328 -0.1824
   46MOL   C38042770   7.899   2.608   5.219  0.2490  0.4944 -0.6264
   46MOL   C38142771   7.838   2.659   5.090 -0.0101  0.0958  0.2575
   46MOL   C38242772   7.813   2.808   5.087  0.3135  0.0782 -0.3565
   46MOL   C38342773   7.794   2.849   4.938 -0.1984 -0.5112 -0.5407
   46MOL   C38442774   7.783   2.999   4.928  0.0582 -0.7319  0.2230
   46MOL   C38542775   7.647   3.065   4.940  1.0299 -0.1088 -0.4032
   46MOL   C38642776   7.649   3.220   4.932 -0.2568  0.7440  0.1760
   46MOL   C38742777   7.524   3.288   4.977  0.4931  0.1308  0.2499
   46MOL   C38842778   7.560   3.434   4.997  0.2738 -0.5616  0.0570
   46MOL   O38942779   7.448   3.505   5.054  0.0272  0.4811  0.0840
   46MOL   C39042780   7.474   3.604   5.142 -0.6344  0.0536 -0.2943
   46MOL   O39142781   7.586   3.629   5.184 -0.4069 -0.2916 -0.1437
   46MOL   C39242782   7.350   3.678   5.184  0.3630  0.0101 -0.3045
   46MOL   C39342783   7.220   3.641   5.134 -0.3949  0.0825  0.1456
   46MOL   C39442784   7.099   3.709   5.164 -0.1532 -0.6056  0.4229
   46MOL   C39542785   7.113   3.825   5.241 -0.1306 -0.7848 -0.6821
   46MOL   C39642786   6.993   3.904   5.272 -0.0239 -0.1591  0.5199
   46MOL   O39742787   6.999   4.020   5.293 -0.4968  0.1710 -0.2713
   46MOL   O39842788   6.876   3.832   5.267 -0.6331  0.0060 -0.1114
   46MOL   C39942789   7.240   3.860   5.299 -0.4977 -0.1318 -0.3779
   46MOL   C40042790   7.354   3.786   5.271  0.2010 -0.3303 -0.3683
   46MOL   H40142791   7.923   2.433   5.096  0.2161  0.0527  0.0170
   46MOL   H40242792   7.797   2.421   5.222 -1.8665  1.1414 -3.4661
   46MOL   H40342793   0.027   2.634   5.229  0.3431 -0.9335  2.8465
   46MOL   H40442794   7.838   2.647   5.301 -2.6128  1.8053 -3.2860
   46MOL   H40542795   7.911   2.631   5.013 -0.8561 -0.7003 -0.2718
   46MOL   H40642796   7.745   2.604   5.073  0.3289 -0.3368 -0.2252
   46MOL   H40742797   7.885   2.869   5.142  0.8893 -1.9144  1.1744
   46MOL   H40842798   7.718   2.824   5.137 -0.0112 -0.5103 -0.7750
   46MOL   H40942799   7.885   2.816   4.889 -0.0234 -2.4531  1.0176
   46MOL   H41042800   7.703   2.806   4.897 -0.6737 -2.3181  2.2118
   46MOL   H41142801   7.838   3.047   5.009 -0.7215  0.1300  0.2462
   46MOL   H41242802   7.824   3.027   4.831 -1.2760 -0.9251 -0.4052
   46MOL   H41342803   7.576   3.033   4.864  1.7913  1.0520 -1.6238
   46MOL   H41442804   7.610   3.024   5.034 -0.0734 -0.8525 -1.1466
   46MOL   H41542805   7.723   3.258   5.001 -2.1141  0.8803  2.1555
   46MOL   H41642806   7.673   3.250   4.830 -0.6485  1.3550  0.2620
   46MOL   H41742807   7.506   3.250   5.078 -0.9604  1.3331  0.4643
   46MOL   H41842808   7.438   3.264   4.916  1.4025  0.9103 -1.3711
   46MOL   H41942809   7.587   3.467   4.897 -0.9719  4.3181  1.2245
   46MOL   H42042810   7.651   3.446   5.056  1.9836  1.2230 -2.8110
   46MOL   H42142811   7.210   3.554   5.071 -1.0266  0.2861 -0.0376
   46MOL   H42242812   7.009   3.686   5.109  0.7532 -0.1127 -1.3295
   46MOL   H42342813   7.247   3.939   5.373  0.9157 -1.0950  0.5420
   46MOL   H42442814   7.446   3.825   5.312  0.4753  1.3598 -2.4728
   46MOL   O42542815   6.753   3.910   5.297  0.1960  0.2447  0.7775
   46MOL   C42642816   6.716   3.861   5.423  0.4255  0.2677  0.3029
   46MOL   C42742817   6.680   3.706   5.437 -0.1589 -0.2288  0.1547
   46MOL   C42842818   6.535   3.669   5.375 -0.2526 -0.1325  0.4988
   46MOL   C42942819   6.506   3.521   5.359  0.0880  0.3516 -0.1140
   46MOL   C43042820   6.386   3.489   5.263  0.2699  0.5827  0.5564
   46MOL   C43142821   6.346   3.346   5.248 -0.0477 -0.4345 -0.6164
   46MOL   C43242822   6.222   3.320   5.155 -0.1948  0.2412  0.0879
   46MOL   C43342823   6.227   3.382   5.009 -0.3115  0.2456 -0.4648
   46MOL   C43442824   6.343   3.333   4.931 -0.2945 -0.0201 -0.1867
   46MOL   C43542825   6.339   3.382   4.783 -0.0419  0.1239  0.2903
   46MOL   O43642826   6.462   3.348   4.713  0.3917  0.6499 -0.6109
   46MOL   C43742827   6.500   3.423   4.608  0.9333 -0.2832  0.0697
   46MOL   O43842828   6.457   3.538   4.587  0.6725 -0.7586 -0.0200
   46MOL   C43942829   6.587   3.341   4.514 -0.2290 -0.0913 -0.5714
   46MOL   C44042830   6.658   3.223   4.552  0.0828 -0.0357 -0.0075
   46MOL   C44142831   6.752   3.166   4.468  0.3483  0.3059  0.1021
   46MOL   C44242832   6.776   3.219   4.344 -0.2381  0.2376  0.6188
   46MOL   C44342833   6.873   3.150   4.242  0.7870 -0.4335 -0.5364
   46MOL   O44442834   6.877   3.183   4.127  0.0110 -0.5501  0.0448
   46MOL   O44542835   6.953   3.059   4.297 -0.2550 -0.2605 -0.0192
   46MOL   C44642836   6.702   3.331   4.295 -0.3461 -0.2199 -0.2447
   46MOL   C44742837   6.608   3.387   4.383 -0.1927  0.4097  0.3475
   46MOL   H44842838   6.801   3.866   5.491  1.3034 -0.4186 -0.7310
   46MOL   H44942839   6.641   3.928   5.466  1.3571  0.3655  1.8320
   46MOL   H45042840   6.679   3.678   5.542 -0.1800 -0.5875  0.0601
   46MOL   H45142841   6.761   3.653   5.388 -1.6341 -2.0704 -0.3481
   46MOL   H45242842   6.456   3.719   5.430  2.2050  1.7945  2.3962
   46MOL   H45342843   6.533   3.707   5.272  1.1829 -1.4219 -0.0282
   46MOL   H45442844   6.483   3.470   5.453 -3.1371  0.7109 -0.6494
   46MOL   H45542845   6.602   3.488   5.321  1.0278  3.1211 -0.2522
   46MOL   H45642846   6.294   3.537   5.296 -1.3965 -1.3268 -1.1793
   46MOL   H45742847   6.417   3.522   5.164  1.6819 -0.9276  0.4804
   46MOL   H45842848   6.433   3.296   5.206 -0.1951  1.5041 -3.3187
   46MOL   H45942849   6.338   3.287   5.339 -0.4121 -1.5205 -1.3464
   46MOL   H46042850   6.203   3.213   5.151  1.5106 -0.0663 -0.2032
   46MOL   H46142851   6.140   3.364   5.212 -0.1085 -0.5821  0.8507
   46MOL   H46242852   6.134   3.352   4.961 -0.4610 -0.7685  0.4486
   46MOL   H46342853   6.222   3.491   5.009  0.0909  0.3088  2.5208
   46MOL   H46442854   6.368   3.229   4.950  1.4081  0.6869  1.6622
   46MOL   H46542855   6.433   3.374   4.978 -0.0840  0.0742 -0.6763
   46MOL   H46642856   6.313   3.488   4.774 -0.5385 -0.2148 -3.0032
   46MOL   H46742857   6.248   3.339   4.742  1.0343 -1.1847 -0.7860
   46MOL   H46842858   6.666   3.190   4.654  1.0560 -2.3828 -0.8078
   46MOL   H46942859   6.810   3.084   4.507 -1.0678  0.4239  2.5122
   46MOL   H47042860   6.713   3.367   4.193  1.3961 -0.8738 -0.2956
   46MOL   H47142861   6.565   3.478   4.343 -0.4847 -0.9141 -2.4484
   46MOL   O47242862   7.047   2.996   4.200  0.4738  0.1806  0.0412
   46MOL   C47342863   7.173   3.035   4.240  0.0506 -0.2312 -0.1238
   46MOL   C47442864   7.276   2.992   4.135  0.0154 -0.2421  0.5514
   46MOL   C47542865   7.420   3.042   4.176 -0.5274 -0.1523 -0.3507
   46MOL   C47642866   7.529   2.970   4.099  0.4045  0.9131 -0.2469
   46MOL   C47742867   7.669   3.019   4.135  0.2554 -0.7322 -0.3441
   46MOL   C47842868   7.692   3.165   4.111 -0.2863 -0.2878  0.5725
   46MOL   C47942869   7.845   3.185   4.137 -0.6770  0.1884  0.1661
   46MOL   C48042870   7.873   3.333   4.162  0.6839 -0.3163 -0.4904
   46MOL   C48142871   7.845   3.390   4.305  0.8782 -0.3379 -0.8287
   46MOL   C48242872   7.933   3.348   4.415 -0.0416 -0.1826 -0.2492
   46MOL   O48342873   7.888   3.421   4.525 -0.2329  0.2083 -0.1626
   46MOL   C48442874   7.976   3.455   4.623 -0.2583  0.4352 -0.1145
   46MOL   O48542875   0.111   3.403   4.631 -0.3972  0.1620 -0.6376
   46MOL   C48642876   7.928   3.555   4.726  0.3166 -0.9008 -0.1817
   46MOL   C48742877   0.045   3.618   4.808 -0.0548 -0.2392  0.3970
   46MOL   C48842878   0.002   3.708   4.905 -0.4014 -0.1821  0.0432
   46MOL   C48942879   7.841   3.747   4.919 -0.3633  0.4066  0.1614
   46MOL   C49042880   7.794   3.844   5.026 -0.7909 -0.7906  0.2256
   46MOL   O49142881   7.684   3.893   5.018  0.3607  0.0938  0.5794
   46MOL   O49242882   7.879   3.874   5.123  0.7845  0.3946 -0.3607
   46MOL   C49342883   7.744   3.684   4.833  1.1572 -0.5668 -0.4198
   46MOL   C49442884   7.789   3.587   4.741  0.9660 -0.5504 -0.3131
   46MOL   H49542885   7.189   3.142   4.258  3.1975 -0.4422 -1.4289
   46MOL   H49642886   7.188   2.983   4.335 -0.1618  0.7197  0.4462
   46MOL   H49742887   7.252   3.035   4.038  1.0096 -1.6525 -0.3275
   46MOL   H49842888   7.286   2.884   4.138 -2.7149 -0.6384 -2.4390
   46MOL   H49942889   7.422   3.151   4.178  0.6104 -0.1796  0.4037
   46MOL   H50042890   7.447   3.006   4.275 -0.4915 -0.1305 -0.3529
   46MOL   H50142891   7.518   2.981   3.991  1.9771  3.5818 -0.1763
   46MOL   H50242892   7.524   2.863   4.122 -2.1144  0.3309 -3.1846
   46MOL   H50342893   7.705   2.992   4.234 -1.2382 -1.3263  0.0517
   46MOL   H50442894   7.730   2.965   4.062  0.0358 -1.5337  0.0607
   46MOL   H50542895   7.652   3.189   4.013  0.3121  0.5045  0.5207
   46MOL   H50642896   7.637   3.217   4.189  0.5307  0.6804  0.5158
   46MOL   H50742897   7.884   3.141   4.228  1.9833  0.6191 -0.7351
   46MOL   H50842898   7.905   3.145   4.055 -0.2068  1.1712  0.0224
   46MOL   H50942899   7.976   3.344   4.128  1.6028 -0.8052  2.0835
   46MOL   H51042900   7.809   3.393   4.097  1.5636 -0.2155 -1.2847
   46MOL   H51142901   7.743   3.363   4.333  0.8515 -0.1379 -0.7289
   46MOL   H51242902   7.850   3.498   4.299  1.8364 -0.2207  1.3243
   46MOL   H51342903   0.057   3.362   4.378 -0.6480 -0.0660 -1.9109
   46MOL   H51442904   7.931   3.242   4.438  0.4488 -0.3132 -0.8060
   46MOL   H51542905   0.150   3.593   4.800  0.5730  1.8181  1.9322
   46MOL   H51642906   0.072   3.752   4.974  0.8814 -3.3051  0.8261
   46MOL   H51742907   7.637   3.700   4.839  0.8999 -1.2493 -2.9113
   46MOL   H51842908   7.722   3.549   4.665  0.0979  0.9281 -0.3121
   46MOL   O51942909   7.819   3.956   5.232  0.6318 -0.7328  0.1969
   46MOL   C52042910   7.761   3.862   5.325  0.0419 -0.4096 -0.4035
   46MOL   C52142911   7.779   3.902   5.468  0.0030  0.0075 -0.3022
   46MOL   C52242912   7.724   4.041   5.498 -0.2115  0.2306  0.3785
   46MOL   C52342913   7.730   4.066   5.652 -0.4298 -0.5538  0.3761
   46MOL   C52442914   7.866   4.044   5.723  0.0488  0.5565  0.1441
   46MOL   C52542915   7.858   4.053   5.872  0.6989  0.0043  0.1345
   46MOL   C52642916   0.019   4.036   5.934 -0.8474 -0.6260  0.4471
   46MOL   C52742917   0.009   4.037   6.094 -0.2610 -0.3094 -0.2545
   46MOL   C52842918   0.149   4.015   6.163  0.3873  0.5303  0.3131
   46MOL   C52942919   0.151   4.042   6.311 -0.0749  0.3322 -0.9558
   46MOL   O53042920   0.062   3.955   6.383  0.0229  0.0714  0.4338
   46MOL   C53142921   0.010   3.994   6.500  0.7547 -0.6012  0.2599
   46MOL   O53242922   0.024   4.106   6.551  0.2264 -0.4107 -0.4363
   46MOL   C53342923   7.905   3.893   6.560  0.1603  0.1024  0.1673
   46MOL   C53442924   7.877   3.769   6.499 -0.1704  0.1668  0.5392
   46MOL   C53542925   7.799   3.668   6.551 -0.3386 -0.3356  0.0113
   46MOL   C53642926   7.738   3.688   6.675 -0.4782  0.3637  0.0356
   46MOL   C53742927   7.663   3.583   6.742 -0.3734 -0.3443  0.0524
   46MOL   O53842928   7.654   3.473   6.688 -0.0053 -0.1997 -0.1586
   46MOL   O53942929   7.612   3.622   6.866 -0.1567  0.3956 -0.0555
   46MOL   C54042930   7.753   3.814   6.736 -0.5515  0.4623 -0.3883
   46MOL   C54142931   7.838   3.914   6.683 -0.1267 -0.6488 -0.0645
   46MOL   H54242932   7.656   3.837   5.309 -0.4055 -0.4152  2.4078
   46MOL   H54342933   7.824   3.773   5.318  2.9189  1.3523  1.8296
   46MOL   H54442934   7.883   3.895   5.500 -0.0361 -0.7634 -0.3135
   46MOL   H54542935   7.730   3.819   5.520 -1.7926  0.5191 -1.1139
   46MOL   H54642936   7.791   4.112   5.450 -1.6640  0.9504 -0.6153
   46MOL   H54742937   7.624   4.071   5.467 -0.5009  0.6334  1.6359
   46MOL   H54842938   7.660   4.001   5.704 -2.5480  2.9736  2.1264
   46MOL   H54942939   7.697   4.167   5.674 -0.9378 -1.2207  2.8050
   46MOL   H55042940   7.909   3.946   5.701  1.1687  0.2514  3.4610
   46MOL   H55142941   7.938   4.117   5.688 -1.3763  2.5034  1.1866
   46MOL   H55242942   7.827   4.156   5.887  1.2584  0.4168 -1.4551
   46MOL   H55342943   7.794   3.971   5.904  0.2521 -1.3655 -3.9745
   46MOL   H55442944   0.072   3.945   5.905  0.4290 -0.0413  0.9063
   46MOL   H55542945   0.080   4.116   5.892 -2.1162 -0.2939 -0.7994
   46MOL   H55642946   7.953   4.137   6.121 -1.1119 -0.1299 -1.9183
   46MOL   H55742947   7.917   3.967   6.138  0.3421  0.0516  1.2994
   46MOL   H55842948   0.212   4.083   6.105 -0.0726 -0.6775 -1.6940
   46MOL   H55942949   0.170   3.914   6.126 -2.1416 -0.3323  1.1227
   46MOL   H56042950   0.137   4.147   6.335  0.2156  0.0792  0.3193
   46MOL   H56142951   0.255   4.022   6.334 -0.0628  0.7468 -0.6538
   46MOL   H56242952   7.918   3.752   6.400  0.7576 -1.7442  1.2355
   46MOL   H56342953   7.779   3.579   6.493 -0.8695  0.4624 -1.0486
   46MOL   H56442954   7.706   3.841   6.829  4.1174  1.7571  1.7891
   46MOL   H56542955   7.841   4.010   6.733 -0.9129 -0.7389  0.1628
   46MOL   O56642956   7.548   3.509   6.938 -0.2843  0.2238 -0.2482
   46MOL   C56742957   7.620   3.467   7.050  0.0726  0.2932  0.8885
   46MOL   C56842958   7.556   3.359   7.133  0.2383  0.5387  0.5710
   46MOL   C56942959   7.534   3.226   7.056  0.6434 -0.5853 -0.0667
   46MOL   C57042960   7.401   3.223   6.985 -0.1437  0.4901  0.6444
   46MOL   C57142961   7.386   3.102   6.885 -0.4511  0.4536 -0.2073
   46MOL   C57242962   7.395   2.959   6.959 -0.0167 -0.2251  0.0998
   46MOL   C57342963   7.306   2.856   6.899  0.7576 -0.7455 -0.4801
   46MOL   C57442964   7.325   2.717   6.969  0.1924  0.7681 -0.2817
   46MOL   C57542965   7.210   2.619   6.948  0.1056 -0.0238 -0.2879
   46MOL   C57642966   7.252   2.475   6.982  0.4129  0.2290 -0.1871
   46MOL   O57742967   7.155   2.372   6.944 -0.2664 -0.6851  0.0911
   46MOL   C57842968   7.145   2.325   6.825 -0.3054 -0.3815  0.2898
   46MOL   O57942969   7.220   2.351   6.733 -0.5825 -0.0466 -0.3473
   46MOL   C58042970   7.037   2.227   6.820 -0.6266  0.4655 -0.1191
   46MOL   C58142971   6.990   2.157   6.932  0.1668 -0.2137  0.8520
   46MOL   C58242972   6.900   2.049   6.910 -0.6884 -0.0149  0.0701
   46MOL   C58342973   6.846   2.018   6.782  0.0995 -0.8582  0.2974
   46MOL   C58442974   6.735   1.919   6.765 -0.1235 -0.0665 -0.1933
   46MOL   O58542975   6.686   1.891   6.651 -0.1532  0.2665 -0.3315
   46MOL   O58642976   6.687   1.867   6.873  0.5935 -0.3145 -0.1896
   46MOL   C58742977   6.893   2.091   6.670  0.2609  0.2373  0.1956
   46MOL   C58842978   6.986   2.195   6.693  0.3751 -0.5851 -0.4378
   46MOL   H58942979   7.712   3.421   7.017  0.5173 -0.3962  2.9639
   46MOL   H59042980   7.646   3.557   7.106  0.1425  2.9026 -3.1793
   46MOL   H59142981   7.461   3.386   7.180  0.2712  0.0468  0.9258
   46MOL   H59242982   7.624   3.333   7.214 -0.2868 -2.3914  0.1185
   46MOL   H59342983   7.618   3.203   6.990  0.7433  1.2924 -0.6359
   46MOL   H59442984   7.527   3.155   7.138  1.2819  0.0856  0.5737
   46MOL   H59542985   7.397   3.317   6.931  4.0161  0.7027  0.4811
   46MOL   H59642986   7.326   3.217   7.063 -0.6878  3.4627  0.4089
   46MOL   H59742987   7.292   3.122   6.832 -0.9920  0.5223  0.7695
   46MOL   H59842988   7.462   3.096   6.807 -1.4600 -1.9751 -1.0420
   46MOL   H59942989   7.497   2.927   6.938 -0.8691 -2.4511 -0.8327
   46MOL   H60042990   7.380   2.958   7.067 -3.7439  2.6117 -0.2856
   46MOL   H60142991   7.202   2.886   6.889  1.3153  0.8113 -1.8572
   46MOL   H60242992   7.334   2.847   6.794 -0.7465 -0.2828 -0.9280
   46MOL   H60342993   7.421   2.672   6.943  0.3070  0.8103  0.0665
   46MOL   H60442994   7.349   2.726   7.075  1.6916  0.2460 -0.5576
   46MOL   H60542995   7.190   2.625   6.841 -0.2495 -2.2867 -0.3819
   46MOL   H60642996   7.125   2.641   7.012  0.2836  1.4470 -0.5487
   46MOL   H60742997   7.253   2.468   7.091  1.7374  0.9128 -0.1473
   46MOL   H60842998   7.354   2.465   6.945  0.5086 -2.4306  0.7094
   46MOL   H60942999   7.023   2.183   7.031 -2.1382 -1.2750  1.9377
   46MOL   H61043000   6.858   1.999   6.996 -1.2009  0.2228 -0.0398
   46MOL   H61143001   6.865   2.065   6.569 -1.2674  0.5583  0.5249
   46MOL   H61243002   7.022   2.254   6.609 -2.5583  0.2432 -1.1497
   46MOL   O61343003   6.572   1.770   6.861 -0.9202  0.4878 -0.4416
   46MOL   C61443004   6.625   1.645   6.888 -0.0472  0.4488 -0.0229
   46MOL   C61543005   6.519   1.534   6.925  0.4616 -0.4394 -0.2744
   46MOL   C61643006   6.594   1.398   6.967  0.4167 -0.4997  0.2243
   46MOL   C61743007   6.495   1.292   7.010  0.3823 -0.2022  0.0360
   46MOL   C61843008   6.548   1.177   7.089  0.7701  0.1368 -0.0295
   46MOL   C61943009   6.460   1.057   7.112  0.0259  0.7155  0.7053
   46MOL   C62043010   6.538   0.935   7.172 -0.6730  0.9452 -0.1328
   46MOL   C62143011   6.590   0.941   7.316  0.5062 -0.3177 -0.5669
   46MOL   C62243012   6.679   0.827   7.347 -0.1104 -0.0366 -0.3383
   46MOL   C62343013   6.706   0.812   7.496 -0.4281 -0.8277 -0.5064
   46MOL   O62443014   6.791   0.918   7.536  0.4689 -0.1523  0.0480
   46MOL   C62543015   6.770   0.967   7.665  0.2347  0.6048  0.2274
   46MOL   O62643016   6.675   0.931   7.736 -0.2798  0.2775  0.2766
   46MOL   C62743017   6.857   1.076   7.708  0.0848  0.5365  0.3077
   46MOL   C62843018   6.840   1.144   7.833 -0.3151 -0.3759 -0.2547
   46MOL   C62943019   6.924   1.250   7.869  0.1952  0.4984  0.1065
   46MOL   C63043020   7.022   1.294   7.780 -0.2430 -0.3445 -0.4895
   46MOL   C63143021   7.115   1.401   7.828 -0.0104 -0.5257 -0.0760
   46MOL   O63243022   7.110   1.450   7.942  0.6156  0.2125  0.5158
   46MOL   O63343023   7.209   1.428   7.727  0.3545  0.5606  0.0991
   46MOL   C63443024   7.032   1.229   7.649  1.1508  0.3596 -0.3525
   46MOL   C63543025   6.955   1.122   7.622  0.8310  0.1447  0.0562
   46MOL   H63643026   6.689   1.607   6.808 -0.8234  0.5373 -0.6955
   46MOL   H63743027   6.694   1.656   6.972 -1.4014 -0.1987  1.2122
   46MOL   H63843028   6.453   1.509   6.843  1.3612  0.1982 -1.2117
   46MOL   H63943029   6.462   1.582   7.005  2.8649 -0.3019  1.4354
   46MOL   H64043030   6.651   1.355   6.885  0.3816 -2.0365  0.9768
   46MOL   H64143031   6.675   1.410   7.040 -0.6868  1.7024  1.1345
   46MOL   H64243032   6.444   1.244   6.926  0.5205  2.1486 -1.4148
   46MOL   H64343033   6.416   1.339   7.068 -0.2720 -1.4930  0.2142
   46MOL   H64443034   6.638   1.145   7.036 -0.4601 -0.0036 -2.0710
   46MOL   H64543035   6.590   1.219   7.181 -1.2965 -1.7140  1.8325
   46MOL   H64643036   6.376   1.073   7.179  0.1182  0.1235  0.9630
   46MOL   H64743037   6.428   1.038   7.009  2.2849  2.3644 -0.3484
   46MOL   H64843038   6.466   0.853   7.165  0.3543 -0.1290  1.5123
   46MOL   H64943039   6.614   0.900   7.103  0.0324 -0.5439  1.3600
   46MOL   H65043040   6.641   1.038   7.316 -1.3062  0.7310  3.0687
   46MOL   H65143041   6.517   0.960   7.394  1.1499 -0.0907 -0.0214
   46MOL   H65243042   6.762   0.831   7.276 -1.8528  1.4738 -2.3856
   46MOL   H65343043   6.619   0.743   7.310 -0.2289  0.6251 -1.7032
   46MOL   H65443044   6.754   0.719   7.527 -0.1531 -0.2600  0.8214
   46MOL   H65543045   6.612   0.810   7.551  0.1723 -0.6362  0.5579
   46MOL   H65643046   6.769   1.103   7.904  0.2614 -0.1625  0.4413
   46MOL   H65743047   6.922   1.299   7.965  0.1082  0.9310 -0.1162
   46MOL   H65843048   7.112   1.257   7.581  3.2869 -0.5417  1.7156
   46MOL   H65943049   6.987   1.079   7.528  1.3017 -1.1122  0.7868
   46MOL   O66043050   7.285   1.552   7.759 -0.7647 -0.7169 -0.2602
   46MOL   C66143051   7.422   1.535   7.749 -0.6889  0.3756 -0.2965
   46MOL   C66243052   7.475   1.494   7.893  0.7000 -0.1597 -0.3811
   46MOL   C66343053   7.625   1.480   7.908 -0.1424  0.3414 -0.3533
   46MOL   C66443054   7.701   1.608   7.931 -0.0798 -0.5275  0.5317
   46MOL   C66543055   7.859   1.578   7.927 -0.4089 -0.4909  0.6018
   46MOL   C66643056   7.939   1.696   0.005 -0.2057  0.1581  0.2280
   46MOL   C66743057   0.119   1.668   0.003 -0.3941 -0.6173 -0.4809
   46MOL   C66843058   0.201   1.795   0.044 -0.0953  0.8255 -0.0226
   46MOL   C66943059   0.356   1.767   0.050 -0.0925 -0.3338 -0.9431
   46MOL   C67043060   0.428   1.898   0.093 -0.2595 -0.0682  0.0363
   46MOL   O67143061   0.563   1.868   0.107  0.5561  0.3992  0.1512
   46MOL   C67243062   0.666   1.916   0.032  0.0690  0.2398  0.2383
   46MOL   O67343063   0.656   1.977   7.905  0.4082 -0.2980 -0.3964
   46MOL   C67443064   0.799   1.862   0.088  0.1586  0.4406  0.4501
   46MOL   C67543065   0.919   1.896   0.026 -0.4439  0.0733  0.3325
   46MOL   C67643066   1.041   1.844   0.073  0.1220  0.1331 -0.1187
   46MOL   C67743067   1.044   1.761   0.191 -0.3373 -0.4144  0.1291
   46MOL   C67843068   1.179   1.706   0.246 -0.4083 -1.1659  0.2296
   46MOL   O67943069   1.187   1.617   0.324  0.1580  0.0494  0.6936
   46MOL   O68043070   1.287   1.786   0.221  0.2988  0.0902  0.3262
   46MOL   C68143071   0.920   1.721   0.244 -0.6928 -0.4811 -0.6109
   46MOL   C68243072   0.801   1.769   0.193  0.5305 -0.0161 -0.2325
   46MOL   H68343073   7.445   1.451   7.684 -1.1898  1.1559 -1.4991
   46MOL   H68443074   7.476   1.622   7.711  0.2844 -0.1119 -0.0446
   46MOL   H68543075   7.428   1.399   7.920 -0.2087  0.4603  0.2581
   46MOL   H68643076   7.439   1.573   7.958 -3.0057 -1.8909 -0.1929
   46MOL   H68743077   7.639   1.424   0.022  0.9105  2.4935  0.8435
   46MOL   H68843078   7.664   1.422   7.825  0.0314  1.6538 -1.2038
   46MOL   H68943079   7.667   1.659   0.043 -1.7233 -1.4514  0.4456
   46MOL   H69043080   7.669   1.678   7.854 -2.3529 -1.2063  0.8308
   46MOL   H69143081   7.876   1.485   0.003 -2.4592 -0.6743  0.9750
   46MOL   H69243082   7.894   1.564   7.825 -1.6024  0.0445  0.1083
   46MOL   H69343083   7.912   1.787   7.929 -0.9637  0.6133  1.3467
   46MOL   H69443084   7.920   1.707   0.112 -0.8958 -2.3085  0.3875
   46MOL   H69543085   0.142   1.586   0.071 -0.4247 -1.3512 -1.3486
   46MOL   H69643086   0.152   1.646   7.880 -0.0340 -0.9446 -0.2963
   46MOL   H69743087   0.199   1.871   7.944  0.7192  1.7233  0.8227
   46MOL   H69843088   0.177   1.841   0.140 -2.3950 -1.2442  0.4674
   46MOL   H69943089   0.394   1.737   7.930  0.3203 -1.3003 -0.5044
   46MOL   H70043090   0.382   1.688   0.120  2.3936 -0.6745 -2.2028
   46MOL   H70143091   0.387   1.930   0.189  1.5376 -1.8003  1.4197
   46MOL   H70243092   0.414   1.974   0.015 -0.3752 -0.1292 -0.0028
   46MOL   H70343093   0.919   1.966   7.922  0.4121 -1.8124 -1.3288
   46MOL   H70443094   1.129   1.882   0.022  0.9825 -2.1730 -0.4312
   46MOL   H70543095   0.921   1.649   0.325  1.8164 -0.1954 -0.3433
   46MOL   H70643096   0.708   1.733   0.235  1.2295 -0.5641  0.8488
   46MOL   O70743097   1.401   1.750   0.302 -0.3125  0.1919 -0.0293
   46MOL   C70843098   1.501   1.706   0.209  0.1078  0.4991 -0.7053
   46MOL   C70943099   1.628   1.699   0.290  0.2238 -0.5031  0.7898
   46MOL   C71043100   1.753   1.661   0.211 -0.1941  0.4661  0.5636
   46MOL   C71143101   1.888   1.665   0.287  0.1433 -0.0317 -0.1733
   46MOL   C71243102   2.001   1.621   0.196 -0.5243 -0.5150  0.0116
   46MOL   C71343103   2.137   1.645   0.255 -0.4230 -0.0254 -0.2446
   46MOL   C71443104   2.182   1.534   0.350  0.4538 -0.0993  0.6823
   46MOL   C71543105   2.312   1.568   0.419 -0.3289 -0.5418 -0.2905
   46MOL   C71643106   2.352   1.449   0.499 -0.3504  0.6784  0.6182
   46MOL   C71743107   2.274   1.426   0.628  0.3917  0.5152  0.0690
   46MOL   O71843108   2.332   1.339   0.715  0.1491  0.8172  0.6697
   46MOL   C71943109   2.250   1.295   0.815 -0.0246 -0.3026 -0.5928
   46MOL   O72043110   2.145   1.358   0.846  0.1794 -0.3312  0.2043
   46MOL   C72143111   2.305   1.182   0.887  0.0804 -0.5247  0.1787
   46MOL   C72243112   2.211   1.109   0.978 -1.1847 -0.4846  0.5362
   46MOL   C72343113   2.250   0.989   1.037 -0.2026  0.3015  0.3616
   46MOL   C72443114   2.380   0.937   1.012 -0.0968 -0.4211  0.2853
   46MOL   C72543115   2.417   0.810   1.076  1.0689  0.9329 -0.3294
   46MOL   O72643116   2.499   0.727   1.041 -0.4596  0.0243 -0.3991
   46MOL   O72743117   2.345   0.787   1.190 -0.6318  0.0368  0.2349
   46MOL   C72843118   2.476   1.006   0.930  0.3767  0.2989 -0.0685
   46MOL   C72943119   2.435   1.126   0.870 -0.0113 -0.9068 -1.2234
   46MOL   H73043120   1.478   1.605   0.175 -0.1168 -0.0974  1.1464
   46MOL   H73143121   1.521   1.770   0.124 -0.6621 -0.7692 -1.8677
   46MOL   H73243122   1.614   1.628   0.372 -1.4059 -0.4738  0.5447
   46MOL   H73343123   1.656   1.797   0.328  0.3394 -0.7137  1.2557
   46MOL   H73443124   1.742   1.560   0.172 -0.8355  1.2007 -1.1845
   46MOL   H73543125   1.758   1.716   0.117 -2.1298  0.5953  0.5185
   46MOL   H73643126   1.866   1.603   0.373  0.5277 -1.6207 -1.1917
   46MOL   H73743127   1.904   1.769   0.314  2.2268  0.3677 -2.7255
   46MOL   H73843128   1.990   1.524   0.148 -0.3885 -0.3262 -0.4042
   46MOL   H73943129   2.000   1.689   0.112  1.9129  0.6861  0.9089
   46MOL   H74043130   2.212   1.659   0.176  0.3763 -0.9241  0.3498
   46MOL   H74143131   2.147   1.736   0.315  2.4196 -2.1909  2.7262
   46MOL   H74243132   2.104   1.523   0.425  1.9870 -2.0402  2.0401
   46MOL   H74343133   2.192   1.435   0.306  2.5025  1.4068 -2.5010
   46MOL   H74443134   2.391   1.568   0.344 -0.2801 -2.1469 -0.2760
   46MOL   H74543135   2.319   1.654   0.485  0.6402 -0.9196  0.1093
   46MOL   H74643136   2.459   1.471   0.505 -0.2930  1.8602 -3.3195
   46MOL   H74743137   2.345   1.357   0.440  3.2331  0.9358 -0.3251
   46MOL   H74843138   2.179   1.392   0.586  0.2257  1.0731 -0.0006
   46MOL   H74943139   2.271   1.518   0.686  3.4046  1.1624 -0.7390
   46MOL   H75043140   2.109   1.142   0.989 -0.9124  0.2760  0.8087
   46MOL   H75143141   2.180   0.938   1.101 -0.6045  0.3875 -0.0074
   46MOL   H75243142   2.565   0.954   0.899 -0.3535 -1.6170  0.9144
   46MOL   H75343143   2.505   1.179   0.807  0.5505  0.3132  0.4050
   46MOL   O75443144   2.350   0.641   1.239 -0.2056  0.3687 -0.1450
   46MOL   C75543145   2.456   0.627   1.334  0.6388  0.1384 -0.3525
   46MOL   C75643146   2.481   0.477   1.340 -0.8820  0.3519 -0.2168
   46MOL   C75743147   2.589   0.425   1.235  0.1238  0.0502  0.6254
   46MOL   C75843148   2.589   0.271   1.214 -0.1375 -0.5948 -0.0877
   46MOL   C75943149   2.682   0.223   1.103 -0.9050 -0.4572  0.1374
   46MOL   C76043150   2.640   0.089   1.047 -0.6235  0.3410 -0.1014
   46MOL   C76143151   2.636   7.961   1.161  0.6501 -0.3213  0.2520
   46MOL   C76243152   2.603   7.817   1.108 -0.1644 -0.0170  0.5387
   46MOL   C76343153   2.580   7.727   1.231  0.3862 -0.7821 -0.2279
   46MOL   C76443154   2.549   7.584   1.196 -0.4878  1.0848  0.0496
   46MOL   O76543155   2.553   7.518   1.325  0.3181 -0.1253  0.4632
   46MOL   C76643156   2.660   7.445   1.374  0.8595  0.6830  0.4852
   46MOL   O76743157   2.769   7.443   1.318  0.4292  0.6133 -0.3422
   46MOL   C76843158   2.640   7.383   1.505  0.2156 -1.1025  0.1327
   46MOL   C76943159   2.524   7.423   1.584 -0.1624 -0.3995  0.3244
   46MOL   C77043160   2.509   7.371   1.711  0.2491 -0.3828 -0.2554
   46MOL   C77143161   2.598   7.279   1.768 -0.1768  0.4447 -0.0805
   46MOL   C77243162   2.564   7.229   1.905  0.4973  0.0120  0.2158
   46MOL   O77343163   2.458   7.263   1.959 -0.0394  0.3598 -0.2534
   46MOL   O77443164   2.651   7.140   1.955  0.2880  0.2202 -0.3252
   46MOL   C77543165   2.702   7.235   1.683 -0.1357 -0.3754  0.1037
   46MOL   C77643166   2.724   7.285   1.554  0.1703 -0.2129 -0.0164
   46MOL   H77743167   2.550   0.661   1.292  0.1297  0.8000 -0.9635
   46MOL   H77843168   2.448   0.673   1.433  1.7047  0.8706 -0.6145
   46MOL   H77943169   2.393   0.413   1.329 -0.1853 -0.6368 -0.1043
   46MOL   H78043170   2.523   0.455   1.439 -0.1766  0.6939 -0.4379
   46MOL   H78143171   2.552   0.478   1.147  0.4487 -0.8137 -0.0399
   46MOL   H78243172   2.688   0.462   1.260 -0.3352  1.0563  1.0077
   46MOL   H78343173   2.485   0.242   1.199  0.3296 -1.1613 -2.4182
   46MOL   H78443174   2.626   0.241   1.312 -1.3762  0.0137  0.5714
   46MOL   H78543175   2.690   0.304   1.030 -1.4134  0.0651  0.6471
   46MOL   H78643176   2.783   0.228   1.143 -0.2531  3.6544 -1.7632
   46MOL   H78743177   2.553   0.091   0.982  1.5655 -3.0561 -3.3139
   46MOL   H78843178   2.720   0.052   0.983 -3.6576  0.1384 -3.9325
   46MOL   H78943179   2.730   7.949   1.216  0.4902 -3.0172  0.0010
   46MOL   H79043180   2.570   0.011   1.243 -0.7389 -2.6723 -0.0155
   46MOL   H79143181   2.516   7.813   1.043 -0.3912 -0.7078  0.8850
   46MOL   H79243182   2.683   7.776   1.047  1.0195  0.2690  1.8564
   46MOL   H79343183   2.490   7.768   1.276  0.4494 -0.4405 -0.4132
   46MOL   H79443184   2.653   7.737   1.311  1.2241 -1.0105 -0.9485
   46MOL   H79543185   2.618   7.538   1.126 -1.2503  2.2232 -1.4680
   46MOL   H79643186   2.451   7.570   1.151  0.0815  1.2926 -1.2937
   46MOL   H79743187   2.453   7.497   1.551 -0.4311 -0.2995  1.1205
   46MOL   H79843188   2.425   7.408   1.768  1.2940  0.0186  1.0642
   46MOL   H79943189   2.774   7.166   1.724  1.0856  1.1853  0.6413
   46MOL   H80043190   2.812   7.256   1.498 -0.2295  0.8423 -1.2060
   46MOL   O80143191   2.598   7.055   2.061  0.3157  0.2934  0.7398
   46MOL   C80243192   2.574   6.932   2.006 -0.3845  0.7561  0.3282
   46MOL   C80343193   2.696   6.869   1.945 -0.9151 -0.2777 -0.0970
   46MOL   C80443194   2.807   6.835   2.047 -0.9690  0.3798  0.1458
   46MOL   C80543195   2.933   6.779   1.979 -0.0664  0.6122  0.9683
   46MOL   C80643196   3.048   6.747   2.070 -0.1116  0.2332 -0.5076
   46MOL   C80743197   3.155   6.665   1.996 -0.7406  0.6183  0.3603
   46MOL   C80843198   3.271   6.620   2.079 -0.0923 -0.1394  0.4565
   46MOL   C80943199   3.392   6.588   1.988 -0.2800  0.6527  0.6579
   46MOL   C81043200   3.492   6.526   2.072  0.1680  0.1468 -0.4858
   46MOL   C81143201   3.632   6.504   1.998  0.4448 -0.0064 -0.4791
   46MOL   O81243202   3.706   6.626   1.978 -0.5507  0.0053  0.1104
   46MOL   C81343203   3.728   6.665   1.847  0.3409  0.3378  0.0181
   46MOL   O81443204   3.699   6.588   1.757 -0.3857 -0.0539  0.0872
   46MOL   C81543205   3.790   6.797   1.822  0.3393 -0.1762  0.1802
   46MOL   C81643206   3.809   6.881   1.931  0.7680  0.0344  0.4445
   46MOL   C81743207   3.872   7.007   1.915 -0.1883  0.2036 -0.2399
   46MOL   C81843208   3.921   7.045   1.784  0.2653 -0.5111  0.0725
   46MOL   C81943209   3.989   7.176   1.766 -0.4468 -0.1443  0.6974
   46MOL   O82043210   4.021   7.223   1.658  0.4093  0.1714  0.0613
   46MOL   O82143211   3.997   7.237   1.881 -0.7079  0.2934  0.2674
   46MOL   C82243212   3.909   6.952   1.682 -0.0527 -0.7311  0.2249
   46MOL   C82343213   3.839   6.832   1.693  0.6539 -0.2163 -0.3642
   46MOL   H82443214   2.533   6.868   2.084  0.0847 -1.0707 -0.8791
   46MOL   H82543215   2.498   6.952   1.930  0.0159  0.2097 -0.2208
   46MOL   H82643216   2.730   6.917   1.853  1.5093 -0.9103  0.4131
   46MOL   H82743217   2.667   6.773   1.903  0.9506 -0.9660  0.1259
   46MOL   H82843218   2.831   6.926   2.101 -0.2918 -0.0054  0.5074
   46MOL   H82943219   2.771   6.769   2.125  1.4753 -0.9412  0.2038
   46MOL   H83043220   2.957   6.828   1.885  1.5537 -0.3549  0.8631
   46MOL   H83143221   2.893   6.682   1.950  4.4017 -0.9184 -0.3572
   46MOL   H83243222   3.093   6.839   2.108 -0.3183  0.5541 -1.0448
   46MOL   H83343223   2.999   6.709   2.160  0.6437 -1.3865 -0.7688
   46MOL   H83443224   3.115   6.575   1.951  1.0175  1.3517 -2.7715
   46MOL   H83543225   3.191   6.721   1.910  1.3086  1.0056  1.4297
   46MOL   H83643226   3.304   6.695   2.150 -0.3914  0.8228 -0.4067
   46MOL   H83743227   3.240   6.538   2.144 -1.3511 -0.3039 -0.3355
   46MOL   H83843228   3.353   6.515   1.917 -0.1106  0.9975  0.2045
   46MOL   H83943229   3.442   6.672   1.939  2.5067 -2.0211 -1.2947
   46MOL   H84043230   3.451   6.439   2.124  1.7373 -0.9398 -1.0224
   46MOL   H84143231   3.512   6.581   2.164 -0.6518 -0.0038 -0.2167
   46MOL   H84243232   3.611   6.445   1.909  1.9894  1.3413 -1.7489
   46MOL   H84343233   3.680   6.437   2.070 -1.0816  0.6260  1.1704
   46MOL   H84443234   3.758   6.864   2.025 -1.0715  0.0584 -0.5210
   46MOL   H84543235   3.899   7.069   1.999  2.4052  1.4096 -1.8888
   46MOL   H84643236   3.949   6.990   1.589  0.3302  1.6436  1.3146
   46MOL   H84743237   3.817   6.769   1.607  0.6700  0.1123 -0.6115
   46MOL   O84843238   4.021   7.388   1.883  0.3628 -0.2401 -0.3665
   46MOL   C84943239   4.148   7.426   1.897  0.2402 -0.6031 -0.0299
   46MOL   C85043240   4.141   7.552   1.981  0.8282 -0.2861  0.1235
   46MOL   C85143241   4.093   7.546   2.127  0.6187 -0.2291  0.5194
   46MOL   C85243242   3.951   7.498   2.147 -0.2422  0.4132 -0.2666
   46MOL   C85343243   3.911   7.490   2.300 -0.0017  0.3790  0.9281
   46MOL   C85443244   3.765   7.435   2.314 -0.5598  0.5372  0.0735
   46MOL   C85543245   3.709   7.440   2.450  0.3542  0.1645  0.1737
   46MOL   C85643246   3.568   7.401   2.446  0.4674 -0.2320 -0.4021
   46MOL   C85743247   3.499   7.382   2.580 -0.3388 -0.1951 -0.0767
   46MOL   C85843248   3.497   7.514   2.665 -0.1336  0.0163  0.3857
   46MOL   O85943249   3.416   7.485   2.777  0.1800 -0.4137 -0.2354
   46MOL   C86043250   3.430   7.562   2.887 -0.2255  0.6448 -0.7568
   46MOL   O86143251   3.499   7.655   2.897 -0.1417  0.0971  0.1038
   46MOL   C86243252   3.349   7.524   3.001 -0.3116  0.5969 -0.0091
   46MOL   C86343253   3.250   7.426   2.988 -0.4673  0.1153  0.1802
   46MOL   C86443254   3.158   7.399   3.092  0.1191 -0.0830  0.0038
   46MOL   C86543255   3.163   7.482   3.213 -0.1382  0.1340  1.2404
   46MOL   C86643256   3.055   7.470   3.317 -0.2084  0.3509 -0.0136
   46MOL   O86743257   2.985   7.373   3.320  0.5467  0.2177 -0.4683
   46MOL   O86843258   3.051   7.572   3.400  0.7484 -0.1972  0.1105
   46MOL   C86943259   3.272   7.567   3.232  0.9476 -0.5697  0.0192
   46MOL   C87043260   3.365   7.583   3.125  0.3400  0.5563  0.6328
   46MOL   H87143261   4.208   7.354   1.952  0.6777 -0.3974 -0.2335
   46MOL   H87243262   4.189   7.444   1.797 -0.7757 -0.8385 -0.4939
   46MOL   H87343263   4.083   7.612   1.911 -1.2859  0.6131  2.5587
   46MOL   H87443264   4.241   7.594   1.981  0.7585 -0.0860 -1.6474
   46MOL   H87543265   4.155   7.472   2.179  0.5143 -1.2805 -0.8127
   46MOL   H87643266   4.114   7.642   2.174 -0.8810 -0.5652  1.9438
   46MOL   H87743267   3.947   7.404   2.092  0.7253  0.8444 -1.0735
   46MOL   H87843268   3.882   7.564   2.094 -0.5030  1.5078  1.3831
   46MOL   H87943269   3.970   7.423   2.362 -0.0706 -0.9407 -0.4170
   46MOL   H88043270   3.914   7.592   2.339  0.0231  1.3962 -1.6289
   46MOL   H88143271   3.705   7.494   2.243  1.6868  0.4078 -2.0153
   46MOL   H88243272   3.759   7.335   2.272  0.3485  1.1011 -1.4577
   46MOL   H88343273   3.766   7.374   2.515  0.7144  0.2878 -0.0200
   46MOL   H88443274   3.707   7.541   2.491 -1.1956 -0.9528  3.0498
   46MOL   H88543275   3.515   7.465   2.376 -1.6457  0.3354  1.6480
   46MOL   H88643276   3.573   7.303   2.399  0.6543 -1.1531  1.4668
   46MOL   H88743277   3.553   7.302   2.630  1.4925  1.1225  0.0881
   46MOL   H88843278   3.396   7.350   2.565  0.3226 -2.1507 -0.6167
   46MOL   H88943279   3.445   7.593   2.612  2.2459  2.0516  1.0037
   46MOL   H89043280   3.596   7.540   2.702  0.3108 -0.9926 -0.0701
   46MOL   H89143281   3.230   7.377   2.894  2.1100 -1.1329  0.2271
   46MOL   H89243282   3.073   7.332   3.089  0.2549 -0.3095  1.0855
   46MOL   H89343283   3.284   7.622   3.324 -0.9335  0.7253 -0.4708
   46MOL   H89443284   3.444   7.656   3.134  0.9897 -0.4354  3.3617
   46MOL   O89543285   2.968   7.548   3.518 -0.1396  0.2879 -0.3436
   46MOL   C89643286   2.866   7.645   3.517 -0.0401  0.7593  0.4602
   46MOL   C89743287   2.727   7.591   3.468 -0.0186  1.0624  0.0658
   46MOL   C89843288   2.652   7.693   3.385  0.5916 -0.2331  0.2876
   46MOL   C89943289   2.529   7.635   3.307 -0.6530  0.1389 -0.4298
   46MOL   C90043290   2.416   7.589   3.407 -0.0432  0.2789  0.4320
   46MOL   C90143291   2.343   7.464   3.354  0.2349  0.2869 -0.4311
   46MOL   C90243292   2.218   7.443   3.437 -0.0808 -0.2677  0.2211
   46MOL   C90343293   2.112   7.353   3.369  0.7026  0.9419  0.2233
   46MOL   C90443294   1.989   7.333   3.461  0.7708 -0.2941  0.3822
   46MOL   C90543295   1.904   7.452   3.506  0.9597 -0.3166 -1.0101
   46MOL   O90643296   1.837   7.511   3.398 -0.3925 -0.6534 -1.0048
   46MOL   C90743297   1.709   7.554   3.408 -0.2644 -0.6491  0.6115
   46MOL   O90843298   1.648   7.558   3.514  0.3304 -0.8290 -0.2248
   46MOL   C90943299   1.651   7.617   3.284 -0.6396 -0.2445  0.3888
   46MOL   C91043300   1.532   7.693   3.289  0.3961  0.1263 -0.4267
   46MOL   C91143301   1.490   7.762   3.170 -0.6117 -0.7423  0.1876
   46MOL   C91243302   1.565   7.757   3.047  0.0912  0.3002  0.1935
   46MOL   C91343303   1.524   7.844   2.934  0.4942 -0.0455  0.1733
   46MOL   O91443304   1.421   7.913   2.936  0.4209  0.1523  0.1986
   46MOL   O91543305   1.605   7.845   2.829 -1.0920  0.4884 -0.1841
   46MOL   C91643306   1.673   7.673   3.041 -0.2135  0.3768 -0.0093
   46MOL   C91743307   1.718   7.608   3.160 -0.0080  0.2181 -0.2698
   46MOL   H91843308   2.837   7.672   3.619 -0.0447 -0.4867  0.8059
   46MOL   H91943309   2.886   7.745   3.480  1.9671  0.0609 -0.4419
   46MOL   H92043310   2.670   7.558   3.555 -1.1561  1.7907 -0.3873
   46MOL   H92143311   2.755   7.511   3.400  1.8638  1.3746  0.4542
   46MOL   H92243312   2.609   7.769   3.451 -0.6109 -1.4214  0.8803
   46MOL   H92343313   2.719   7.751   3.320  1.1660  0.4126  1.4430
   46MOL   H92443314   2.564   7.549   3.250  1.7200  0.4140  0.5243
   46MOL   H92543315   2.494   7.707   3.234 -0.1241 -1.7765 -2.6235
   46MOL   H92643316   2.458   7.568   3.505  0.7468  1.9015  0.4542
   46MOL   H92743317   2.346   7.671   3.424  0.2323  0.4754  0.6225
   46MOL   H92843318   2.324   7.486   3.249  0.5380 -1.0598 -0.7793
   46MOL   H92943319   2.406   7.375   3.348  0.1189  0.2747 -1.4584
   46MOL   H93043320   2.238   7.407   3.538 -0.1856 -0.0627  0.3150
   46MOL   H93143321   2.177   7.540   3.464  0.7688 -0.1379  1.0821
   46MOL   H93243322   2.084   7.412   3.282 -0.4991 -0.6683 -0.5041
   46MOL   H93343323   2.144   7.255   3.334 -1.9795  0.0352  0.2135
   46MOL   H93443324   2.024   7.297   3.558  1.5553 -0.9216 -0.1220
   46MOL   H93543325   1.908   7.267   3.429 -0.3723  0.0318  2.4762
   46MOL   H93643326   1.965   7.519   3.566 -0.7855  0.0604  0.3741
   46MOL   H93743327   1.837   7.409   3.580 -0.1669 -0.6881 -2.2332
   46MOL   H93843328   1.471   7.684   3.378  1.1838  0.5237  0.1608
   46MOL   H93943329   1.401   7.823   3.176  0.4943  0.9217 -0.0621
   46MOL   H94043330   1.725   7.658   2.948 -0.2281  0.7455 -0.0760
   46MOL   H94143331   1.814   7.559   3.152  0.8313  1.8374 -0.3368
   46MOL   H94243332   1.586   7.917   2.771  0.2368  1.2056  0.2497
   47MOL     O143333   5.672   6.109   5.184 -0.1603  0.2654 -0.0433
   47MOL     C243334   5.800   6.164   5.170  0.7790  0.2857  0.2355
   47MOL     C343335   5.905   6.077   5.234 -0.1227  0.3880 -0.4786
   47MOL     C443336   6.031   6.145   5.267 -0.6310 -0.4112 -0.5941
   47MOL     C543337   6.129   6.059   5.346 -0.3709 -0.4988 -0.5092
   47MOL     C643338   6.256   6.136   5.383  0.0729  0.7224  0.3503
   47MOL     C743339   6.364   6.064   5.470 -0.5740  0.3787  0.4227
   47MOL     C843340   6.506   6.123   5.476 -0.9447  0.1609  0.1602
   47MOL     C943341   6.589   6.103   5.342  0.3870 -0.7652 -0.4540
   47MOL    C1043342   6.731   6.148   5.360 -0.3769  0.5225  0.2524
   47MOL    C1143343   6.815   6.126   5.238  0.3172 -0.3303  0.2014
   47MOL    O1243344   6.945   6.175   5.258 -0.2122 -0.2453 -0.4109
   47MOL    C1343345   6.986   6.277   5.179  0.0071 -0.5537  0.2988
   47MOL    O1443346   6.914   6.340   5.099 -0.5659 -0.7057  0.9341
   47MOL    C1543347   7.135   6.287   5.176 -0.2668 -0.4393 -0.3441
   47MOL    C1643348   7.212   6.244   5.285 -0.3657  0.7659 -0.4819
   47MOL    C1743349   7.353   6.262   5.272 -0.5137 -0.8032  0.4623
   47MOL    C1843350   7.414   6.300   5.151  0.1639 -0.5217  0.5021
   47MOL    C1943351   7.559   6.307   5.137  0.6501  0.1157  0.4421
   47MOL    O2043352   7.632   6.290   5.237  0.5739 -0.2397  0.3512
   47MOL    O2143353   7.593   6.333   5.010 -0.1106 -0.2179  0.6373
   47MOL    C2243354   7.329   6.338   5.046 -0.1575 -0.5034  0.2138
   47MOL    C2343355   7.190   6.336   5.059  0.6475 -0.6176 -0.3642
   47MOL    H2443356   5.827   6.177   5.065  0.2740 -0.1610  0.0477
   47MOL    H2543357   5.800   6.266   5.208  0.1989 -0.0649  1.2030
   47MOL    H2643358   5.918   5.991   5.168 -0.9502  0.0505 -0.2128
   47MOL    H2743359   5.857   6.041   5.325 -0.0540 -2.0399 -1.3755
   47MOL    H2843360   6.077   6.182   5.175  0.9738  2.0148  1.1190
   47MOL    H2943361   6.007   6.231   5.331 -0.6807 -0.3959 -0.6336
   47MOL    H3043362   6.149   5.963   5.298 -0.8176 -1.5422  1.3164
   47MOL    H3143363   6.081   6.010   5.431  2.6213 -1.3051  0.7766
   47MOL    H3243364   6.306   6.170   5.293  1.0761 -1.3656  0.0810
   47MOL    H3343365   6.232   6.225   5.441  0.1113 -0.4912  2.2767
   47MOL    H3443366   6.325   6.070   5.572 -1.0820  1.8286  0.1486
   47MOL    H3543367   6.376   5.960   5.440  1.5437  0.2290  1.6457
   47MOL    H3643368   6.502   6.231   5.491 -0.1245 -0.1114  2.5375
   47MOL    H3743369   6.546   6.083   5.569  0.3205 -2.1473 -1.3238
   47MOL    H3843370   6.593   5.997   5.316  0.2522 -0.4611 -1.7899
   47MOL    H3943371   6.543   6.146   5.253  0.5458 -0.3909 -0.3576
   47MOL    H4043372   6.786   6.107   5.444 -0.8012  0.6669  0.6039
   47MOL    H4143373   6.742   6.253   5.386  2.1065  0.1253  0.9591
   47MOL    H4243374   6.774   6.173   5.148  0.7894  0.0226  0.1659
   47MOL    H4343375   6.823   6.021   5.210  0.0969 -0.7332  1.6214
   47MOL    H4443376   7.176   6.220   5.383 -0.6561 -0.8312 -0.9716
   47MOL    H4543377   7.418   6.236   5.354  2.9634  2.4044 -1.0898
   47MOL    H4643378   7.363   6.380   4.952  1.0468  0.9234  1.2497
   47MOL    H4743379   7.123   6.362   4.979  0.8840  0.4393 -0.2214
   47MOL    H4843380   5.612   6.182   5.179  1.1118  1.3786  0.4449
   47MOL    O4943381   7.747   6.332   4.987 -0.5693  0.1622 -0.4041
   47MOL    C5043382   7.787   6.209   4.917 -0.7009 -0.7144  0.2076
   47MOL    C5143383   7.898   6.132   4.990 -0.2304  0.0630 -0.0272
   47MOL    C5243384   7.914   5.987   4.942 -0.1260  0.0349  0.6011
   47MOL    C5343385   0.052   5.905   5.006  0.5664 -0.1408  0.1941
   47MOL    C5443386   0.030   5.754   4.970 -0.4380 -0.0767 -1.2497
   47MOL    C5543387   0.052   5.712   4.823  0.3593  0.5759 -0.2995
   47MOL    C5643388   0.019   5.569   4.785  0.1323  0.0605 -0.1593
   47MOL    C5743389   0.058   5.517   4.641  0.2213 -0.5241  0.4758
   47MOL    C5843390   7.952   5.580   4.532 -0.3857 -1.0732  0.4307
   47MOL    C5943391   0.026   5.536   4.390 -0.5929  0.5800  0.4419
   47MOL    O6043392   0.163   5.567   4.357  0.0294  0.2404 -0.2466
   47MOL    C6143393   0.194   5.587   4.226  0.1778  0.2695  0.3922
   47MOL    O6243394   0.122   5.568   4.131 -0.3246  0.0187 -0.1543
   47MOL    C6343395   0.333   5.628   4.206 -0.5354 -0.2995 -0.6562
   47MOL    C6443396   0.390   5.615   4.080  0.4052  0.1533  0.0988
   47MOL    C6543397   0.526   5.650   4.061  0.9248 -0.3675  0.2631
   47MOL    C6643398   0.606   5.684   4.172  0.0261  0.5463  0.5695
   47MOL    C6743399   0.753   5.689   4.162  0.2398  0.2794  0.1610
   47MOL    O6843400   0.826   5.687   4.257  0.0157 -0.3954 -0.2239
   47MOL    O6943401   0.786   5.708   4.038 -0.0993  0.5150  0.0309
   47MOL    C7043402   0.549   5.701   4.298 -0.8038  0.1126  0.3434
   47MOL    C7143403   0.411   5.675   4.318 -0.0141  0.1023 -0.1064
   47MOL    H7243404   7.702   6.141   4.912 -0.7346 -0.5728 -1.2786
   47MOL    H7343405   7.824   6.237   4.818  0.8328 -1.3537  0.5744
   47MOL    H7443406   7.884   6.133   5.098 -1.5999  1.4164 -0.1901
   47MOL    H7543407   0.012   6.186   4.964 -0.4112 -0.1825 -1.1611
   47MOL    H7643408   7.816   5.941   4.957 -0.5579  0.7654  0.0805
   47MOL    H7743409   7.926   5.993   4.834  2.5867  1.3285  0.9501
   47MOL    H7843410   0.056   5.927   5.113 -1.0422 -0.0478  0.2476
   47MOL    H7943411   0.148   5.927   4.960  0.4686 -2.7781 -1.3356
   47MOL    H8043412   0.091   5.696   5.040 -1.6684  0.9896  0.7423
   47MOL    H8143413   7.911   5.719   5.004  0.4319 -0.1745  1.2211
   47MOL    H8243414   7.974   5.784   4.764 -0.1649  0.5394  0.1406
   47MOL    H8343415   0.153   5.732   4.788 -0.0783  1.9211 -0.8362
   47MOL    H8443416   0.057   5.495   4.856 -0.8642 -1.4469 -1.1660
   47MOL    H8543417   7.889   5.562   4.794  0.1660 -0.2393  0.0270
   47MOL    H8643418   0.163   5.531   4.619  0.0238 -0.3684 -0.3853
   47MOL    H8743419   0.044   5.411   4.662  0.5742 -0.6351  0.1404
   47MOL    H8843420   7.947   5.689   4.537  0.8016 -1.0134  0.3630
   47MOL    H8943421   7.856   5.539   4.562 -1.0648  1.1170  1.3270
   47MOL    H9043422   7.946   5.586   4.312 -0.6219 -0.3413 -0.1231
   47MOL    H9143423   7.975   5.432   4.376  0.7101  0.4278 -1.2309
   47MOL    H9243424   0.337   5.554   4.007 -1.7911  2.5132 -0.3414
   47MOL    H9343425   0.572   5.623   3.967 -0.3671 -2.3053  0.1717
   47MOL    H9443426   0.610   5.740   4.377  0.5741  0.2604 -0.7736
   47MOL    H9543427   0.364   5.673   4.415 -2.2551 -0.0185 -1.1772
   47MOL    O9643428   0.930   5.735   4.022 -0.5680 -0.2496  0.2234
   47MOL    C9743429   1.003   5.620   3.979  0.5294 -0.0355  0.1583
   47MOL    C9843430   1.152   5.653   3.955 -0.2292  0.2858  0.0096
   47MOL    C9943431   1.237   5.673   4.081  0.0843 -0.2022  0.8436
   47MOL   C10043432   1.212   5.811   4.142  0.0478  0.6063  0.2272
   47MOL   C10143433   1.334   5.839   4.238 -0.2902  0.7829 -0.3863
   47MOL   C10243434   1.335   5.968   4.328 -0.1938 -0.3296  0.0988
   47MOL   C10343435   1.237   5.964   4.439 -0.0898 -0.2015  0.5826
   47MOL   C10443436   1.212   6.109   4.486 -0.4973 -0.0325 -0.3613
   47MOL   C10543437   1.330   6.182   4.561 -0.1091  0.4667  0.0501
   47MOL   C10643438   1.285   6.321   4.612  0.5690  0.6582  0.3803
   47MOL   O10743439   1.392   6.374   4.693 -0.0464  0.2525  0.6914
   47MOL   C10843440   1.377   6.491   4.740 -0.0291 -0.1017  0.5604
   47MOL   O10943441   1.281   6.561   4.707  0.0886  0.1809 -0.7931
   47MOL   C11043442   1.481   6.531   4.839 -0.0432  0.1316  0.4310
   47MOL   C11143443   1.564   6.421   4.886 -0.2123 -0.0187 -0.7553
   47MOL   C11243444   1.662   6.441   4.988 -0.1673  0.0477 -0.3151
   47MOL   C11343445   1.687   6.573   5.036 -0.7014  0.2844 -0.3495
   47MOL   C11443446   1.781   6.595   5.152  0.5198  0.5558 -0.3668
   47MOL   O11543447   1.828   6.498   5.214  0.1295 -1.0979 -0.4853
   47MOL   O11643448   1.827   6.718   5.168  0.5737 -0.2536 -0.2789
   47MOL   C11743449   1.609   6.678   4.984 -0.0923  0.0287 -0.2516
   47MOL   C11843450   1.505   6.664   4.891  0.0259 -0.6103  0.4236
   47MOL   H11943451   0.989   5.551   4.063  1.2595  0.3734  0.6203
   47MOL   H12043452   0.971   5.587   3.880  2.4808  1.1292 -0.8794
   47MOL   H12143453   1.163   5.726   3.874  1.4415  0.7288  0.6132
   47MOL   H12243454   1.209   5.571   3.912 -1.1943  0.1707 -1.0750
   47MOL   H12343455   1.224   5.589   4.149  0.2929  0.9237  2.3216
   47MOL   H12443456   1.338   5.662   4.042 -0.9944  0.7964 -2.4001
   47MOL   H12543457   1.118   5.816   4.196 -1.1566  1.9326 -1.9186
   47MOL   H12643458   1.201   5.886   4.063 -1.4863  1.4817  1.2481
   47MOL   H12743459   1.353   5.749   4.296  0.8045  1.4139  0.2467
   47MOL   H12843460   1.421   5.843   4.174  0.5026  0.2782  0.6428
   47MOL   H12943461   1.433   5.997   4.366 -0.2869  0.0826  0.0272
   47MOL   H13043462   1.309   6.047   4.257 -1.5108  0.0341  0.9651
   47MOL   H13143463   1.150   5.918   4.393 -0.4441  1.7548 -0.7842
   47MOL   H13243464   1.258   5.904   4.527 -1.3425  0.2377  1.1824
   47MOL   H13343465   1.184   6.175   4.403 -1.1315  1.3486  0.9081
   47MOL   H13443466   1.125   6.106   4.552 -0.5254  2.5100 -0.2172
   47MOL   H13543467   1.418   6.201   4.499 -1.1903 -1.0364 -2.0066
   47MOL   H13643468   1.356   6.120   4.648  1.0015 -2.3265 -2.1901
   47MOL   H13743469   1.188   6.317   4.662 -0.4677  0.2839 -1.6237
   47MOL   H13843470   1.270   6.394   4.533 -0.2644  0.4998  0.3845
   47MOL   H13943471   1.537   6.320   4.859 -0.3203 -0.0803 -0.4207
   47MOL   H14043472   1.719   6.358   5.028  1.5526  2.7907  3.2324
   47MOL   H14143473   1.629   6.773   5.032  0.0448  0.5947 -1.4283
   47MOL   H14243474   1.452   6.749   4.851  1.5284 -0.7764 -1.9900
   47MOL   O14343475   1.912   6.737   5.289 -0.3998 -0.0212 -0.5990
   47MOL   C14443476   2.051   6.712   5.261 -0.1101  0.0874 -0.2378
   47MOL   C14543477   2.146   6.784   5.361 -0.3837 -0.8867  0.3511
   47MOL   C14643478   2.294   6.741   5.340 -0.1124  0.1989 -0.1330
   47MOL   C14743479   2.377   6.804   5.454  0.0899  0.6029  0.4864
   47MOL   C14843480   2.529   6.755   5.458 -0.3252 -0.2400 -0.2726
   47MOL   C14943481   2.560   6.618   5.519 -0.0562  0.4696  0.2451
   47MOL   C15043482   2.488   6.494   5.456  0.9952 -0.4386  0.3594
   47MOL   C15143483   2.558   6.364   5.502  0.2451  0.3154 -0.2345
   47MOL   C15243484   2.562   6.348   5.660 -0.2423 -0.1155 -0.0329
   47MOL   C15343485   2.582   6.209   5.718 -0.0273  0.7677 -0.0791
   47MOL   O15443486   2.696   6.144   5.669  0.9648 -0.0879  0.0672
   47MOL   C15543487   2.811   6.141   5.735 -0.3592 -0.3683 -0.5059
   47MOL   O15643488   2.843   6.191   5.840 -0.2702  0.5139  0.5864
   47MOL   C15743489   2.919   6.064   5.659 -0.5764  0.3735 -1.0627
   47MOL   C15843490   2.898   6.017   5.534 -0.0083 -0.4910  0.4235
   47MOL   C15943491   3.010   5.956   5.465  0.4131 -0.2916 -0.0673
   47MOL   C16043492   3.134   5.945   5.528 -0.0639 -0.1481 -0.1691
   47MOL   C16143493   3.243   5.875   5.453  0.5323 -0.4764 -0.5230
   47MOL   O16243494   3.235   5.861   5.334  0.3597 -0.1560 -0.1855
   47MOL   O16343495   3.338   5.824   5.537 -0.0833 -1.1326 -1.0578
   47MOL   C16443496   3.153   5.992   5.659 -0.2826 -0.1643 -0.1394
   47MOL   C16543497   3.048   6.060   5.717 -0.2240  1.0394  0.4062
   47MOL   H16643498   2.074   6.606   5.251  2.1029  0.4974  0.2132
   47MOL   H16743499   2.066   6.757   5.163 -2.4195  0.1524 -0.5797
   47MOL   H16843500   2.099   6.785   5.459  0.1381 -0.4729  0.5936
   47MOL   H16943501   2.137   6.888   5.328  0.6182 -0.8738  0.1172
   47MOL   H17043502   2.294   6.632   5.347 -2.2366  0.1665 -0.2690
   47MOL   H17143503   2.333   6.766   5.242  2.5086 -0.2407  0.7570
   47MOL   H17243504   2.322   6.779   5.544 -0.4564  1.8729  0.5210
   47MOL   H17343505   2.380   6.913   5.442 -2.3723  0.7924  1.4655
   47MOL   H17443506   2.564   6.755   5.354  0.8322 -1.0310  0.1091
   47MOL   H17543507   2.581   6.828   5.520 -0.2810 -1.1003  0.7151
   47MOL   H17643508   2.668   6.604   5.513 -0.0153  1.3201 -1.4142
   47MOL   H17743509   2.531   6.617   5.624  3.2416  1.5784  1.2177
   47MOL   H17843510   2.383   6.485   5.480  0.7768 -2.7355 -1.2555
   47MOL   H17943511   2.497   6.497   5.348 -0.4354 -0.5425  0.2299
   47MOL   H18043512   2.506   6.276   5.465 -1.8685  0.9522  1.0845
   47MOL   H18143513   2.653   6.378   5.452  0.7768  1.9574  1.1984
   47MOL   H18243514   2.480   6.405   5.706 -0.6178  0.9611 -1.9581
   47MOL   H18343515   2.646   6.411   5.689  0.6456 -1.9838  1.4958
   47MOL   H18443516   2.497   6.152   5.680 -0.6059  1.5961 -0.0382
   47MOL   H18543517   2.566   6.214   5.826  0.5398  1.1165 -0.0078
   47MOL   H18643518   2.812   6.037   5.472  1.1436 -0.0300 -1.0561
   47MOL   H18743519   3.000   5.917   5.365  0.2588  1.8793 -0.9084
   47MOL   H18843520   3.254   5.978   5.696  0.7142  0.0938 -2.6033
   47MOL   H18943521   3.050   6.102   5.816  0.1863 -0.3464  1.0033
   47MOL   O19043522   3.446   5.758   5.461 -0.8926  0.1470  0.4790
   47MOL   C19143523   3.555   5.844   5.447 -0.2917  0.5874 -0.5680
   47MOL   C19243524   3.626   5.887   5.577  0.5379  0.6022 -0.8781
   47MOL   C19343525   3.731   5.992   5.540 -0.3136  0.2053  0.3097
   47MOL   C19443526   3.826   6.033   5.661 -0.8747  0.5645  0.0213
   47MOL   C19543527   3.933   6.143   5.604  0.2477 -0.0397 -0.3671
   47MOL   C19643528   4.043   6.187   5.699 -0.3905  0.3233  0.0496
   47MOL   C19743529   4.117   6.316   5.656 -0.2187 -0.5540 -0.3806
   47MOL   C19843530   4.204   6.306   5.543 -0.2868 -0.2082 -0.2074
   47MOL   C19943531   4.321   6.409   5.529 -0.4220  0.3696 -0.7169
   47MOL   C20043532   4.440   6.353   5.445 -0.5038 -0.0884  0.2928
   47MOL   O20143533   4.404   6.345   5.308  0.2393  0.0659 -0.3693
   47MOL   C20243534   4.475   6.279   5.226  0.1457 -0.3883  0.0634
   47MOL   O20343535   4.580   6.226   5.259  0.1767 -0.3520 -0.4808
   47MOL   C20443536   4.405   6.267   5.102 -0.3874 -0.2710  0.1340
   47MOL   C20543537   4.465   6.181   5.006  0.0263  0.9451  0.0753
   47MOL   C20643538   4.392   6.143   4.887 -0.2969 -0.3177  0.3520
   47MOL   C20743539   4.265   6.192   4.862 -0.5235 -0.2245 -0.0675
   47MOL   C20843540   4.200   6.173   4.732 -0.8227  0.3954  0.6297
   47MOL   O20943541   4.086   6.217   4.705  0.0519 -0.0024 -0.4915
   47MOL   O21043542   4.282   6.110   4.646  0.0934 -0.0020 -0.2078
   47MOL   C21143543   4.201   6.278   4.961 -0.4492  0.3847  0.7606
   47MOL   C21243544   4.275   6.316   5.075 -0.3972  0.1144 -0.5633
   47MOL   H21343545   3.640   5.814   5.387  1.6112  1.4361  1.5866
   47MOL   H21443546   3.515   5.936   5.403 -0.6988  0.3920 -0.6093
   47MOL   H21543547   3.666   5.798   5.625  0.0682  1.4261  1.1158
   47MOL   H21643548   3.563   5.931   5.655  1.5121  0.3472  0.0594
   47MOL   H21743549   3.800   5.954   5.464  1.7071  0.2803  2.0519
   47MOL   H21843550   3.681   6.081   5.502  1.9718  0.9565 -1.0271
   47MOL   H21943551   3.885   5.955   5.708  1.6480  1.5755 -1.3936
   47MOL   H22043552   3.768   6.083   5.739 -1.3246 -1.4558  1.0169
   47MOL   H22143553   3.975   6.102   5.513  0.7507 -2.5130  0.9434
   47MOL   H22243554   3.874   6.232   5.579 -1.7398 -1.5343 -1.1736
   47MOL   H22343555   3.991   6.187   5.794  0.7182 -0.0391  0.6661
   47MOL   H22443556   4.120   6.111   5.711 -0.0717  0.4145 -1.3217
   47MOL   H22543557   4.045   6.395   5.635 -0.5248 -0.1476  2.0955
   47MOL   H22643558   4.165   6.354   5.746 -0.2409  1.2622 -1.1210
   47MOL   H22743559   4.243   6.206   5.559  2.7457  0.9465  0.0431
   47MOL   H22843560   4.153   6.312   5.447 -1.6627  1.2250  0.5812
   47MOL   H22943561   4.360   6.427   5.628 -0.6957 -0.3799 -0.4643
   47MOL   H23043562   4.278   6.500   5.488  0.2496  0.5690 -0.9800
   47MOL   H23143563   4.469   6.258   5.489 -2.3218 -1.3975 -1.2613
   47MOL   H23243564   4.533   6.410   5.451  2.3917 -4.1558 -3.2193
   47MOL   H23343565   4.560   6.135   5.030  0.0346  0.6733 -0.4755
   47MOL   H23443566   4.440   6.064   4.832 -0.7066 -1.1350  1.1418
   47MOL   H23543567   4.102   6.317   4.942 -0.5631 -0.2752 -0.0933
   47MOL   H23643568   4.219   6.368   5.152 -0.1224 -0.1313 -0.1957
   47MOL   O23743569   4.206   6.093   4.524  0.7411 -0.3421  0.1930
   47MOL   C23843570   4.146   5.961   4.524 -0.7561  0.1354  0.5344
   47MOL   C23943571   4.234   5.841   4.523  0.4302 -0.2204  0.7389
   47MOL   C24043572   4.168   5.703   4.538 -0.3574 -0.8598  0.4724
   47MOL   C24143573   4.268   5.585   4.513  0.0584 -0.0467 -0.4981
   47MOL   C24243574   4.198   5.456   4.553  0.1699  0.1604 -0.4984
   47MOL   C24343575   4.279   5.327   4.521 -0.3774 -0.4926 -0.4445
   47MOL   C24443576   4.206   5.198   4.543  0.2171  0.3073 -0.1191
   47MOL   C24543577   4.300   5.081   4.550 -0.0634  0.4121 -0.1129
   47MOL   C24643578   4.236   4.942   4.520 -0.5130  0.8959 -0.0748
   47MOL   C24743579   4.337   4.821   4.532  0.0487  0.2976  0.1204
   47MOL   O24843580   4.439   4.822   4.440  0.2611 -0.1565  0.1105
   47MOL   C24943581   4.567   4.838   4.483 -0.4886  0.2640  0.3578
   47MOL   O25043582   4.601   4.858   4.600  0.2569  0.1902  0.8420
   47MOL   C25143583   4.670   4.838   4.372  0.3035 -0.0576  0.0996
   47MOL   C25243584   4.790   4.903   4.391  0.3415 -0.0710  0.0163
   47MOL   C25343585   4.891   4.907   4.296  0.0737 -0.4677 -0.2788
   47MOL   C25443586   4.863   4.848   4.168 -0.6850  0.1216  0.6827
   47MOL   C25543587   4.961   4.848   4.055 -0.1124  1.1142 -0.0150
   47MOL   O25643588   4.925   4.830   3.940  0.2378 -0.2366 -0.1464
   47MOL   O25743589   5.087   4.866   4.093  0.7563 -0.1241 -0.2109
   47MOL   C25843590   4.729   4.791   4.145  0.3834 -0.1785 -0.4267
   47MOL   C25943591   4.637   4.786   4.248  0.2362 -0.0138  1.4355
   47MOL   H26043592   4.073   5.962   4.605  1.0240  1.0719  2.1650
   47MOL   H26143593   4.092   5.965   4.429 -1.1288  0.4854  0.7592
   47MOL   H26243594   4.320   5.853   4.589  0.6862  0.6540  0.2485
   47MOL   H26343595   4.272   5.837   4.421  0.8165  3.0067  0.7248
   47MOL   H26443596   4.127   5.686   4.638 -0.9480  0.3461  0.4535
   47MOL   H26543597   4.082   5.702   4.470  0.4291  0.6379 -0.5715
   47MOL   H26643598   4.355   5.586   4.579 -0.7054 -4.6951  0.7585
   47MOL   H26743599   4.300   5.577   4.409  0.5813  1.5839 -0.4856
   47MOL   H26843600   4.172   5.464   4.659  0.5962  1.1321 -0.4640
   47MOL   H26943601   4.098   5.437   4.514  0.1176 -1.3258  0.3119
   47MOL   H27043602   4.316   5.340   4.419 -2.6761 -2.1509 -1.5134
   47MOL   H27143603   4.363   5.329   4.591 -1.1059 -0.9874  0.4587
   47MOL   H27243604   4.147   5.211   4.634 -1.4577  0.5848 -1.2077
   47MOL   H27343605   4.132   5.181   4.464 -0.6726  0.3071  0.7096
   47MOL   H27443606   4.378   5.100   4.476  0.2757 -2.2662 -0.5024
   47MOL   H27543607   4.344   5.072   4.650  0.4471 -0.1809 -0.3811
   47MOL   H27643608   4.201   4.943   4.416  0.2812  0.5979 -0.3558
   47MOL   H27743609   4.152   4.922   4.585  0.4499 -1.3390  0.5301
   47MOL   H27843610   4.278   4.735   4.499  0.4610 -0.0324  0.2465
   47MOL   H27943611   4.358   4.802   4.637 -0.3515 -2.0589 -0.1998
   47MOL   H28043612   4.813   4.954   4.483  1.4550 -1.4099  0.4962
   47MOL   H28143613   4.987   4.950   4.321 -0.5615  1.6701 -1.3978
   47MOL   H28243614   4.698   4.741   4.054 -2.3181 -1.1972  0.9972
   47MOL   H28343615   4.544   4.731   4.234  0.6735 -0.4902  0.3573
   47MOL   O28443616   5.179   4.851   3.977  0.1427  0.8026  0.1141
   47MOL   C28543617   5.210   4.972   3.919 -0.2555  0.5477  0.1364
   47MOL   C28643618   5.290   5.071   4.014 -0.1941  0.6209 -0.4605
   47MOL   C28743619   5.413   5.007   4.090  0.2761 -0.4225  1.1909
   47MOL   C28843620   5.466   5.078   4.209  0.1690  0.1077 -0.7402
   47MOL   C28943621   5.520   5.222   4.188  0.8917  0.7290  0.0496
   47MOL   C29043622   5.518   5.304   4.311 -0.6919 -0.1437  0.4680
   47MOL   C29143623   5.542   5.446   4.276 -0.3947 -0.0725 -0.1411
   47MOL   C29243624   5.591   5.533   4.392  0.4752 -0.1864  0.2824
   47MOL   C29343625   5.633   5.672   4.339  0.1836  0.0132  0.1506
   47MOL   C29443626   5.659   5.767   4.458  0.3712 -0.0324 -0.7071
   47MOL   O29543627   5.791   5.732   4.509 -0.4733 -0.4156  0.1580
   47MOL   C29643628   5.889   5.826   4.508  0.1796 -0.0590 -0.0802
   47MOL   O29743629   5.880   5.948   4.479 -0.0176  0.0895 -0.0212
   47MOL   C29843630   6.016   5.760   4.562 -0.5506 -0.1907  0.3578
   47MOL   C29943631   6.134   5.833   4.581  0.5977 -0.2003 -0.6083
   47MOL   C30043632   6.256   5.772   4.619 -0.2186  0.9098 -0.2621
   47MOL   C30143633   6.263   5.634   4.630  0.5578 -0.6433  1.3056
   47MOL   C30243634   6.400   5.571   4.652 -0.4615 -0.9034  0.3646
   47MOL   O30343635   6.496   5.641   4.693  0.7169  0.2913  0.3169
   47MOL   O30443636   6.410   5.440   4.626  0.1728  0.7617 -0.1464
   47MOL   C30543637   6.149   5.558   4.620  0.0220 -0.3262  0.3724
   47MOL   C30643638   6.020   5.620   4.584  0.3331  0.4605 -0.2523
   47MOL   H30743639   5.267   4.953   3.828  0.1068  1.9334  0.0605
   47MOL   H30843640   5.113   5.012   3.891  0.2206  1.6088 -0.0191
   47MOL   H30943641   5.235   5.124   4.091  0.1762 -1.4882  1.3098
   47MOL   H31043642   5.324   5.151   3.948  2.6638 -0.2226 -0.0800
   47MOL   H31143643   5.388   4.903   4.114 -1.1160 -0.6927 -1.2184
   47MOL   H31243644   5.492   5.006   4.014 -1.0755  0.7389 -0.2638
   47MOL   H31343645   5.528   5.010   4.268 -2.7649 -2.7905 -0.8796
   47MOL   H31443646   5.374   5.091   4.266 -1.0629  0.5243 -2.7671
   47MOL   H31543647   5.620   5.214   4.147  0.6099  0.3814 -0.5844
   47MOL   H31643648   5.471   5.265   4.100 -0.6858 -0.6691  0.2149
   47MOL   H31743649   5.422   5.290   4.360 -1.3512 -0.6454 -0.9539
   47MOL   H31843650   5.588   5.271   4.389 -0.8684 -1.9336 -0.1033
   47MOL   H31943651   5.615   5.436   4.195 -0.8606  1.3346 -0.7545
   47MOL   H32043652   5.451   5.493   4.240 -0.7427 -0.2739  0.4714
   47MOL   H32143653   5.512   5.536   4.467  0.5065 -0.1893  0.3150
   47MOL   H32243654   5.671   5.488   4.450  3.5588  2.4633 -1.7412
   47MOL   H32343655   5.557   5.712   4.273  1.8654  1.5307 -0.9309
   47MOL   H32443656   5.720   5.652   4.276  0.6532 -0.9907  1.1068
   47MOL   H32543657   5.591   5.761   4.543  1.7952 -0.3964  0.4235
   47MOL   H32643658   5.647   5.868   4.417 -0.7054  0.6399  1.1749
   47MOL   H32743659   6.133   5.940   4.572 -0.2663 -0.0159  1.5168
   47MOL   H32843660   6.345   5.831   4.634  0.6917 -0.6538  0.6124
   47MOL   H32943661   6.145   5.453   4.645 -1.9724 -0.1206  1.0369
   47MOL   H33043662   5.932   5.557   4.579  0.3831  0.0745  2.5861
   47MOL   O33143663   6.549   5.383   4.658  0.2616 -0.0086 -0.3441
   47MOL   C33243664   6.556   5.322   4.783  0.0008  0.2034  0.3162
   47MOL   C33343665   6.451   5.214   4.812  0.8897 -0.1643  0.3072
   47MOL   C33443666   6.487   5.167   4.953 -0.9145 -0.5258 -0.1914
   47MOL   C33543667   6.421   5.028   4.981  0.2377 -0.0176  0.0709
   47MOL   C33643668   6.478   4.974   5.111 -0.1772  0.0188 -0.0825
   47MOL   C33743669   6.409   4.840   5.150  0.0947 -0.3595 -0.5048
   47MOL   C33843670   6.493   4.759   5.248 -0.8616 -0.2513 -0.1837
   47MOL   C33943671   6.424   4.626   5.279 -0.1957 -0.1776  0.4449
   47MOL   C34043672   6.279   4.651   5.338 -0.1690 -0.6460 -0.2905
   47MOL   C34143673   6.252   4.574   5.473  0.4350 -0.6402 -0.7841
   47MOL   O34243674   6.145   4.634   5.543 -0.3581  0.0798 -0.1748
   47MOL   C34343675   6.030   4.578   5.559  0.4776  0.5353 -0.6280
   47MOL   O34443676   6.006   4.465   5.514  0.3333  0.1097 -0.7292
   47MOL   C34543677   5.930   4.658   5.645  0.1275 -0.3044  0.6325
   47MOL   C34643678   5.796   4.602   5.674  0.0136 -0.3196 -0.0444
   47MOL   C34743679   5.700   4.679   5.738  0.3995 -0.6606  0.1125
   47MOL   C34843680   5.732   4.814   5.779  0.3566  0.6383  0.6116
   47MOL   C34943681   5.623   4.902   5.830 -0.5302  0.0670  0.6375
   47MOL   O35043682   5.500   4.876   5.835  0.0882 -0.0932  0.1325
   47MOL   O35143683   5.665   5.025   5.867  0.0956  0.7286 -0.2211
   47MOL   C35243684   5.865   4.860   5.762  0.3169  0.1691 -0.9106
   47MOL   C35343685   5.959   4.786   5.689 -0.4783 -0.2192  0.3691
   47MOL   H35443686   6.653   5.272   4.786 -0.1790 -0.1078  1.3890
   47MOL   H35543687   6.553   5.405   4.854  0.7132 -1.2115  2.0527
   47MOL   H35643688   6.461   5.137   4.735 -2.7563 -0.6395  0.1960
   47MOL   H35743689   6.352   5.258   4.803  1.3769  0.6486 -1.2984
   47MOL   H35843690   6.594   5.147   4.959 -0.9429 -0.7836 -0.5039
   47MOL   H35943691   6.458   5.248   5.019 -1.5376  1.3711 -2.6944
   47MOL   H36043692   6.450   4.966   4.896 -2.3548 -1.4856  0.2185
   47MOL   H36143693   6.312   5.029   4.984  0.2087 -2.6958  1.1487
   47MOL   H36243694   6.585   4.959   5.100 -0.0248  0.4102  0.8160
   47MOL   H36343695   6.464   5.055   5.183 -0.4671 -0.8212  0.8212
   47MOL   H36443696   6.310   4.863   5.188  0.6783  2.7504 -0.7272
   47MOL   H36543697   6.403   4.781   5.058  1.1981  1.0243 -1.4808
   47MOL   H36643698   6.596   4.747   5.216 -1.3447 -0.6569 -1.6232
   47MOL   H36743699   6.499   4.811   5.343 -0.5338  1.3255 -1.0453
   47MOL   H36843700   6.417   4.553   5.198  3.1075 -1.0166  0.8552
   47MOL   H36943701   6.492   4.585   5.354  1.7571  1.8038 -0.1914
   47MOL   H37043702   6.201   4.634   5.265 -0.8257  1.6373 -0.1558
   47MOL   H37143703   6.271   4.756   5.369  3.4020 -0.4261  0.1655
   47MOL   H37243704   6.338   4.592   5.537  2.1286 -1.6309 -2.7329
   47MOL   H37343705   6.229   4.471   5.446 -2.1935  0.3546 -2.5770
   47MOL   H37443706   5.762   4.500   5.659 -3.1588  0.1006  3.3907
   47MOL   H37543707   5.599   4.642   5.743 -0.2491  0.9395 -0.8176
   47MOL   H37643708   5.890   4.964   5.774  1.1634 -0.1418  0.0716
   47MOL   H37743709   6.057   4.821   5.659 -1.0668 -0.8444 -2.4386
   47MOL   O37843710   5.552   5.128   5.866 -0.1860 -0.1120 -0.2181
   47MOL   C37943711   5.512   5.142   5.995  0.6800  0.5038 -0.3470
   47MOL   C38043712   5.378   5.221   5.994  0.2912 -0.4149  0.7270
   47MOL   C38143713   5.377   5.367   5.940  0.1785  0.0045  0.3019
   47MOL   C38243714   5.412   5.482   6.041 -0.2756  0.2064 -0.2698
   47MOL   C38343715   5.524   5.452   6.134 -0.6300  0.0579 -0.4053
   47MOL   C38443716   5.570   5.569   6.228  0.1793  0.2477 -0.0888
   47MOL   C38543717   5.698   5.540   6.311 -0.4312 -0.0174 -0.0321
   47MOL   C38643718   5.688   5.425   6.420  0.8661 -0.1980 -0.3475
   47MOL   C38743719   5.815   5.406   6.507  0.1015 -0.0990  0.3426
   47MOL   C38843720   5.822   5.276   6.572  0.0415 -0.0083  0.3320
   47MOL   O38943721   5.910   5.273   6.681 -0.0064  0.3174 -0.2769
   47MOL   C39043722   5.856   5.272   6.812  0.5483  0.0740 -0.2003
   47MOL   O39143723   5.735   5.268   6.828  0.2207  0.1077 -0.1119
   47MOL   C39243724   5.956   5.262   6.916 -0.4518  0.1721 -0.2954
   47MOL   C39343725   6.094   5.260   6.886 -0.6278  0.4241 -0.9246
   47MOL   C39443726   6.180   5.265   6.994 -0.5421 -0.9791  0.8018
   47MOL   C39543727   6.132   5.271   7.125 -0.4262 -0.3386 -0.0130
   47MOL   C39643728   6.239   5.268   7.224  0.6515  0.0323  0.8531
   47MOL   O39743729   6.358   5.297   7.202  0.1236  0.3125 -0.6542
   47MOL   O39843730   6.191   5.229   7.346 -0.6943  0.1190  0.2564
   47MOL   C39943731   5.992   5.271   7.154 -0.0288  0.0285 -0.6340
   47MOL   C40043732   5.901   5.272   7.045  0.2251 -0.2200  0.4367
   47MOL   H40143733   5.509   5.039   6.031 -1.3023  0.9834  0.9131
   47MOL   H40243734   5.592   5.201   6.040  0.3777  0.9779 -0.4291
   47MOL   H40343735   5.340   5.229   6.096  2.5814  4.5854  1.3402
   47MOL   H40443736   5.299   5.178   5.933 -0.9704 -0.4509  2.3462
   47MOL   H40543737   5.451   5.371   5.860  0.9000  0.0806  0.9675
   47MOL   H40643738   5.282   5.380   5.890  0.1674  0.4114  0.4254
   47MOL   H40743739   5.331   5.503   6.110  0.0235  1.7119 -0.3447
   47MOL   H40843740   5.423   5.579   5.990  1.5806  0.4400  0.5094
   47MOL   H40943741   5.503   5.355   6.179 -0.6759 -0.3152 -1.2096
   47MOL   H41043742   5.606   5.420   6.069  0.4396  1.9475 -0.0164
   47MOL   H41143743   5.564   5.658   6.166  1.5945  1.5312  1.5718
   47MOL   H41243744   5.488   5.578   6.299  0.1972 -0.1253 -0.0206
   47MOL   H41343745   5.777   5.501   6.248 -0.9509 -0.7907 -0.2146
   47MOL   H41443746   5.741   5.627   6.360 -0.7844  0.6253 -0.8385
   47MOL   H41543747   5.600   5.443   6.481  1.3374  1.0562 -0.0180
   47MOL   H41643748   5.662   5.335   6.364 -0.4026 -1.6017  2.3666
   47MOL   H41743749   5.824   5.490   6.576  1.3166 -0.5031  0.6828
   47MOL   H41843750   5.907   5.403   6.449  0.6378 -0.9443  1.2320
   47MOL   H41943751   5.863   5.203   6.502 -2.4582 -1.8464  0.7348
   47MOL   H42043752   5.728   5.232   6.605 -0.5514  0.8655 -0.1672
   47MOL   H42143753   6.124   5.258   6.782  0.2862  0.9984 -0.6818
   47MOL   H42243754   6.286   5.261   6.973 -0.3268  1.1416  1.3661
   47MOL   H42343755   5.959   5.266   7.256  0.9540 -1.9875 -0.3968
   47MOL   H42443756   5.795   5.268   7.064  0.2707 -2.2361  0.4409
   47MOL   O42543757   6.294   5.224   7.460  0.5770  0.2679 -1.0543
   47MOL   C42643758   6.296   5.348   7.520  0.3523  0.0395 -0.2455
   47MOL   C42743759   6.160   5.403   7.581  0.0443  0.0045 -0.5782
   47MOL   C42843760   6.100   5.327   7.696 -0.4509 -0.1123  0.4237
   47MOL   C42943761   6.172   5.349   7.830 -0.5915  0.2404 -0.4715
   47MOL   C43043762   6.093   5.301   7.952 -0.0344 -0.2427  0.4715
   47MOL   C43143763   6.167   5.331   0.099 -0.0233 -0.1095 -0.5426
   47MOL   C43243764   6.108   5.284   0.227 -0.0265 -0.1759 -0.5068
   47MOL   C43343765   6.193   5.275   0.349  0.4281  1.0081 -0.5312
   47MOL   C43443766   6.100   5.229   0.468 -0.1677 -0.3711  0.0933
   47MOL   C43543767   6.188   5.230   0.595 -0.1608 -0.5861 -0.1900
   47MOL   O43643768   6.116   5.179   0.706  0.2534  0.0229 -0.3300
   47MOL   C43743769   6.167   5.148   0.831 -0.0583  0.0094 -0.9026
   47MOL   O43843770   6.282   5.173   0.862 -0.3449  0.6005  0.3612
   47MOL   C43943771   6.065   5.090   0.922  0.9065 -0.1985  0.7281
   47MOL   C44043772   5.955   5.013   0.872 -0.6056  0.1220 -0.0251
   47MOL   C44143773   5.859   4.954   0.958  0.1839  0.2546 -0.2160
   47MOL   C44243774   5.881   4.962   1.097 -0.0548 -0.9760  0.2175
   47MOL   C44343775   5.786   4.902   1.193  0.0682 -0.2970 -0.5664
   47MOL   O44443776   5.803   4.929   1.310  0.5238  0.1607 -0.4854
   47MOL   O44543777   5.681   4.821   1.142 -0.0848 -0.3007 -0.5173
   47MOL   C44643778   5.983   5.048   1.146 -0.3459  0.2582 -0.4613
   47MOL   C44743779   6.071   5.117   1.059  0.5010  0.9339 -0.5733
   47MOL   H44843780   6.374   5.343   7.596  0.8906  0.3421 -0.7707
   47MOL   H44943781   6.327   5.419   7.443  1.3204  0.7671  0.7947
   47MOL   H45043782   6.089   5.394   7.499 -1.0755 -3.0183  0.6316
   47MOL   H45143783   6.174   5.509   7.601  2.2267 -0.7017  1.9248
   47MOL   H45243784   5.995   5.357   7.708  0.3916  3.4860 -0.6921
   47MOL   H45343785   6.100   5.219   7.678 -2.0987 -0.2903  1.3127
   47MOL   H45443786   6.185   5.457   7.832 -0.8675  0.2651  0.0935
   47MOL   H45543787   6.272   5.310   7.812 -0.9393 -0.2916 -1.3187
   47MOL   H45643788   6.002   5.361   7.950 -1.7635 -2.8373 -1.0758
   47MOL   H45743789   6.059   5.198   7.954 -1.0831  0.0956  0.6217
   47MOL   H45843790   6.268   5.292   0.087 -0.5210 -1.3438 -0.7721
   47MOL   H45943791   6.188   5.438   0.109 -1.9735  0.3148 -0.6777
   47MOL   H46043792   6.021   5.347   0.246  1.3131  1.2640  1.0448
   47MOL   H46143793   6.056   5.189   0.215  0.4426 -0.5146  0.0869
   47MOL   H46243794   6.262   5.192   0.340  0.1099  0.4037  2.3060
   47MOL   H46343795   6.252   5.366   0.360  0.6484  1.1458 -2.6684
   47MOL   H46443796   6.046   5.135   0.455  0.4551 -0.3738 -2.9600
   47MOL   H46543797   6.022   5.305   0.478 -1.0956 -1.4398  1.0248
   47MOL   H46643798   6.221   5.332   0.618  0.5316 -1.0133  0.7476
   47MOL   H46743799   6.278   5.171   0.581  1.3656  1.6838 -0.1980
   47MOL   H46843800   5.937   4.989   0.768  0.1451  0.1309 -0.1648
   47MOL   H46943801   5.782   4.887   0.923  0.9864 -0.4248 -0.7044
   47MOL   H47043802   6.010   5.063   1.250 -1.2235 -1.0829 -0.0272
   47MOL   H47143803   6.152   5.173   1.103  1.5397 -3.0861  3.0587
   47MOL   O47243804   5.587   4.775   1.247 -0.6282 -0.2069  0.2000
   47MOL   C47343805   5.607   4.637   1.269 -0.0029  0.4144  0.3882
   47MOL   C47443806   5.504   4.612   1.383 -0.1504 -0.2596  0.5058
   47MOL   C47543807   5.493   4.467   1.433  0.0685  0.2417  0.0163
   47MOL   C47643808   5.582   4.441   1.548  0.5739  0.6234 -0.0361
   47MOL   C47743809   5.580   4.295   1.600  0.1135 -0.2682  0.0723
   47MOL   C47843810   5.654   4.289   1.730  0.6311 -0.1667 -0.0697
   47MOL   C47943811   5.801   4.326   1.714 -0.0668 -0.2459 -0.1249
   47MOL   C48043812   5.890   4.267   1.829  0.1205  0.4041 -0.0178
   47MOL   C48143813   6.020   4.339   1.856 -0.0020 -0.2366  0.2053
   47MOL   C48243814   6.011   4.447   1.962  1.0531 -0.6746 -0.4916
   47MOL   O48343815   6.141   4.513   1.968  0.3396 -0.4544 -0.0688
   47MOL   C48443816   6.226   4.477   2.060 -0.4357 -0.0818  0.1510
   47MOL   O48543817   6.209   4.376   2.131 -0.1208 -0.6257 -0.1274
   47MOL   C48643818   6.341   4.570   2.062 -0.1254 -0.2051  0.1685
   47MOL   C48743819   6.450   4.542   2.150 -0.6565 -0.1390  0.0332
   47MOL   C48843820   6.564   4.629   2.150  0.2043 -0.0443 -0.2283
   47MOL   C48943821   6.561   4.748   2.073  0.3104 -0.3268 -0.2162
   47MOL   C49043822   6.676   4.840   2.081  0.1279 -0.0045  0.0432
   47MOL   O49143823   6.753   4.841   2.177 -0.2516  0.1096  0.3969
   47MOL   O49243824   6.691   4.912   1.973  0.5441 -0.4036 -0.3664
   47MOL   C49343825   6.446   4.787   2.001  0.2410  0.4225 -1.0469
   47MOL   C49443826   6.344   4.686   1.984 -0.2224 -0.4261  0.3302
   47MOL   H49543827   5.591   4.585   1.174  0.2616 -1.1012  1.1620
   47MOL   H49643828   5.705   4.607   1.307 -0.6784  2.0440  3.5754
   47MOL   H49743829   5.411   4.660   1.352 -1.3967 -0.2330  4.1044
   47MOL   H49843830   5.523   4.679   1.466  1.8169  0.8807 -0.8275
   47MOL   H49943831   5.390   4.452   1.466  0.7451 -2.1764  1.1692
   47MOL   H50043832   5.505   4.402   1.346  0.3991 -2.6981  2.1651
   47MOL   H50143833   5.557   4.515   1.624 -2.0464 -0.1011 -0.1287
   47MOL   H50243834   5.682   4.468   1.514 -0.1373  2.6935 -0.5540
   47MOL   H50343835   5.479   4.258   1.618 -0.5681  1.6962  0.4359
   47MOL   H50443836   5.618   4.231   1.521 -0.4233 -0.7862  0.2276
   47MOL   H50543837   5.611   4.350   1.810 -0.0826 -0.0701 -0.5191
   47MOL   H50643838   5.654   4.187   1.765  1.9520 -0.5006 -0.9855
   47MOL   H50743839   5.837   4.294   1.616 -0.0654  0.7813 -0.4639
   47MOL   H50843840   5.800   4.434   1.720  1.1266 -0.2418  0.1413
   47MOL   H50943841   5.840   4.270   1.926  1.7188  0.1611  0.8199
   47MOL   H51043842   5.905   4.160   1.816 -1.4418 -0.2009  2.6801
   47MOL   H51143843   6.045   4.385   1.760 -0.0910 -3.5090 -1.4552
   47MOL   H51243844   6.099   4.266   1.875 -0.9992 -1.4014 -0.1037
   47MOL   H51343845   5.991   4.400   2.059  1.7902  0.7111  0.3442
   47MOL   H51443846   5.932   4.518   1.938  0.8391 -0.8296 -0.2565
   47MOL   H51543847   6.447   4.447   2.199 -0.1677 -1.1481 -1.8285
   47MOL   H51643848   6.656   4.599   2.198 -0.0293  0.9626  0.8779
   47MOL   H51743849   6.449   4.882   1.950  1.0213  2.5873  2.8676
   47MOL   H51843850   6.259   4.715   1.925  0.6804  1.6743  0.0213
   47MOL   O51943851   6.823   4.992   1.961  0.5016  0.0686 -0.4112
   47MOL   C52043852   6.798   5.129   1.964 -0.3506  0.4648  0.0460
   47MOL   C52143853   6.808   5.183   2.100  0.4300 -0.0056 -0.2752
   47MOL   C52243854   6.797   5.337   2.119 -0.2361  0.1176  0.2614
   47MOL   C52343855   6.738   5.366   2.262  0.1878  1.0376  0.4369
   47MOL   C52443856   6.730   5.514   2.293 -0.5910 -0.4508 -0.4760
   47MOL   C52543857   6.611   5.576   2.219 -0.0507 -0.1500  0.5545
   47MOL   C52643858   6.596   5.729   2.232 -0.1077 -0.6131 -0.2709
   47MOL   C52743859   6.480   5.798   2.148 -0.0879 -0.1140  0.1785
   47MOL   C52843860   6.481   5.952   2.147 -0.8590  0.2571  0.5789
   47MOL   C52943861   6.360   6.004   2.066 -0.2451 -0.6217  0.1538
   47MOL   O53043862   6.374   6.148   2.071 -0.1228 -0.0106 -0.3782
   47MOL   C53143863   6.277   6.220   2.015  0.4862  0.0515  0.0019
   47MOL   O53243864   6.185   6.166   1.949  0.3449  0.3244  0.0856
   47MOL   C53343865   6.298   6.373   2.035  0.3344  0.4184  0.6109
   47MOL   C53443866   6.235   6.469   1.943 -0.6160 -0.6052 -0.9193
   47MOL   C53543867   6.281   6.606   1.941  0.1834 -0.4819 -0.2709
   47MOL   C53643868   6.357   6.655   2.046 -0.3750  0.1104 -0.8448
   47MOL   C53743869   6.372   6.804   2.059 -0.2789  0.6805 -0.3642
   47MOL   O53843870   6.307   6.884   1.988  0.5240 -0.9281 -0.1728
   47MOL   O53943871   6.444   6.839   2.165 -0.3120  0.4244  0.2366
   47MOL   C54043872   6.404   6.569   2.146 -0.4763 -0.6245  0.6342
   47MOL   C54143873   6.377   6.427   2.141  0.8551 -1.1957  0.6159
   47MOL   H54243874   6.874   5.172   1.898 -2.7191  1.3661 -2.1709
   47MOL   H54343875   6.709   5.145   1.903 -0.4797 -0.6036 -0.0583
   47MOL   H54443876   6.896   5.140   2.149 -0.1124 -0.3112  0.4406
   47MOL   H54543877   6.725   5.130   2.148 -0.5909  0.5180 -1.4348
   47MOL   H54643878   6.884   5.400   2.097 -1.0407  1.2370  0.1987
   47MOL   H54743879   6.727   5.366   2.041 -0.5816 -0.6185  0.2987
   47MOL   H54843880   6.809   5.330   2.337  2.7624  1.3460 -1.7559
   47MOL   H54943881   6.641   5.319   2.272  1.4469 -1.3115  2.1301
   47MOL   H55043882   6.712   5.528   2.400  1.2100  1.7655 -0.4378
   47MOL   H55143883   6.821   5.573   2.283  0.2328 -1.4982  0.5837
   47MOL   H55243884   6.625   5.562   2.111  0.5926  1.2787  0.4437
   47MOL   H55343885   6.522   5.522   2.252 -0.3390 -0.2339 -0.3300
   47MOL   H55443886   6.576   5.757   2.335 -1.3433 -0.4782 -0.5407
   47MOL   H55543887   6.688   5.780   2.202 -1.1015  1.2993 -0.1580
   47MOL   H55643888   6.470   5.762   2.046  1.9987  0.1254 -0.1206
   47MOL   H55743889   6.381   5.768   2.184  0.1079 -0.4839  0.4072
   47MOL   H55843890   6.575   5.994   2.109 -1.0725  0.0516 -0.1966
   47MOL   H55943891   6.477   5.981   2.252 -2.5550  1.6526  0.1462
   47MOL   H56043892   6.268   5.979   2.117  0.6855 -0.7588  1.7929
   47MOL   H56143893   6.354   5.964   1.965 -0.8968 -1.6550  0.6026
   47MOL   H56243894   6.174   6.437   1.860 -0.0657 -1.2365 -1.0869
   47MOL   H56343895   6.247   6.672   1.862  1.6230  0.1810 -0.3395
   47MOL   H56443896   6.463   6.599   2.231  0.9227 -2.2003  0.2513
   47MOL   H56543897   6.416   6.366   2.221  1.9432  1.0016  1.8041
   47MOL   O56643898   6.469   6.991   2.167  0.1397 -0.2742 -0.2997
   47MOL   C56743899   6.584   7.020   2.089 -0.6562  0.7288 -0.7294
   47MOL   C56843900   6.656   7.147   2.141  0.0397 -1.1225 -0.1002
   47MOL   C56943901   6.780   7.179   2.062  0.5454 -0.0792  0.9918
   47MOL   C57043902   6.875   7.276   2.126  1.2034  0.7146 -0.1763
   47MOL   C57143903   6.924   7.228   2.258 -0.1418 -0.4689  0.4406
   47MOL   C57243904   7.038   7.317   2.322  0.6293  0.3258  0.2260
   47MOL   C57343905   7.067   7.279   2.469 -1.1510  0.5599 -0.9261
   47MOL   C57443906   7.175   7.170   2.476  1.1306 -0.2323 -0.3107
   47MOL   C57543907   7.207   7.144   2.626  0.8617 -0.4243  0.3350
   47MOL   C57643908   7.290   7.022   2.667  0.1366  0.0795 -0.0480
   47MOL   O57743909   7.188   6.917   2.679  0.0871  0.1750 -0.4307
   47MOL   C57843910   7.200   6.821   2.771  0.0488  0.5276  0.1795
   47MOL   O57943911   7.307   6.798   2.824 -0.2710 -0.2947 -0.0905
   47MOL   C58043912   7.071   6.752   2.805  0.1647  0.7946  1.3041
   47MOL   C58143913   6.950   6.782   2.747 -0.0078  0.4123  0.2321
   47MOL   C58243914   6.838   6.704   2.778 -0.0901  0.1388  0.0466
   47MOL   C58343915   6.840   6.598   2.871 -0.2410  0.1627  0.3386
   47MOL   C58443916   6.714   6.515   2.921 -0.1851 -0.1298 -0.0098
   47MOL   O58543917   6.715   6.438   3.016 -0.2769  0.4605  0.1880
   47MOL   O58643918   6.601   6.555   2.851 -0.1391  0.0210  0.4482
   47MOL   C58743919   6.964   6.559   2.926 -0.1847  0.0342  0.1199
   47MOL   C58843920   7.081   6.636   2.892  0.0810 -0.3485  0.6232
   47MOL   H58943921   6.655   6.937   2.089 -1.7562 -0.2824  3.3309
   47MOL   H59043922   6.545   7.019   1.987 -0.9862 -0.4517 -0.5984
   47MOL   H59143923   6.673   7.125   2.246  0.0256  1.8729  0.5712
   47MOL   H59243924   6.586   7.230   2.150  2.7574  1.1783  0.5294
   47MOL   H59343925   6.831   7.083   2.054 -1.4408 -0.9825 -1.5654
   47MOL   H59443926   6.750   7.199   1.959 -0.7279 -1.0320  1.1551
   47MOL   H59543927   6.829   7.374   2.131  0.6040  0.4316 -0.0430
   47MOL   H59643928   6.960   7.296   2.061  0.7219 -0.5888 -1.2508
   47MOL   H59743929   6.840   7.229   2.327  0.8754 -0.4974  1.7074
   47MOL   H59843930   6.955   7.124   2.253 -0.7313 -0.6536  0.6014
   47MOL   H59943931   7.125   7.309   2.256 -0.4600  1.2532 -1.3638
   47MOL   H60043932   7.005   7.420   2.315  0.4485  0.2575  0.0476
   47MOL   H60143933   7.100   7.371   2.518  2.8687 -0.7695 -0.9136
   47MOL   H60243934   6.973   7.253   2.518 -0.8979 -0.6883 -1.0791
   47MOL   H60343935   7.133   7.079   2.433 -1.0197  0.6865 -0.2428
   47MOL   H60443936   7.264   7.194   2.418  0.9463  2.8035  0.5733
   47MOL   H60543937   7.112   7.140   2.679 -0.7271 -1.1673 -2.4774
   47MOL   H60643938   7.250   7.235   2.669 -0.2930  0.2052  0.1752
   47MOL   H60743939   7.339   7.030   2.764  1.7062 -4.5072 -0.3769
   47MOL   H60843940   7.376   7.006   2.602  1.3663 -1.6802  1.9708
   47MOL   H60943941   6.937   6.860   2.673 -1.4373  0.3289  0.3896
   47MOL   H61043942   6.741   6.710   2.730 -0.3726 -0.3908  0.5459
   47MOL   H61143943   6.970   6.471   2.988 -0.6081 -1.2386 -1.6033
   47MOL   H61243944   7.173   6.588   2.920  0.2216  0.0052  0.7669
   47MOL   O61343945   6.476   6.481   2.882  0.4936 -0.1990  0.5495
   47MOL   C61443946   6.398   6.554   2.971  1.1751 -0.1248 -0.5090
   47MOL   C61543947   6.252   6.506   2.961  0.3963  0.5896 -0.2008
   47MOL   C61643948   6.155   6.595   3.056  0.3382  1.1607  0.1703
   47MOL   C61743949   6.166   6.573   3.207 -0.3893  0.0838 -0.4148
   47MOL   C61843950   6.120   6.433   3.234  0.9473  0.2536 -0.6787
   47MOL   C61943951   6.098   6.397   3.390 -0.0369  0.2487  0.4674
   47MOL   C62043952   5.974   6.463   3.452  0.1845  0.2488  0.0824
   47MOL   C62143953   5.953   6.413   3.594 -0.5121  0.5252  0.2494
   47MOL   C62243954   5.829   6.475   3.651  0.3261  0.1697 -0.0760
   47MOL   C62343955   5.814   6.457   3.801  1.2008 -0.8873  0.3331
   47MOL   O62443956   5.926   6.494   3.877  0.2581  0.5844 -0.2062
   47MOL   C62543957   5.934   6.610   3.953 -0.3843  0.6568  0.5540
   47MOL   O62643958   5.841   6.689   3.959  0.6874 -0.0146 -0.0092
   47MOL   C62743959   6.069   6.630   4.019 -0.6790 -0.4073 -0.0942
   47MOL   C62843960   6.160   6.520   4.038 -0.0361  0.2849  0.2923
   47MOL   C62943961   6.272   6.533   4.112 -0.5107 -0.1129 -0.4842
   47MOL   C63043962   6.305   6.653   4.173 -0.2918 -0.6641  0.6435
   47MOL   C63143963   6.421   6.667   4.257  0.0340  0.6096  0.3741
   47MOL   O63243964   6.489   6.571   4.301 -0.1320 -0.2208 -0.2372
   47MOL   O63343965   6.451   6.790   4.286  0.3687 -0.6320  0.1212
   47MOL   C63443966   6.212   6.761   4.164  0.0504 -0.5777  0.8660
   47MOL   C63543967   6.093   6.757   4.087  0.8828 -0.0176 -0.6800
   47MOL   H63643968   6.449   6.532   3.065  1.0196 -1.3397 -0.7051
   47MOL   H63743969   6.421   6.658   2.948  1.4483 -0.3958 -1.4938
   47MOL   H63843970   6.248   6.403   2.997  1.1605  0.7061  0.2341
   47MOL   H63943971   6.215   6.510   2.859  0.7771  1.8059 -0.2986
   47MOL   H64043972   6.194   6.695   3.035  1.3598  0.6921 -0.1878
   47MOL   H64143973   6.056   6.603   3.012  0.8235  2.1750 -0.7806
   47MOL   H64243974   6.105   6.650   3.254  2.6006  2.0174  0.4883
   47MOL   H64343975   6.268   6.589   3.243 -0.5083 -1.5719  0.7286
   47MOL   H64443976   6.025   6.417   3.182 -0.3630  0.5030  1.5391
   47MOL   H64543977   6.189   6.360   3.192 -0.0917 -0.1271 -1.7418
   47MOL   H64643978   6.084   6.290   3.399 -0.4207  0.3052  0.5367
   47MOL   H64743979   6.185   6.415   3.453  0.8200 -1.4178 -0.2149
   47MOL   H64843980   5.988   6.571   3.457 -0.0399  0.2848 -0.0903
   47MOL   H64943981   5.889   6.446   3.386 -0.9804 -2.2408  2.1223
   47MOL   H65043982   5.955   6.304   3.588  0.0583  0.5487 -0.0612
   47MOL   H65143983   6.037   6.435   3.660  0.6476 -0.4596 -0.8639
   47MOL   H65243984   5.752   6.413   3.604 -0.1570 -1.1131  2.2882
   47MOL   H65343985   5.817   6.583   3.640 -0.1045  0.2870  1.3736
   47MOL   H65443986   5.795   6.354   3.831  0.7584 -0.5546  1.2070
   47MOL   H65543987   5.735   6.522   3.838 -0.5648 -1.6984 -1.8691
   47MOL   H65643988   6.133   6.424   3.996  1.7394  0.5440 -1.5134
   47MOL   H65743989   6.344   6.454   4.126 -0.2870 -0.1897 -1.9659
   47MOL   H65843990   6.232   6.850   4.223 -0.7367  0.0784  0.1537
   47MOL   H65943991   6.015   6.832   4.088  0.0883 -0.7834  2.2800
   47MOL   O66043992   6.555   6.801   4.391  0.4619 -0.6225 -0.2885
   47MOL   C66143993   6.665   6.872   4.331  0.2866  0.2034 -0.3796
   47MOL   C66243994   6.779   6.882   4.433  0.6808 -0.4072  0.6314
   47MOL   C66343995   6.847   6.753   4.478 -0.0363  0.2496  0.3834
   47MOL   C66443996   6.978   6.760   4.562 -0.2810 -0.3788 -0.0367
   47MOL   C66543997   7.100   6.794   4.480 -1.0489  0.1921  0.0882
   47MOL   C66643998   7.212   6.838   4.570 -0.4573 -0.2672  0.2797
   47MOL   C66743999   7.272   6.724   4.649  0.0952  0.2808 -0.4214
   47MOL   C66844000   7.394   6.760   4.726 -0.2669 -0.1484  0.3427
   47MOL   C66944001   7.423   6.657   4.831  0.7262  0.3525  0.0530
   47MOL   C67044002   7.526   6.687   4.936  0.2996 -0.3936  0.5836
   47MOL   O67144003   7.465   6.758   5.042  0.0526  0.1271  0.2331
   47MOL   C67244004   7.539   6.780   5.153 -0.6505  0.0023  0.0632
   47MOL   O67344005   7.655   6.738   5.173 -0.5964 -0.2639 -0.0951
   47MOL   C67444006   7.466   6.865   5.248  0.0258  0.6421  0.3038
   47MOL   C67544007   7.329   6.902   5.233 -0.0777  0.4109 -0.7730
   47MOL   C67644008   7.269   6.977   5.337  0.4595 -0.1347 -0.0590
   47MOL   C67744009   7.338   7.013   5.452  0.4493 -0.2434  0.3541
   47MOL   C67844010   7.265   7.102   5.549  0.0867  0.4894  0.2740
   47MOL   O67944011   7.144   7.113   5.549  0.2236  0.2165 -0.1679
   47MOL   O68044012   7.353   7.167   5.626  0.0606  0.1914  0.0529
   47MOL   C68144013   7.473   6.971   5.463 -0.3183 -0.4767  0.1708
   47MOL   C68244014   7.542   6.907   5.357  0.4862 -0.2457  0.0259
   47MOL   H68344015   6.694   6.815   4.243 -0.7575 -1.1178  0.0958
   47MOL   H68444016   6.641   6.971   4.293 -1.5843  0.3171  1.0248
   47MOL   H68544017   6.739   6.930   4.522  0.9364 -0.5361  0.8163
   47MOL   H68644018   6.847   6.957   4.393 -1.6501  1.8604  0.7950
   47MOL   H68744019   6.783   6.688   4.538 -0.8065 -1.6706 -2.4549
   47MOL   H68844020   6.871   6.698   4.387 -1.2865 -1.2285  0.9315
   47MOL   H68944021   6.993   6.661   4.605  1.2748 -0.0399  0.2482
   47MOL   H69044022   6.974   6.829   4.646  3.0635  0.9011 -0.8271
   47MOL   H69144023   7.128   6.703   4.427  1.3017  0.5289  0.6699
   47MOL   H69244024   7.075   6.869   4.404  0.9596  0.7063 -0.0979
   47MOL   H69344025   7.295   6.877   4.510 -0.5484 -1.0696 -0.3841
   47MOL   H69444026   7.174   6.920   4.629 -1.4810 -1.1931  0.9242
   47MOL   H69544027   7.189   6.697   4.714  0.5442 -0.8227 -0.2823
   47MOL   H69644028   7.300   6.642   4.583  0.2206  0.5148 -0.6604
   47MOL   H69744029   7.474   6.778   4.654 -1.1171 -0.3490 -0.6655
   47MOL   H69844030   7.378   6.861   4.765  1.7654 -0.3878  1.8767
   47MOL   H69944031   7.459   6.571   4.773  2.4466  0.6596  0.6572
   47MOL   H70044032   7.330   6.622   4.877 -0.2401 -1.0549 -2.8103
   47MOL   H70144033   7.603   6.757   4.902 -1.5764  1.4398 -0.0043
   47MOL   H70244034   7.577   6.598   4.972 -1.9195 -2.7670 -1.9302
   47MOL   H70344035   7.267   6.870   5.151 -1.3944  0.3902  0.2057
   47MOL   H70444036   7.169   7.018   5.327 -0.0515 -0.8583  1.9227
   47MOL   H70544037   7.520   6.990   5.558  1.1269  0.7236 -0.7667
   47MOL   H70644038   7.641   6.864   5.362  1.0345  0.8570 -1.0481
   47MOL   O70744039   7.284   7.247   5.726  0.2254 -0.2705  0.3027
   47MOL   C70844040   7.274   7.380   5.674 -0.3457 -0.1493  0.6506
   47MOL   C70944041   7.183   7.466   5.764 -0.2282 -0.0974 -0.3687
   47MOL   C71044042   7.200   7.619   5.741  0.7297 -0.6929 -0.2774
   47MOL   C71144043   7.132   7.666   5.613 -0.2862  0.4293  0.4961
   47MOL   C71244044   7.140   7.813   5.586  0.0541 -0.2704  0.4030
   47MOL   C71344045   7.093   7.843   5.442  0.0481 -0.6541  0.4630
   47MOL   C71444046   7.193   7.815   5.331 -0.5807  0.3066  0.5088
   47MOL   C71544047   7.138   7.815   5.187  0.0435 -0.2154  0.5635
   47MOL   C71644048   7.247   7.785   5.077  0.1772 -0.1658 -0.7254
   47MOL   C71744049   7.202   7.817   4.937  0.8468  0.4728  0.0129
   47MOL   O71844050   7.292   7.760   4.851  0.0433  0.5399 -0.1124
   47MOL   C71944051   7.276   7.787   4.718  0.8815  0.7257  0.3805
   47MOL   O72044052   7.184   7.851   4.675  0.1508 -0.4050  0.3994
   47MOL   C72144053   7.390   7.725   4.639  0.0632 -0.2283  1.0151
   47MOL   C72244054   7.476   7.634   4.693 -0.0905  0.6832 -0.6341
   47MOL   C72344055   7.595   7.603   4.618  0.3120 -0.4582 -0.4287
   47MOL   C72444056   7.616   7.644   4.484  0.0046 -0.2937  0.3679
   47MOL   C72544057   7.740   7.620   4.402 -0.2491 -0.2585 -0.1254
   47MOL   O72644058   7.773   7.692   4.306  0.9259  0.3585  0.0604
   47MOL   O72744059   7.795   7.511   4.442  0.2651  0.5135  0.2536
   47MOL   C72844060   7.516   7.727   4.430 -0.7205 -0.3998 -0.3846
   47MOL   C72944061   7.404   7.765   4.500  0.1680 -0.0478 -0.1154
   47MOL   H73044062   7.374   7.421   5.676 -0.1882 -0.5769  2.0317
   47MOL   H73144063   7.225   7.363   5.578  1.2229 -0.6893 -0.0689
   47MOL   H73244064   7.212   7.450   5.868 -0.5506 -2.9003 -0.6731
   47MOL   H73344065   7.084   7.425   5.747 -1.0107  2.5287 -2.5028
   47MOL   H73444066   7.146   7.673   5.819 -0.5472 -2.3054 -0.0027
   47MOL   H73544067   7.303   7.655   5.739  0.2156  0.7280 -2.1667
   47MOL   H73644068   7.026   7.644   5.604 -1.0826  3.4778  1.8741
   47MOL   H73744069   7.184   7.613   5.533 -0.5791  0.6582  0.1529
   47MOL   H73844070   7.104   7.864   5.675 -0.9188  0.9688 -0.6778
   47MOL   H73944071   7.243   7.848   5.587 -0.0704  0.1095  2.8803
   47MOL   H74044072   6.992   7.809   5.420 -0.1180  0.6551 -0.9335
   47MOL   H74144073   7.088   7.952   5.435  1.4890 -0.5900  0.2415
   47MOL   H74244074   7.276   7.884   5.342 -0.3136  0.1500 -0.5039
   47MOL   H74344075   7.240   7.717   5.342 -1.6119 -0.5657 -2.5433
   47MOL   H74444076   7.063   7.737   5.173  1.7211 -1.8470  0.4838
   47MOL   H74544077   7.093   7.913   5.173 -0.8021 -0.8515 -1.3179
   47MOL   H74644078   7.270   7.679   5.085 -1.7719 -0.6889 -1.8412
   47MOL   H74744079   7.328   7.857   5.090 -1.2396  1.2274  0.6401
   47MOL   H74844080   7.201   7.925   4.931 -0.4090  0.6690  2.8999
   47MOL   H74944081   7.100   7.784   4.915  0.1181  3.0856 -0.6135
   47MOL   H75044082   7.462   7.601   4.795  0.4879  0.2707 -0.6898
   47MOL   H75144083   7.666   7.537   4.666 -0.4745 -0.1810  1.1416
   47MOL   H75244084   7.525   7.763   4.329  1.1055  0.6926  0.1398
   47MOL   H75344085   7.331   7.833   4.459  0.0052  1.6160  2.7837
   47MOL   O75444086   7.892   7.456   4.341 -0.1743  0.4107 -0.2785
   47MOL   C75544087   7.829   7.333   4.284 -0.2256 -0.4252 -0.0739
   47MOL   C75644088   7.834   7.206   4.378  0.1948  0.4620 -0.2814
   47MOL   C75744089   7.747   7.216   4.504 -0.0348 -0.3071  0.3063
   47MOL   C75844090   7.743   7.089   4.585  0.1457 -0.1922  0.0672
   47MOL   C75944091   7.622   7.069   4.685  0.1332  0.9108  0.3891
   47MOL   C76044092   7.632   7.157   4.804 -0.2591  0.2339  0.4450
   47MOL   C76144093   7.498   7.151   4.885 -0.4336  0.5683  0.4102
   47MOL   C76244094   7.520   7.227   5.020 -0.5816 -0.3626  0.0350
   47MOL   C76344095   7.401   7.249   5.113  0.5440  0.1970 -0.0009
   47MOL   C76444096   7.430   7.331   5.237 -0.0748  0.1251  0.0453
   47MOL   O76544097   7.494   7.456   5.206 -0.3595 -0.6825  0.7633
   47MOL   C76644098   7.512   7.538   5.314  0.0838  0.0210  0.4328
   47MOL   O76744099   7.477   7.511   5.425 -0.3453  0.4006  0.4443
   47MOL   C76844100   7.592   7.656   5.281 -0.1762 -0.7883  0.0314
   47MOL   C76944101   7.615   7.689   5.139 -0.1791 -0.4207  0.3272
   47MOL   C77044102   7.695   7.803   5.108 -0.7492  0.2856  0.1962
   47MOL   C77144103   7.729   7.900   5.214 -0.6217 -0.1771  0.3619
   47MOL   C77244104   7.810   0.041   5.174  0.2202 -0.1796  0.7201
   47MOL   O77344105   7.840   0.131   5.258 -0.4265  0.3284  0.5830
   47MOL   O77444106   7.850   0.045   5.037 -0.2130  0.1864 -0.3625
   47MOL   C77544107   7.700   7.864   5.351 -0.5695 -0.5920 -0.1456
   47MOL   C77644108   7.630   7.745   5.386 -0.2935 -0.3786 -0.1083
   47MOL   H77744109   7.729   7.367   4.259  0.1188  1.8868  1.5935
   47MOL   H77844110   7.887   7.303   4.197 -0.1581 -2.9055  0.7862
   47MOL   H77944111   7.936   7.204   4.415 -0.4311 -0.2696  1.4514
   47MOL   H78044112   7.803   7.125   4.312  0.1485  1.9655 -2.1545
   47MOL   H78144113   7.797   7.289   4.568  1.0036 -0.4559 -0.3223
   47MOL   H78244114   7.645   7.248   4.482 -0.4844 -0.6306  1.8510
   47MOL   H78344115   7.835   7.086   4.644 -0.9035 -4.5589  1.6704
   47MOL   H78444116   7.760   7.004   4.519 -3.4772 -0.9828  0.0778
   47MOL   H78544117   7.530   7.076   4.627  0.2065 -3.4260 -0.4551
   47MOL   H78644118   7.611   6.964   4.715 -1.6883  0.8391 -0.4403
   47MOL   H78744119   7.720   7.135   4.864 -0.7929 -0.9396  0.8158
   47MOL   H78844120   7.651   7.262   4.780  0.2894  0.0276 -0.0312
   47MOL   H78944121   7.421   7.192   4.820  1.7201  1.8987 -1.3712
   47MOL   H79044122   7.479   7.048   4.914  0.7545  0.3820  0.5770
   47MOL   H79144123   7.592   7.168   5.077 -0.4501 -0.3709 -0.1396
   47MOL   H79244124   7.562   7.327   5.004  1.5148 -0.8964  1.9439
   47MOL   H79344125   7.368   7.152   5.150  0.7186  0.7456  1.6250
   47MOL   H79444126   7.321   7.301   5.061  1.4791 -0.6491 -2.3299
   47MOL   H79544127   7.501   7.270   5.294 -0.1369  0.0015 -0.0111
   47MOL   H79644128   7.345   7.345   5.303 -0.2556  1.6346 -0.4751
   47MOL   H79744129   7.577   7.619   5.067 -0.1889 -1.5032  1.3596
   47MOL   H79844130   7.714   7.823   5.004 -0.0862 -1.3355 -0.0167
   47MOL   H79944131   7.721   7.930   5.433 -1.3564 -1.2936  0.6237
   47MOL   H80044132   7.602   7.719   5.487 -2.0349  0.8036 -0.2782
   47MOL   O80144133   7.936   0.166   4.998 -0.4728 -0.1228  0.5023
   47MOL   C80244134   0.091   0.112   5.005  1.1694  0.3972  0.0781
   47MOL   C80344135   0.199   0.217   4.973 -0.6667  0.0901 -0.2769
   47MOL   C80444136   0.209   0.251   4.827  0.0701 -0.4796  0.6540
   47MOL   C80544137   0.308   0.367   4.806  0.0708  0.2001 -0.1251
   47MOL   C80644138   0.296   0.391   4.654 -0.7881 -0.4577  0.5836
   47MOL   C80744139   0.391   0.506   4.612 -0.0253 -0.3872  0.2497
   47MOL   C80844140   0.402   0.536   4.462 -0.3243 -0.2469 -0.2189
   47MOL   C80944141   0.268   0.548   4.386  0.2935 -0.6957  0.6829
   47MOL   C81044142   0.173   0.660   4.436 -0.6115 -0.5124 -0.4038
   47MOL   C81144143   0.052   0.702   4.352 -0.6222 -0.2410  0.8849
   47MOL   O81244144   7.946   0.588   4.337  0.4304  0.0599  0.6261
   47MOL   C81344145   7.814   0.609   4.291  0.0322 -0.7458  0.9458
   47MOL   O81444146   7.762   0.721   4.271  0.7061  0.3211 -0.4297
   47MOL   C81544147   7.735   0.481   4.280  0.5754 -0.1558  0.1571
   47MOL   C81644148   7.795   0.358   4.320  0.0342 -0.2062 -0.0989
   47MOL   C81744149   7.728   0.238   4.296  0.3728  0.1232  0.1663
   47MOL   C81844150   7.601   0.233   4.243 -0.3077  0.8756  0.3879
   47MOL   C81944151   7.543   0.100   4.211 -0.0244 -0.0923 -0.3618
   47MOL   O82044152   7.563   0.005   4.289  0.1182  0.2339  0.5331
   47MOL   O82144153   7.472   0.092   4.098  0.6523 -0.2991  0.4211
   47MOL   C82244154   7.541   0.354   4.212  0.2324  0.1943 -0.3720
   47MOL   C82344155   7.602   0.479   4.236 -0.2990 -0.6436  0.5963
   47MOL   H82444156   0.107   0.071   5.105  0.1712 -0.3981 -0.0836
   47MOL   H82544157   0.098   0.025   4.940 -0.4093  0.8735 -0.7477
   47MOL   H82644158   0.298   0.198   5.015 -0.9163  1.4131  0.9617
   47MOL   H82744159   0.174   0.314   5.016 -0.2176 -0.0375  0.2786
   47MOL   H82844160   0.236   0.163   4.767 -0.1893 -0.7015  0.8608
   47MOL   H82944161   0.109   0.277   4.793  0.7476  0.3094 -0.7856
   47MOL   H83044162   0.408   0.331   4.830  0.5519  1.9606  0.5510
   47MOL   H83144163   0.288   0.460   4.859  1.6028  1.0981 -1.0861
   47MOL   H83244164   0.318   0.299   4.602 -0.8853  1.3489 -2.7999
   47MOL   H83344165   0.194   0.408   4.618 -0.4691  0.3816  0.0656
   47MOL   H83444166   0.380   0.603   4.660 -1.2318 -0.9654  1.1501
   47MOL   H83544167   0.491   0.477   4.647 -0.1996 -0.6078  0.5640
   47MOL   H83644168   0.468   0.621   4.447  1.8940 -1.9854 -0.6095
   47MOL   H83744169   0.460   0.451   4.425 -0.6481  0.4776 -2.4391
   47MOL   H83844170   0.301   0.554   4.282  2.5238 -1.3851  1.3140
   47MOL   H83944171   0.214   0.454   4.395  1.6204 -1.5898 -0.4278
   47MOL   H84044172   0.237   0.748   4.441 -0.8964 -0.4186  2.3052
   47MOL   H84144173   0.148   0.638   4.540  2.3188  0.8142  0.6235
   47MOL   H84244174   0.079   0.744   4.256 -1.3883  1.1160  1.2385
   47MOL   H84344175   7.970   0.779   4.401 -1.8886 -0.4230 -0.3598
   47MOL   H84444176   7.898   0.357   4.354 -0.7250 -1.2019  2.2684
   47MOL   H84544177   7.777   0.144   4.315 -0.2483 -0.3315 -0.4468
   47MOL   H84644178   7.438   0.360   4.180  0.2866  0.7888 -0.4432
   47MOL   H84744179   7.556   0.575   4.220 -0.1051 -0.7741 -0.8908
   47MOL   O84844180   7.438   7.927   4.058 -0.2641 -0.1085 -0.2923
   47MOL   C84944181   7.322   7.894   4.130 -0.3156  0.1632 -0.7433
   47MOL   C85044182   7.207   7.915   4.041  0.0225 -0.2061  0.2168
   47MOL   C85144183   7.067   7.864   4.090  0.4109  0.5422  0.3883
   47MOL   C85244184   6.945   7.893   4.002 -0.1362 -0.5147 -0.3842
   47MOL   C85344185   6.823   7.827   4.075 -0.3956 -0.1580 -0.0852
   47MOL   C85444186   6.690   7.836   3.997 -0.2631  0.5331 -0.0025
   47MOL   C85544187   6.588   7.735   4.041 -0.5880 -0.3096 -0.5373
   47MOL   C85644188   6.523   7.782   4.170  0.3995  0.2164 -0.3051
   47MOL   C85744189   6.414   7.694   4.208  0.0212  0.6977 -0.4758
   47MOL   C85844190   6.365   7.726   4.350  0.4448 -0.0893  0.0116
   47MOL   O85944191   6.243   7.663   4.383 -0.3290  0.4145 -0.8298
   47MOL   C86044192   6.186   7.683   4.499  0.7977 -0.0236 -0.4366
   47MOL   O86144193   6.233   7.751   4.590 -0.0779  0.8351 -0.0089
   47MOL   C86244194   6.051   7.618   4.511 -0.7458  0.1338  0.5765
   47MOL   C86344195   6.013   7.520   4.415  0.4640 -0.0146  0.1326
   47MOL   C86444196   5.887   7.449   4.434  0.5365  1.0071  0.7013
   47MOL   C86544197   5.800   7.488   4.537 -0.4542  0.1025  0.1984
   47MOL   C86644198   5.662   7.432   4.555 -0.3389  1.0127 -0.4070
   47MOL   O86744199   5.582   7.475   4.638  0.3759 -0.2936  0.0210
   47MOL   O86844200   5.637   7.309   4.483  0.0570  0.6208  0.6017
   47MOL   C86944201   5.839   7.586   4.630  0.1593  0.1843 -0.1667
   47MOL   C87044202   5.960   7.655   4.616  0.2369 -0.1957  0.3403
   47MOL   H87144203   7.332   7.790   4.161 -1.5233 -0.5513 -2.6329
   47MOL   H87244204   7.310   7.950   4.222 -0.1785  0.3029 -0.8093
   47MOL   H87344205   7.232   7.860   3.950  0.2332  1.0453 -0.4802
   47MOL   H87444206   7.194   0.045   4.038 -1.4713 -0.3128  1.9886
   47MOL   H87544207   7.087   7.757   4.093  2.5765  0.8907 -0.5269
   47MOL   H87644208   7.045   7.881   4.195 -0.7424  0.4629  0.1680
   47MOL   H87744209   6.973   7.851   3.905  0.5110 -1.4676  0.2058
   47MOL   H87844210   6.929   0.021   3.987 -1.1601 -0.7692 -1.0878
   47MOL   H87944211   6.847   7.726   4.107  0.0002  0.6457  2.2742
   47MOL   H88044212   6.809   7.886   4.165 -0.4006 -2.0965  1.2159
   47MOL   H88144213   6.655   7.938   4.009 -2.0380 -0.2582  1.8880
   47MOL   H88244214   6.708   7.810   3.893 -2.9049  1.3491 -0.6909
   47MOL   H88344215   6.514   7.727   3.962 -0.8527 -0.0364 -0.3171
   47MOL   H88444216   6.652   7.647   4.051  2.4246  1.9436  1.0174
   47MOL   H88544217   6.598   7.791   4.249  0.1377 -0.0030 -0.0318
   47MOL   H88644218   6.480   7.881   4.156 -2.4642 -1.0427 -0.5830
   47MOL   H88744219   6.446   7.589   4.205 -1.6845  0.1498 -0.4134
   47MOL   H88844220   6.328   7.703   4.141 -1.6978  1.0193  1.7174
   47MOL   H88944221   6.341   7.832   4.346  0.8184 -0.0301 -1.0365
   47MOL   H89044222   6.440   7.716   4.428 -0.2553 -0.2905  0.6659
   47MOL   H89144223   6.082   7.489   4.338  2.4792  1.1419  1.4329
   47MOL   H89244224   5.852   7.383   4.356 -1.2418 -0.2314  2.5001
   47MOL   H89344225   5.773   7.610   4.713  0.3035 -1.6194  0.4907
   47MOL   H89444226   5.998   7.737   4.675 -3.4156  2.2396 -0.5445
   47MOL   O89544227   5.492   7.268   4.493 -0.9973 -0.1763  0.2533
   47MOL   C89644228   5.503   7.141   4.557  0.4283 -0.2380  0.2265
   47MOL   C89744229   5.370   7.063   4.548  0.0873 -0.5492 -0.3158
   47MOL   C89844230   5.312   7.052   4.400  0.0184  0.0257 -0.2320
   47MOL   C89944231   5.188   6.964   4.388 -0.8485 -0.3552  0.5552
   47MOL   C90044232   5.181   6.896   4.252  0.0166  0.2429  0.2937
   47MOL   C90144233   5.133   6.982   4.138  0.0371  0.3711  0.0411
   47MOL   C90244234   5.149   6.914   4.002 -0.2208  0.1590  0.1680
   47MOL   C90344235   5.117   7.009   3.885 -0.2276 -0.0779 -0.4346
   47MOL   C90444236   5.177   6.951   3.755 -0.2452 -0.7920 -0.8724
   47MOL   C90544237   5.117   7.025   3.632 -0.1972  0.7957  0.8409
   47MOL   O90644238   5.185   6.999   3.515  0.2010  0.0446 -0.5514
   47MOL   C90744239   5.127   6.910   3.426 -0.3119 -0.0042 -0.5278
   47MOL   O90844240   5.025   6.843   3.452 -0.3167  0.3203 -0.0077
   47MOL   C90944241   5.200   6.906   3.296  0.0693 -0.1455  0.5396
   47MOL   C91044242   5.318   6.982   3.277 -0.3522  0.3305  0.5308
   47MOL   C91144243   5.380   6.972   3.154  0.2649 -0.5225 -0.9167
   47MOL   C91244244   5.331   6.896   3.042 -0.1069  0.1188  0.1710
   47MOL   C91344245   5.402   6.899   2.909  0.4930  0.4372  0.2528
   47MOL   O91444246   5.491   6.974   2.883  0.3225  0.1893 -0.2683
   47MOL   O91544247   5.358   6.810   2.817  0.2242  0.4458  0.5671
   47MOL   C91644248   5.214   6.822   3.062 -0.2967 -0.8895  0.1527
   47MOL   C91744249   5.146   6.828   3.189 -0.0976  0.3482  0.0226
   47MOL   H91844250   5.573   7.068   4.515  0.3505 -0.3508  0.2933
   47MOL   H91944251   5.518   7.146   4.665 -0.1054 -1.6986  0.3743
   47MOL   H92044252   5.300   7.120   4.609 -0.3534 -0.9653 -0.4307
   47MOL   H92144253   5.382   6.965   4.593 -0.7945 -0.4836  0.0636
   47MOL   H92244254   5.309   7.155   4.364  0.2806 -0.6228 -2.1782
   47MOL   H92344255   5.393   7.005   4.343 -0.6251 -1.8422  0.3744
   47MOL   H92444256   5.098   7.024   4.405 -0.6136 -0.0029  0.5579
   47MOL   H92544257   5.190   6.889   4.467  4.2803 -0.7494  0.2231
   47MOL   H92644258   5.283   6.872   4.222  0.5208  3.8152 -1.0990
   47MOL   H92744259   5.124   6.803   4.260 -3.2365  2.1796  0.4534
   47MOL   H92844260   5.026   6.996   4.149 -0.3798 -1.4297 -1.3242
   47MOL   H92944261   5.172   7.084   4.141  0.2625  0.3494 -1.5122
   47MOL   H93044262   5.252   6.883   3.981 -1.2793 -2.2613 -1.6068
   47MOL   H93144263   5.089   6.824   3.991 -0.5997  0.5798 -1.2436
   47MOL   H93244264   5.009   7.007   3.871 -0.5188  3.3350  0.6718
   47MOL   H93344265   5.152   7.110   3.907 -2.8157  1.0584 -1.4068
   47MOL   H93444266   5.178   6.842   3.757  2.0866 -0.8054 -1.4920
   47MOL   H93544267   5.279   6.986   3.761 -1.0353  1.2915  0.9998
   47MOL   H93644268   5.126   7.133   3.648  0.4558  1.0909 -1.3407
   47MOL   H93744269   5.008   7.022   3.642 -0.0941 -1.5093  1.6633
   47MOL   H93844270   5.358   7.044   3.356  2.0167  0.1639 -0.5048
   47MOL   H93944271   5.475   7.022   3.148  1.6042 -2.6228  1.7662
   47MOL   H94044272   5.166   6.764   2.985 -0.2765  0.6408 -1.0268
   47MOL   H94144273   5.061   6.765   3.207 -2.1262  3.4697  1.7110
   47MOL   H94244274   5.396   6.827   2.732 -0.7154 -0.7517 -0.0992
   48MOL     O144275   5.433   2.076   5.635  0.0819  0.1964 -0.8302
   48MOL     C244276   5.501   2.153   5.726  0.2443 -0.2181 -0.7562
   48MOL     C344277   5.638   2.095   5.772 -0.2301 -0.8006  0.1353
   48MOL     C444278   5.688   2.165   5.902 -0.0339 -0.2423 -1.2106
   48MOL     C544279   5.807   2.081   5.956  0.1947  0.2530 -0.0173
   48MOL     C644280   5.838   2.110   6.099 -0.0926 -0.5693  0.2249
   48MOL     C744281   5.958   2.026   6.147 -0.0640 -0.3812  0.6706
   48MOL     C844282   5.979   2.056   6.292 -0.4793 -0.0533  0.6092
   48MOL     C944283   6.098   1.980   6.343  0.4709  0.0837 -0.2132
   48MOL    C1044284   6.135   2.019   6.484  0.2178 -0.0737  0.1538
   48MOL    C1144285   6.263   1.946   6.532 -1.0430  0.3319  0.3674
   48MOL    O1244286   6.385   2.012   6.494  0.3135 -1.0824  0.6174
   48MOL    C1344287   6.474   1.936   6.415 -0.1712 -0.2819 -1.0091
   48MOL    O1444288   6.458   1.816   6.396 -0.2236  0.4041  0.4606
   48MOL    C1544289   6.590   2.015   6.361 -0.6289  0.4832 -0.0168
   48MOL    C1644290   6.697   1.963   6.280 -0.5353  0.9539  0.0726
   48MOL    C1744291   6.812   2.039   6.246 -0.5514  0.2877  0.2548
   48MOL    C1844292   6.824   2.175   6.295  0.0102  0.4538  0.1178
   48MOL    C1944293   6.957   2.247   6.275 -0.5043 -0.8186  1.0431
   48MOL    O2044294   7.059   2.191   6.222  1.0118  0.3903 -0.0676
   48MOL    O2144295   6.964   2.379   6.320  0.0925  0.1710  0.5628
   48MOL    C2244296   6.719   2.223   6.379  0.3465 -0.5060 -0.1201
   48MOL    C2344297   6.605   2.152   6.403  0.4110 -0.4948 -0.5452
   48MOL    H2444298   5.505   2.256   5.690  0.4717 -0.6197 -1.9017
   48MOL    H2544299   5.424   2.167   5.802  0.8902 -0.9088  0.0289
   48MOL    H2644300   5.712   2.102   5.692  0.5854 -0.0086  0.9454
   48MOL    H2744301   5.645   1.988   5.791  1.2224 -0.8943 -0.8290
   48MOL    H2844302   5.732   2.263   5.886  1.6113 -0.9943 -1.3471
   48MOL    H2944303   5.610   2.157   5.978  2.2604  1.1120  1.3939
   48MOL    H3044304   5.893   2.086   5.889 -0.6135 -0.6418 -1.1416
   48MOL    H3144305   5.772   1.977   5.955  0.2446  0.1750  2.7099
   48MOL    H3244306   5.858   2.217   6.106 -2.2871 -0.0296 -1.1991
   48MOL    H3344307   5.747   2.095   6.158  0.0857 -0.4205  0.5396
   48MOL    H3444308   5.936   1.921   6.131  0.8104 -0.7019  1.5577
   48MOL    H3544309   6.041   2.061   6.085 -1.1646  1.4341  0.1848
   48MOL    H3644310   5.987   2.164   6.307  0.2480 -0.0088 -0.0867
   48MOL    H3744311   5.894   2.024   6.353 -0.8476 -3.0148 -1.3406
   48MOL    H3844312   6.075   1.874   6.333 -0.7024  0.2519  0.5595
   48MOL    H3944313   6.183   1.992   6.277  1.0351 -1.3301  0.2380
   48MOL    H4044314   6.052   1.995   6.550 -0.2885 -1.3020 -0.9055
   48MOL    H4144315   6.135   2.127   6.495 -0.9002 -0.0281 -0.3264
   48MOL    H4244316   6.261   1.840   6.503  0.0518 -0.5094  3.2261
   48MOL    H4344317   6.260   1.939   6.640  1.3509 -1.5461  0.3486
   48MOL    H4444318   6.682   1.862   6.245 -1.2152  1.1426 -0.1734
   48MOL    H4544319   6.888   1.989   6.189 -1.1178  0.7243 -0.8954
   48MOL    H4644320   6.719   2.322   6.420  0.1939 -1.0855  1.2902
   48MOL    H4744321   6.524   2.200   6.456  0.9300  0.6351 -0.7639
   48MOL    H4844322   5.348   2.112   5.618 -0.8976 -1.6106  0.0380
   48MOL    O4944323   7.097   2.450   6.293  0.3729  0.1923 -0.3286
   48MOL    C5044324   7.169   2.468   6.413 -0.5632 -1.0208 -0.7686
   48MOL    C5144325   7.285   2.570   6.395  0.4631  0.4823 -0.0332
   48MOL    C5244326   7.367   2.589   6.521 -0.3302  1.2265 -0.3727
   48MOL    C5344327   7.497   2.663   6.481 -0.4004 -0.1998  0.9007
   48MOL    C5444328   7.604   2.666   6.587 -0.0050  0.5544 -0.2615
   48MOL    C5544329   7.711   2.772   6.566 -0.5663  0.6874  0.0596
   48MOL    C5644330   7.660   2.914   6.576  0.1064 -0.5483  0.7223
   48MOL    C5744331   7.785   3.008   6.574 -0.3117  0.3632 -0.0500
   48MOL    C5844332   7.752   3.157   6.565  0.7353 -0.2768  0.3839
   48MOL    C5944333   7.748   3.215   6.422  0.6168  0.0655  0.1015
   48MOL    O6044334   7.653   3.144   6.346 -0.3521 -0.0473  0.1948
   48MOL    C6144335   7.704   3.056   6.257  0.0161  1.0703  0.0935
   48MOL    O6244336   7.822   3.044   6.233  0.0024  0.0319  0.0370
   48MOL    C6344337   7.599   2.962   6.205 -0.7878  0.6227 -0.2271
   48MOL    C6444338   7.646   2.837   6.168 -0.2350 -0.6094  0.2902
   48MOL    C6544339   7.555   2.736   6.126 -0.4833  0.4688 -0.2454
   48MOL    C6644340   7.417   2.764   6.112 -0.9464 -0.3035 -0.1867
   48MOL    C6744341   7.323   2.664   6.048  0.3324  0.3868  0.1406
   48MOL    O6844342   7.201   2.676   6.031  0.1039  0.4766  0.2338
   48MOL    O6944343   7.389   2.558   6.015  0.0003  0.4569 -0.2098
   48MOL    C7044344   7.377   2.891   6.158 -0.3599  0.4580  0.1012
   48MOL    C7144345   7.464   2.992   6.204 -0.6749  0.4475 -0.4680
   48MOL    H7244346   7.101   2.493   6.495 -0.0817 -0.9498 -0.3850
   48MOL    H7344347   7.204   2.366   6.429  1.5048 -0.1464  0.4710
   48MOL    H7444348   7.266   2.668   6.352  0.6919  1.1563  1.3731
   48MOL    H7544349   7.343   2.533   6.310 -0.1184  1.9613 -1.0861
   48MOL    H7644350   7.321   2.652   6.597  2.4794  0.9399  1.6346
   48MOL    H7744351   7.404   2.495   6.561 -0.7705  0.7125 -1.1587
   48MOL    H7844352   7.464   2.762   6.447  1.8959  0.1372 -0.4405
   48MOL    H7944353   7.541   2.620   6.391  1.0695 -1.7769  2.3416
   48MOL    H8044354   7.562   2.681   6.687  0.4960 -1.4838  0.2784
   48MOL    H8144355   7.640   2.563   6.584 -2.1365 -0.2440  0.1102
   48MOL    H8244356   7.784   2.753   6.645  0.5109 -0.8704 -1.2665
   48MOL    H8344357   7.761   2.748   6.473 -1.0557 -0.8908  0.1710
   48MOL    H8444358   7.585   2.937   6.501 -2.1909  3.0575  3.9736
   48MOL    H8544359   7.609   2.912   6.672  0.6203 -2.3554  0.9833
   48MOL    H8644360   7.837   2.991   6.668 -0.1452  0.8198 -0.0582
   48MOL    H8744361   7.852   2.980   6.493 -1.4570 -2.5651 -0.0567
   48MOL    H8844362   7.816   3.225   6.622  0.3611 -1.1771  1.9140
   48MOL    H8944363   7.657   3.173   6.616  0.0855  1.3408 -1.2813
   48MOL    H9044364   7.848   3.227   6.379 -0.6566  2.9076 -2.1573
   48MOL    H9144365   7.715   3.316   6.444  0.6128 -0.5290  3.0571
   48MOL    H9244366   7.751   2.815   6.165  0.1096  1.0596 -0.4413
   48MOL    H9344367   7.599   2.643   6.095  0.8487  0.8433  0.5196
   48MOL    H9444368   7.271   2.912   6.165 -0.2277  0.5104  2.1432
   48MOL    H9544369   7.427   3.088   6.234 -2.1419 -0.3846  0.4076
   48MOL    O9644370   7.305   2.451   5.936 -0.4940 -0.2229  0.1254
   48MOL    C9744371   7.294   2.331   6.017 -0.1318 -0.0424  0.5663
   48MOL    C9844372   7.437   2.275   6.041 -0.0569 -0.2640  0.3477
   48MOL    C9944373   7.447   2.167   6.153 -0.2887 -0.2838 -0.1953
   48MOL   C10044374   7.404   2.220   6.286  0.4086 -0.2684 -0.3888
   48MOL   C10144375   7.436   2.129   6.401 -0.8400 -0.4834 -0.0991
   48MOL   C10244376   7.376   1.989   6.399 -0.3074 -0.0509 -0.2333
   48MOL   C10344377   7.227   1.979   6.444 -0.2410 -0.4097  0.4605
   48MOL   C10444378   7.173   1.838   6.432 -0.1635 -0.7423  0.9746
   48MOL   C10544379   7.034   1.834   6.485 -0.5587 -0.0150 -0.5954
   48MOL   C10644380   6.988   1.688   6.476  0.4783 -0.2855  0.2817
   48MOL   O10744381   6.969   1.646   6.342  0.1191 -0.2799  0.1925
   48MOL   C10844382   6.976   1.519   6.314 -0.0411  0.5156  0.3243
   48MOL   O10944383   6.988   1.431   6.399  0.2996  0.4260  0.6122
   48MOL   C11044384   6.968   1.489   6.170 -0.0982  0.4201  0.4559
   48MOL   C11144385   6.987   1.353   6.130 -0.3140  0.6243  0.6399
   48MOL   C11244386   7.002   1.328   5.992 -0.3393 -0.0406 -0.3515
   48MOL   C11344387   6.995   1.435   5.898  0.5970 -0.1755 -0.0389
   48MOL   C11444388   6.999   1.396   5.756  0.6243  1.2353  0.7842
   48MOL   O11544389   7.036   1.281   5.720 -0.0972 -0.2571  0.2614
   48MOL   O11644390   6.981   1.502   5.673 -0.2646  0.2240  0.2510
   48MOL   C11744391   6.958   1.562   5.944  0.1436 -0.4736  0.3890
   48MOL   C11844392   6.958   1.595   6.076  0.2274  0.1816  0.0290
   48MOL   H11944393   7.245   2.366   6.107  0.6949  2.8822 -0.0709
   48MOL   H12044394   7.214   2.268   5.978  0.7605  0.7194 -2.6646
   48MOL   H12144395   7.508   2.354   6.063  0.4474 -0.5951 -0.1084
   48MOL   H12244396   7.476   2.231   5.950 -0.8276 -1.5331  0.6190
   48MOL   H12344397   7.395   2.072   6.138  0.6162 -0.8992  0.5070
   48MOL   H12444398   7.550   2.133   6.164 -0.2414 -0.8808 -2.2254
   48MOL   H12544399   7.297   2.239   6.288  0.8905  2.8384 -1.6621
   48MOL   H12644400   7.443   2.322   6.292  2.3891 -1.0620  0.4883
   48MOL   H12744401   7.543   2.131   6.418 -0.9062 -0.3715  0.3272
   48MOL   H12844402   7.398   2.173   6.494  1.3019 -1.1219  1.1022
   48MOL   H12944403   7.399   1.943   6.303 -0.5293 -0.5284 -0.0538
   48MOL   H13044404   7.436   1.926   6.465  0.5147 -0.1985 -1.1224
   48MOL   H13144405   7.209   2.018   6.544  2.9250  1.1894  0.4591
   48MOL   H13244406   7.165   2.042   6.380  2.4195  2.3785  0.5291
   48MOL   H13344407   7.164   1.798   6.331 -1.0047  3.1255 -0.5719
   48MOL   H13444408   7.230   1.766   6.491  2.2654 -0.8268 -1.3922
   48MOL   H13544409   6.964   1.901   6.436 -0.3893  1.0967  0.6522
   48MOL   H13644410   7.056   1.859   6.589  1.7956 -1.3037 -0.7243
   48MOL   H13744411   6.908   1.666   6.545  2.7849 -1.8915  2.5472
   48MOL   H13844412   7.073   1.629   6.511  1.8701  2.3986  1.5519
   48MOL   H13944413   6.990   1.275   6.204 -1.6798 -0.1806 -0.1436
   48MOL   H14044414   7.012   1.224   5.966 -2.3183 -0.2798 -0.2724
   48MOL   H14144415   6.950   1.644   5.875 -2.0504 -0.0087  1.1472
   48MOL   H14244416   6.940   1.697   6.106 -2.1408 -0.8602  2.3601
   48MOL   O14344417   7.010   1.473   5.528 -0.1762  0.4243 -0.1898
   48MOL   C14444418   7.144   1.506   5.498  0.0828  0.3806  0.5726
   48MOL   C14544419   7.157   1.654   5.469 -0.8780  0.6831 -0.3244
   48MOL   C14644420   7.067   1.704   5.358 -0.1842 -0.3449 -0.4756
   48MOL   C14744421   7.087   1.853   5.318  0.0995  0.3361  0.0692
   48MOL   C14844422   6.985   1.909   5.227 -0.1707 -0.6987 -0.0122
   48MOL   C14944423   6.965   1.828   5.103 -0.3742  0.1672  0.4012
   48MOL   C15044424   7.079   1.814   5.003 -0.6135  0.3545 -0.2243
   48MOL   C15144425   7.041   1.729   4.873  0.6537 -0.2354 -0.6595
   48MOL   C15244426   7.156   1.701   4.769  0.4040  0.2137 -0.1678
   48MOL   C15344427   7.115   1.604   4.658 -0.2044 -0.2514  0.5057
   48MOL   O15444428   6.977   1.623   4.618  0.3854 -0.3878 -0.2166
   48MOL   C15544429   6.896   1.517   4.579 -0.0915  0.0919 -0.6470
   48MOL   O15644430   6.929   1.401   4.588  0.4653  0.1961  0.0872
   48MOL   C15744431   6.763   1.558   4.535  0.2277  0.3389 -0.1216
   48MOL   C15844432   6.656   1.468   4.542  0.7916 -0.2762 -0.0033
   48MOL   C15944433   6.532   1.502   4.488 -0.0931 -0.2397 -0.7399
   48MOL   C16044434   6.506   1.630   4.437 -0.6154  0.0092 -0.1978
   48MOL   C16144435   6.369   1.664   4.391  0.4815  0.3912  0.6613
   48MOL   O16244436   6.279   1.587   4.387  0.3585  0.4866 -0.0784
   48MOL   O16344437   6.359   1.792   4.344 -0.2067 -0.0989  0.3571
   48MOL   C16444438   6.613   1.718   4.424  0.7221  0.1401 -0.9678
   48MOL   C16544439   6.743   1.681   4.470 -0.2712 -0.0280  0.4474
   48MOL   H16644440   7.214   1.486   5.580  0.2436  0.9201  0.5688
   48MOL   H16744441   7.186   1.453   5.413 -1.0624  0.0878  0.1830
   48MOL   H16844442   7.261   1.677   5.446 -0.7033 -0.7525 -1.0044
   48MOL   H16944443   7.138   1.715   5.558  1.2820  1.7768 -0.5961
   48MOL   H17044444   7.096   1.628   5.286 -2.7082 -0.3730 -1.4932
   48MOL   H17144445   6.960   1.691   5.376 -0.0391 -0.7378  0.1325
   48MOL   H17244446   7.182   1.868   5.266  0.4101 -0.2189  0.4693
   48MOL   H17344447   7.086   1.919   5.404  0.4119 -0.8793  1.0273
   48MOL   H17444448   6.891   1.912   5.283  0.3502 -1.0506  0.9024
   48MOL   H17544449   7.009   2.009   5.193 -0.0698  0.4071  3.1174
   48MOL   H17644450   6.932   1.726   5.124 -2.2442  0.7266  0.3043
   48MOL   H17744451   6.880   1.872   5.050 -0.8623 -0.0668  0.9723
   48MOL   H17844452   7.128   1.910   4.983  0.3033 -0.0403  0.1238
   48MOL   H17944453   7.164   1.760   5.045 -2.1888 -1.5456  0.5537
   48MOL   H18044454   6.990   1.638   4.904  0.3971  0.6893  1.7830
   48MOL   H18144455   6.974   1.791   4.812 -0.5199 -1.4121 -0.5923
   48MOL   H18244456   7.241   1.654   4.818 -0.4123 -1.3861 -0.2549
   48MOL   H18344457   7.186   1.797   4.725  3.6327 -0.0346  1.3627
   48MOL   H18444458   7.128   1.503   4.695  0.9212  0.3074  1.6797
   48MOL   H18544459   7.181   1.615   4.572  0.0733 -0.2396  0.7220
   48MOL   H18644460   6.671   1.372   4.589  0.6576  0.2536  1.1500
   48MOL   H18744461   6.449   1.435   4.505 -0.1544  0.4375  1.8047
   48MOL   H18844462   6.601   1.818   4.385 -0.4751  0.7090  0.7674
   48MOL   H18944463   6.823   1.753   4.464 -1.4232  1.1447 -1.5529
   48MOL   O19044464   6.220   1.845   4.323  0.4651  0.3533 -0.2596
   48MOL   C19144465   6.180   1.821   4.189 -0.8403  0.2554  0.2433
   48MOL   C19244466   6.057   1.911   4.161  0.5103 -0.3940 -0.0012
   48MOL   C19344467   5.935   1.868   4.244 -0.6379 -0.3694  0.3249
   48MOL   C19444468   5.919   1.940   4.378 -0.3760  0.0213 -0.2208
   48MOL   C19544469   5.838   2.074   4.352 -0.7300  0.6040  0.6370
   48MOL   C19644470   5.852   2.179   4.455 -0.5897 -0.0514  0.6835
   48MOL   C19744471   5.782   2.312   4.431  0.8250 -0.2230  0.7666
   48MOL   C19844472   5.856   2.402   4.335  0.8590 -0.0657 -0.0447
   48MOL   C19944473   5.816   2.543   4.345 -0.0672  0.2126 -0.1042
   48MOL   C20044474   5.913   2.628   4.260 -0.5045 -0.1008  0.1037
   48MOL   O20144475   5.887   2.767   4.294  0.2686 -0.3042  0.6007
   48MOL   C20244476   5.819   2.845   4.205 -0.6240  0.2572  0.7596
   48MOL   O20344477   5.770   2.803   4.104  0.3364  0.3893  0.6106
   48MOL   C20444478   5.799   2.985   4.249 -0.3383  0.2218 -0.2496
   48MOL   C20544479   5.778   3.081   4.151  0.2801 -0.2550 -0.2622
   48MOL   C20644480   5.744   3.212   4.182 -0.5000 -0.0340 -0.9134
   48MOL   C20744481   5.718   3.247   4.321 -0.2535 -0.4482  0.0258
   48MOL   C20844482   5.679   3.387   4.354  0.9671  0.0871 -0.7060
   48MOL   O20944483   5.652   3.422   4.468 -0.2616  0.0987  0.2085
   48MOL   O21044484   5.681   3.467   4.247  0.7653  0.1401  0.4966
   48MOL   C21144485   5.737   3.152   4.423 -0.6343  0.4640  0.0557
   48MOL   C21244486   5.775   3.023   4.385  0.9092 -0.4273  0.2318
   48MOL   H21344487   6.259   1.863   4.127 -2.8534  0.7463 -2.0381
   48MOL   H21444488   6.183   1.722   4.145  0.6061 -0.0931  1.0668
   48MOL   H21544489   6.040   1.909   4.054 -2.5616  1.7376  0.3706
   48MOL   H21644490   6.087   2.014   4.183 -1.1185  0.1999 -0.4427
   48MOL   H21744491   5.839   1.870   4.191 -1.4235  3.2449  1.7332
   48MOL   H21844492   5.950   1.767   4.281 -0.1635  0.4261  2.3423
   48MOL   H21944493   6.021   1.956   4.414 -0.6328  1.9537 -0.3235
   48MOL   H22044494   5.866   1.885   4.456  0.0147 -0.6617 -0.4368
   48MOL   H22144495   5.847   2.108   4.249  0.9038 -2.3571 -0.2695
   48MOL   H22244496   5.733   2.043   4.351 -0.4869 -0.2573  0.9939
   48MOL   H22344497   5.811   2.131   4.544 -0.7977  0.0946  0.6671
   48MOL   H22444498   5.958   2.193   4.475 -0.0332 -3.5467  0.4963
   48MOL   H22544499   5.678   2.304   4.399  1.0546  1.2914 -0.3916
   48MOL   H22644500   5.775   2.367   4.525 -0.2291  0.1250  0.4871
   48MOL   H22744501   5.963   2.394   4.356  1.1896 -0.6424 -1.9155
   48MOL   H22844502   5.839   2.355   4.239 -1.5949  0.1251  0.2619
   48MOL   H22944503   5.812   2.567   4.451  0.2301 -1.1992  0.2425
   48MOL   H23044504   5.719   2.563   4.300  0.9178  2.6226 -1.2049
   48MOL   H23144505   5.891   2.602   4.157 -1.5328  1.9096 -0.2117
   48MOL   H23244506   6.012   2.595   4.292 -0.9166 -1.2520  0.2170
   48MOL   H23344507   5.771   3.048   4.048 -1.8895  1.5732 -0.7273
   48MOL   H23444508   5.741   3.292   4.109 -0.5545 -0.5150 -1.4367
   48MOL   H23544509   5.709   3.175   4.525 -2.1668 -2.0866  0.2478
   48MOL   H23644510   5.782   2.941   4.455 -4.4639 -1.0019  0.3398
   48MOL   O23744511   5.612   3.600   4.274 -0.2489  0.1803  0.8541
   48MOL   C23844512   5.715   3.692   4.309  0.5040  0.0109  0.3027
   48MOL   C23944513   5.650   3.827   4.340  0.3735  0.3094 -0.0144
   48MOL   C24044514   5.740   3.936   4.378  0.8680  0.2008 -0.1589
   48MOL   C24144515   5.841   4.002   4.275  0.5544  0.0637 -0.5605
   48MOL   C24244516   5.916   4.122   4.342 -0.0427 -1.2788  0.2892
   48MOL   C24344517   6.044   4.166   4.266  0.2565  0.4225  0.4243
   48MOL   C24444518   6.091   4.299   4.323 -0.1342 -0.3487  0.4452
   48MOL   C24544519   6.205   4.362   4.235 -0.4834 -0.0245  0.0908
   48MOL   C24644520   6.278   4.483   4.298 -0.2901 -0.7399 -0.0050
   48MOL   C24744521   6.383   4.546   4.206  0.4311  0.1729 -0.3201
   48MOL   O24844522   6.448   4.455   4.115  0.8070  0.5232 -0.2990
   48MOL   C24944523   6.529   4.505   4.027 -0.1363 -0.1412  0.0084
   48MOL   O25044524   6.569   4.622   4.024 -0.2489  0.1600 -0.2352
   48MOL   C25144525   6.575   4.394   3.944  0.2120 -0.2951 -0.8367
   48MOL   C25244526   6.539   4.259   3.976  0.3652 -0.2118  0.6310
   48MOL   C25344527   6.572   4.157   3.890  0.6638  0.1428 -0.0646
   48MOL   C25444528   6.656   4.185   3.777 -0.2944 -0.1940 -0.1714
   48MOL   C25544529   6.701   4.076   3.683  0.0110 -0.2874  0.1621
   48MOL   O25644530   6.748   4.103   3.574 -0.1348  0.0573  0.3497
   48MOL   O25744531   6.673   3.955   3.732 -0.4251 -0.0655 -0.3273
   48MOL   C25844532   6.699   4.321   3.749 -0.0398 -0.3384  0.6868
   48MOL   C25944533   6.649   4.426   3.824 -0.3419 -0.1036 -0.5034
   48MOL   H26044534   5.766   3.656   4.398 -1.4770 -2.0875  0.6184
   48MOL   H26144535   5.791   3.694   4.231  0.0595  1.0350 -0.1264
   48MOL   H26244536   5.583   3.811   4.424  0.6208 -2.5124 -0.3206
   48MOL   H26344537   5.599   3.850   4.246 -0.8529 -2.6397 -0.1130
   48MOL   H26444538   5.685   4.011   4.435  0.8296 -0.5855  0.8725
   48MOL   H26544539   5.801   3.888   4.455  0.8534 -0.7428 -0.7289
   48MOL   H26644540   5.774   4.034   4.195 -2.3697 -2.4272  0.7748
   48MOL   H26744541   5.907   3.923   4.239  0.9228  0.7444 -1.3906
   48MOL   H26844542   5.848   4.203   4.367  2.9620  0.5658  3.0034
   48MOL   H26944543   5.939   4.080   4.440  2.5665  2.3569  1.3410
   48MOL   H27044544   6.117   4.089   4.290  1.3332  1.5727  0.9113
   48MOL   H27144545   6.011   4.181   4.163  2.3243 -0.0681 -0.3269
   48MOL   H27244546   6.009   4.369   4.308 -2.5983 -3.0847  0.7719
   48MOL   H27344547   6.133   4.302   4.424 -1.4290 -0.8642  1.0117
   48MOL   H27444548   6.280   4.284   4.225  0.5784  1.1228 -1.1510
   48MOL   H27544549   6.175   4.394   4.135  2.2483 -0.0431 -0.7632
   48MOL   H27644550   6.336   4.452   4.385  0.1659  2.5062  0.8972
   48MOL   H27744551   6.213   4.569   4.312 -0.9286 -1.0927 -0.7464
   48MOL   H27844552   6.448   4.602   4.272 -2.5014  2.1355  1.0236
   48MOL   H27944553   6.328   4.626   4.156 -1.4289 -0.1634  1.1117
   48MOL   H28044554   6.487   4.225   4.065  1.4126 -0.8551  0.9939
   48MOL   H28144555   6.545   4.053   3.902  0.8244  0.1083 -0.0112
   48MOL   H28244556   6.769   4.337   3.668  0.9044  2.5351  2.0113
   48MOL   H28344557   6.665   4.528   3.794 -0.0115  0.2697  0.9018
   48MOL   O28444558   6.657   3.845   3.627  0.0596 -0.2324 -0.5138
   48MOL   C28544559   6.772   3.772   3.586  0.1890  0.7285  0.6001
   48MOL   C28644560   6.735   3.653   3.492 -0.3716 -0.3748 -0.3879
   48MOL   C28744561   6.849   3.550   3.476 -0.4077 -0.8295  0.7553
   48MOL   C28844562   6.786   3.417   3.435 -0.3681 -0.2837  0.1896
   48MOL   C28944563   6.887   3.304   3.452 -0.0354  0.5880 -1.1478
   48MOL   C29044564   6.830   3.175   3.406  0.2064  1.2764 -0.3888
   48MOL   C29144565   6.924   3.050   3.436 -0.1090 -0.4430  0.1649
   48MOL   C29244566   6.882   2.916   3.370  0.6910 -0.6747 -0.0384
   48MOL   C29344567   6.953   2.796   3.433 -0.7070 -0.0609  0.9380
   48MOL   C29444568   6.884   2.666   3.400  0.3827 -0.4962  0.5743
   48MOL   O29544569   6.849   2.654   3.260 -0.3656  0.6692 -0.2785
   48MOL   C29644570   6.945   2.602   3.181 -0.3961 -0.0815  0.5368
   48MOL   O29744571   7.064   2.571   3.210 -0.0168 -0.7480  0.3879
   48MOL   C29844572   6.899   2.584   3.037 -0.2996  0.2059  0.3524
   48MOL   C29944573   6.959   2.497   2.941 -0.0470  0.3570  0.2836
   48MOL   C30044574   6.912   2.478   2.806 -0.7157  0.6532  0.3349
   48MOL   C30144575   6.797   2.551   2.763 -0.0485  0.2363 -0.9402
   48MOL   C30244576   6.763   2.560   2.621  0.4219 -0.2587  0.2192
   48MOL   O30344577   6.831   2.505   2.538 -0.3479 -0.0721 -0.2153
   48MOL   O30444578   6.648   2.628   2.589 -0.4341 -0.1277  0.3149
   48MOL   C30544579   6.729   2.626   2.857 -0.2054 -0.5133 -0.1780
   48MOL   C30644580   6.780   2.641   2.987 -0.0498  0.0041 -0.0108
   48MOL   H30744581   6.842   3.837   3.533  2.7891 -1.4772  1.1808
   48MOL   H30844582   6.812   3.726   3.677  0.9715  1.6513  0.7297
   48MOL   H30944583   6.707   3.688   3.392 -1.3888  1.4995  0.5272
   48MOL   H31044584   6.647   3.604   3.534  0.2861 -0.9121  0.3745
   48MOL   H31144585   6.914   3.577   3.393  0.1912 -0.2112  1.4195
   48MOL   H31244586   6.899   3.555   3.573  0.9595  0.9372 -0.0347
   48MOL   H31344587   6.756   3.410   3.330  2.3135  0.5992 -0.6704
   48MOL   H31444588   6.694   3.407   3.493  0.2414  2.6647  1.7604
   48MOL   H31544589   6.980   3.325   3.398  1.0313 -0.4835  0.2400
   48MOL   H31644590   6.905   3.288   3.558 -1.1470  1.1246 -0.8751
   48MOL   H31744591   6.729   3.161   3.443  0.8764  2.6209  2.0668
   48MOL   H31844592   6.816   3.178   3.298 -0.5960  1.9491 -0.2696
   48MOL   H31944593   7.029   3.074   3.420 -0.6216  0.7348 -1.4990
   48MOL   H32044594   6.918   3.021   3.541 -1.5155  1.0060  0.4932
   48MOL   H32144595   6.773   2.916   3.378  0.6586 -2.2136 -0.4720
   48MOL   H32244596   6.904   2.915   3.264  3.5470  0.3100  0.5195
   48MOL   H32344597   6.963   2.802   3.541  1.7962  3.7930  0.6280
   48MOL   H32444598   7.058   2.791   3.406 -1.8832 -1.2904 -3.9216
   48MOL   H32544599   6.785   2.666   3.444 -0.3034 -0.1069 -0.9236
   48MOL   H32644600   6.923   2.572   3.440  0.8513 -0.0644  1.1329
   48MOL   H32744601   7.048   2.445   2.974 -0.1148 -1.2480 -2.0057
   48MOL   H32844602   6.960   2.431   2.722 -0.1453  2.6209 -0.4758
   48MOL   H32944603   6.634   2.675   2.838  0.3554  1.7912  2.6280
   48MOL   H33044604   6.724   2.711   3.047 -0.8905 -0.5398 -0.1652
   48MOL   O33144605   6.609   2.642   2.444  0.2798 -0.0371 -0.2158
   48MOL   C33244606   6.480   2.587   2.430 -0.0121  0.3303  0.8119
   48MOL   C33344607   6.404   2.658   2.316 -0.7751  0.1077  0.2981
   48MOL   C33444608   6.454   2.636   2.173 -0.0034 -0.3396 -0.5567
   48MOL   C33544609   6.380   2.727   2.075  0.2461  0.1612 -0.0448
   48MOL   C33644610   6.401   2.679   1.927  0.3649  0.0329  0.1708
   48MOL   C33744611   6.309   2.756   1.830 -0.1648 -0.1518 -0.8473
   48MOL   C33844612   6.309   2.687   1.689 -0.3114 -0.2450  0.4968
   48MOL   C33944613   6.241   2.759   1.569  0.5792  0.4251 -0.8371
   48MOL   C34044614   6.088   2.757   1.581 -0.7818 -0.0284 -0.3768
   48MOL   C34144615   6.009   2.875   1.522 -0.0170  0.7917 -0.5890
   48MOL   O34244616   5.871   2.854   1.563 -0.3947 -0.2558 -0.3917
   48MOL   C34344617   5.797   2.965   1.560 -0.3286  0.2491  0.5089
   48MOL   O34444618   5.838   3.075   1.516 -0.2097 -0.3867 -0.2845
   48MOL   C34544619   5.655   2.935   1.603 -0.2341  0.0838  0.2532
   48MOL   C34644620   5.628   2.812   1.664 -0.0169  0.7635  0.0341
   48MOL   C34744621   5.495   2.764   1.682  0.4382  0.6984 -0.3373
   48MOL   C34844622   5.384   2.848   1.648 -0.0060  0.2710 -0.2659
   48MOL   C34944623   5.253   2.794   1.656  0.3917  0.3329 -0.6093
   48MOL   O35044624   5.234   2.679   1.694 -0.0619 -0.3315 -0.1162
   48MOL   O35144625   5.152   2.880   1.635 -0.8323  0.2162 -0.0931
   48MOL   C35244626   5.412   2.973   1.584 -0.6278  0.1071  0.2605
   48MOL   C35344627   5.549   3.012   1.558  0.1613  0.1046 -0.3846
   48MOL   H35444628   6.476   2.479   2.432  0.9237  0.2342 -1.0172
   48MOL   H35544629   6.428   2.618   2.521 -0.3566  0.9113  0.4244
   48MOL   H35644630   6.407   2.763   2.344  1.6418  0.8034 -2.2707
   48MOL   H35744631   6.297   2.636   2.320 -1.3137  1.8109 -2.7996
   48MOL   H35844632   6.560   2.659   2.160  0.4013 -1.5806  0.4527
   48MOL   H35944633   6.454   2.530   2.146 -0.7563 -0.4087 -0.2764
   48MOL   H36044634   6.420   2.828   2.079 -0.1533  0.3860 -1.3645
   48MOL   H36144635   6.274   2.729   2.097 -0.8812 -2.6397 -4.5264
   48MOL   H36244636   6.503   2.685   1.890 -0.8543  2.2971 -3.0205
   48MOL   H36344637   6.377   2.572   1.927  3.0457 -0.6472 -3.2321
   48MOL   H36444638   6.206   2.766   1.863 -0.2134  0.4033 -1.1761
   48MOL   H36544639   6.353   2.855   1.821  3.6124 -1.7085 -0.3941
   48MOL   H36644640   6.406   2.648   1.658 -0.7003 -2.0865  1.4974
   48MOL   H36744641   6.248   2.598   1.701 -0.1918 -0.4161 -0.1541
   48MOL   H36844642   6.279   2.859   1.548 -2.5170  1.2542 -2.7354
   48MOL   H36944643   6.285   2.705   1.485 -0.0634  0.8506 -1.4573
   48MOL   H37044644   6.074   2.760   1.689  0.2724  1.5865 -0.2740
   48MOL   H37144645   6.054   2.666   1.532  0.9275 -1.3912  0.9190
   48MOL   H37244646   6.019   2.868   1.413  0.3170 -1.4679 -0.4521
   48MOL   H37344647   6.054   2.969   1.552  1.0193  0.1729 -0.1848
   48MOL   H37444648   5.699   2.740   1.702 -0.7650  0.4544  0.8606
   48MOL   H37544649   5.489   2.667   1.728 -1.2999  0.1816 -1.6174
   48MOL   H37644650   5.332   3.030   1.540  0.9632  1.3065 -1.1496
   48MOL   H37744651   5.576   3.098   1.498  1.5080 -1.1366 -1.5905
   48MOL   O37844652   5.015   2.820   1.644  0.3347 -0.0393  0.5439
   48MOL   C37944653   4.961   2.799   1.519 -0.3072  0.1688 -0.0238
   48MOL   C38044654   4.927   2.937   1.454  0.5185  0.2692  0.0866
   48MOL   C38144655   4.884   2.925   1.307 -0.1489 -0.0175  0.3914
   48MOL   C38244656   4.809   3.050   1.256 -0.1323 -0.3335 -0.7576
   48MOL   C38344657   4.744   3.021   1.119  1.5148  0.8139 -0.0898
   48MOL   C38444658   4.632   3.114   1.083  0.0308 -0.2388 -0.3292
   48MOL   C38544659   4.590   3.083   0.941 -0.0184 -0.2787  0.0694
   48MOL   C38644660   4.467   3.169   0.919 -0.4070  0.0379  0.0719
   48MOL   C38744661   4.430   3.183   0.767  0.4765 -0.5808  0.0227
   48MOL   C38844662   4.362   3.052   0.719 -0.2189  0.6946  0.8418
   48MOL   O38944663   4.448   2.937   0.718 -0.0383 -0.3125 -0.1030
   48MOL   C39044664   4.408   2.820   0.674 -0.5183 -0.3184  1.1735
   48MOL   O39144665   4.305   2.810   0.605  0.3840 -0.2619  0.4919
   48MOL   C39244666   4.483   2.700   0.724  0.1004 -0.0285 -0.4663
   48MOL   C39344667   4.415   2.578   0.731  0.1880 -0.1231  0.3470
   48MOL   C39444668   4.480   2.463   0.768  0.0716  0.0073 -0.6135
   48MOL   C39544669   4.618   2.468   0.794  0.0917 -0.4177 -0.0495
   48MOL   C39644670   4.683   2.347   0.843  0.3242  0.6837  0.1314
   48MOL   O39744671   4.622   2.261   0.904  0.0695 -0.0849 -1.0450
   48MOL   O39844672   4.815   2.334   0.812 -0.0321  0.1871 -0.1778
   48MOL   C39944673   4.694   2.587   0.782 -0.1738 -0.0767  0.2633
   48MOL   C40044674   4.624   2.706   0.750  0.2081 -0.5714 -0.0998
   48MOL   H40144675   5.031   2.746   1.454 -0.5778 -0.4313  0.1695
   48MOL   H40244676   4.886   2.721   1.533  0.6628 -1.0760 -1.6107
   48MOL   H40344677   5.015   3.001   1.448  0.0400  0.7583 -2.3093
   48MOL   H40444678   4.843   2.979   1.509 -0.2211 -1.1166  0.0555
   48MOL   H40544679   4.964   2.898   1.237 -1.3039  1.3648 -1.5064
   48MOL   H40644680   4.810   2.844   1.302 -1.5895  1.1660  2.0329
   48MOL   H40744681   4.877   3.135   1.251  1.4830 -1.3254  2.6315
   48MOL   H40844682   4.740   3.081   1.335 -2.6345 -1.3524 -2.4718
   48MOL   H40944683   4.821   3.029   1.043  2.8669  0.3109  1.2038
   48MOL   H41044684   4.724   2.915   1.106 -0.1723  1.3570 -2.3614
   48MOL   H41144685   4.553   3.096   1.156 -1.0185 -0.9931 -1.6310
   48MOL   H41244686   4.667   3.216   1.093  0.9142 -0.6534  1.0036
   48MOL   H41344687   4.664   3.097   0.862 -0.7039  0.2967 -0.4762
   48MOL   H41444688   4.551   2.981   0.936  1.2505 -0.6722 -3.0607
   48MOL   H41544689   4.380   3.129   0.971  1.1107 -1.6280  1.3895
   48MOL   H41644690   4.485   3.268   0.961 -0.3789 -1.5923  4.1043
   48MOL   H41744691   4.512   3.202   0.697 -0.5275 -1.3714 -1.3900
   48MOL   H41844692   4.361   3.267   0.754 -0.5875 -1.1182  2.0002
   48MOL   H41944693   4.332   3.072   0.617 -1.2288  0.2878  1.0590
   48MOL   H42044694   4.270   3.033   0.773 -1.4020 -0.7774 -1.6516
   48MOL   H42144695   4.309   2.568   0.713  0.2613 -0.8836  0.3223
   48MOL   H42244696   4.431   2.367   0.769  2.6016 -1.3434  1.1437
   48MOL   H42344697   4.800   2.585   0.805 -0.3950  0.9693  1.4446
   48MOL   H42444698   4.675   2.800   0.765  2.0334 -1.1697 -2.3316
   48MOL   O42544699   4.878   2.204   0.850  0.1457  0.3416 -0.0655
   48MOL   C42644700   4.970   2.229   0.951 -0.2931  0.7870 -0.0590
   48MOL   C42744701   5.035   2.102   1.015 -0.9275  0.0587 -0.5447
   48MOL   C42844702   5.145   2.031   0.929 -0.4571 -0.1569  0.0011
   48MOL   C42944703   5.099   1.970   0.796  0.3860 -0.3643  0.6898
   48MOL   C43044704   5.210   1.893   0.716 -0.4789 -0.2950  0.4651
   48MOL   C43144705   5.151   1.830   0.586  0.4357 -0.6582 -0.8192
   48MOL   C43244706   5.084   1.928   0.499  0.0603  0.2897  0.6836
   48MOL   C43344707   5.175   2.034   0.436  0.5634  0.0396 -0.1062
   48MOL   C43444708   5.115   2.134   0.332 -0.0544  0.4692 -0.4524
   48MOL   C43544709   4.999   2.216   0.394  0.3187  0.3875  0.4191
   48MOL   O43644710   4.953   2.311   0.297 -0.4418 -0.0025  0.2963
   48MOL   C43744711   4.866   2.271   0.200  0.7056 -0.7003 -0.0147
   48MOL   O43844712   4.801   2.166   0.210 -0.3011 -0.1746  0.5205
   48MOL   C43944713   4.860   2.361   0.081 -0.2461 -0.7025 -0.1279
   48MOL   C44044714   4.754   2.346   7.968  0.5081 -0.0031 -0.0365
   48MOL   C44144715   4.741   2.425   7.853  0.3800 -0.4193  0.3262
   48MOL   C44244716   4.837   2.529   7.826 -0.0373  0.1822 -0.4259
   48MOL   C44344717   4.837   2.623   7.707 -0.2327  0.2950  0.4825
   48MOL   O44444718   4.916   2.710   7.690 -0.3975  0.4990 -0.0878
   48MOL   O44544719   4.733   2.599   7.629 -0.1024  0.2951 -0.3474
   48MOL   C44644720   4.939   2.540   7.918 -0.1274 -0.0628 -0.0917
   48MOL   C44744721   4.956   2.457   0.053 -0.0760  0.1785 -0.1376
   48MOL   H44844722   5.038   2.307   0.917 -0.4682  0.1215 -2.0388
   48MOL   H44944723   4.927   2.280   1.037 -0.8657 -2.3620  1.5769
   48MOL   H45044724   4.951   2.038   1.038 -0.0998 -0.4562  1.1118
   48MOL   H45144725   5.067   2.136   1.113 -1.6008 -1.6931  0.2919
   48MOL   H45244726   5.228   2.098   0.906 -0.1042 -1.1673 -1.7677
   48MOL   H45344727   5.194   1.958   0.994  1.3501  0.6381 -0.4288
   48MOL   H45444728   5.056   2.055   0.742  1.6944 -0.6266 -0.8026
   48MOL   H45544729   5.016   1.907   0.826  0.0375 -0.1875  0.1101
   48MOL   H45644730   5.288   1.966   0.693  0.6489 -1.0705  1.7835
   48MOL   H45744731   5.254   1.815   0.778  0.6536 -0.2560 -0.2602
   48MOL   H45844732   5.237   1.790   0.532  0.7389  1.8804 -2.2907
   48MOL   H45944733   5.088   1.743   0.605 -0.3329  0.0427 -0.1248
   48MOL   H46044734   5.030   1.880   0.417 -1.1297  0.4939  1.3298
   48MOL   H46144735   5.013   1.998   0.544 -0.4594  0.8486 -0.9729
   48MOL   H46244736   5.228   2.094   0.510 -0.2945  0.7215 -0.0228
   48MOL   H46344737   5.254   1.979   0.386  1.6427  0.9547  0.5757
   48MOL   H46444738   5.088   2.085   0.238  1.9742 -1.4882 -0.0672
   48MOL   H46544739   5.196   2.199   0.301  1.8866 -2.4197 -1.6293
   48MOL   H46644740   5.033   2.263   0.487 -1.4159 -0.2271  1.3804
   48MOL   H46744741   4.910   2.163   0.427 -0.9309  3.2301  1.7970
   48MOL   H46844742   4.676   2.273   0.005  1.5337 -1.4017 -1.4217
   48MOL   H46944743   4.665   2.399   7.780  0.8362 -0.8675  0.0041
   48MOL   H47044744   5.024   2.605   7.902  1.7778 -2.1204  1.2838
   48MOL   H47144745   5.046   2.467   0.112 -0.7891  0.7912  0.8606
   48MOL   O47244746   4.735   2.673   7.501  0.8399  0.2266  0.0669
   48MOL   C47344747   4.753   2.581   7.403  0.1665  0.1635  0.0281
   48MOL   C47444748   4.758   2.640   7.262 -0.2430  0.5274  0.4550
   48MOL   C47544749   4.661   2.760   7.245 -0.4877 -0.2337 -0.5094
   48MOL   C47644750   4.680   2.836   7.117  0.5780 -0.3193 -0.0467
   48MOL   C47744751   4.565   2.930   7.086  0.1571  0.9516  0.1385
   48MOL   C47844752   4.573   2.977   6.941  0.0793  0.6882 -0.3581
   48MOL   C47944753   4.537   2.873   6.834 -0.2315  0.8304 -0.4843
   48MOL   C48044754   4.588   2.923   6.698 -0.0648  0.0709 -0.1040
   48MOL   C48144755   4.509   2.853   6.581 -0.7847  0.1718 -0.8299
   48MOL   C48244756   4.565   2.902   6.443  0.3837  0.2637  0.9085
   48MOL   O48344757   4.683   2.834   6.403  0.1010  0.0977  0.5148
   48MOL   C48444758   4.799   2.903   6.396  1.0687 -0.1055 -0.0519
   48MOL   O48544759   4.813   3.020   6.438  0.2457  0.4111 -0.4169
   48MOL   C48644760   4.914   2.822   6.327  0.0715 -0.1831  0.2876
   48MOL   C48744761   5.030   2.896   6.290  0.5035 -0.1685  0.8507
   48MOL   C48844762   5.141   2.830   6.234  0.2031 -0.2265  0.2838
   48MOL   C48944763   5.141   2.691   6.208  0.5025 -0.0231 -0.0098
   48MOL   C49044764   5.263   2.616   6.165  0.1624 -0.0905  0.0982
   48MOL   O49144765   5.371   2.669   6.146  0.6103 -0.3859  0.4621
   48MOL   O49244766   5.241   2.489   6.150  0.1799  0.0862 -0.0560
   48MOL   C49344767   5.026   2.618   6.245 -0.1678 -0.5531  0.3210
   48MOL   C49444768   4.915   2.683   6.306  0.5681 -0.0257 -0.0958
   48MOL   H49544769   4.841   2.524   7.435 -0.5700 -0.4906  0.9248
   48MOL   H49644770   4.671   2.509   7.404  1.1363 -1.0112  3.0147
   48MOL   H49744771   4.724   2.559   7.197  3.2669 -0.1185 -0.6969
   48MOL   H49844772   4.862   2.653   7.232 -0.1147 -0.1197  0.6204
   48MOL   H49944773   4.554   2.737   7.244 -0.1699 -1.9402  1.1170
   48MOL   H50044774   4.677   2.831   7.325  0.5313 -0.9748 -0.0500
   48MOL   H50144775   4.681   2.765   7.034  1.1585  2.5379 -2.5877
   48MOL   H50244776   4.775   2.889   7.122 -0.7784  2.1763  0.3414
   48MOL   H50344777   4.466   2.887   7.095  0.1110  1.2314  1.0534
   48MOL   H50444778   4.581   3.017   7.150 -1.1790  0.8938  0.5547
   48MOL   H50544779   4.520   3.072   6.930 -0.8048  0.2030 -0.3302
   48MOL   H50644780   4.674   3.012   6.920  0.8225 -0.4011  1.3571
   48MOL   H50744781   4.598   2.785   6.854 -1.4041 -0.0923 -0.9346
   48MOL   H50844782   4.432   2.845   6.842  0.5012 -1.9372 -0.1308
   48MOL   H50944783   4.587   3.031   6.696  1.1310  0.0813 -0.5552
   48MOL   H51044784   4.693   2.896   6.684 -0.2504 -0.2176 -1.0072
   48MOL   H51144785   4.401   2.862   6.593 -1.0326 -2.7800 -0.5766
   48MOL   H51244786   4.529   2.747   6.566 -1.3757 -0.0482 -0.0770
   48MOL   H51344787   4.570   3.011   6.449 -2.6189  0.4506  0.7344
   48MOL   H51444788   4.474   2.882   6.387 -0.6508  1.1693  2.2327
   48MOL   H51544789   5.028   3.003   6.303 -1.3947  0.2952 -2.6490
   48MOL   H51644790   5.224   2.896   6.215 -0.2503 -0.0477 -1.1835
   48MOL   H51744791   5.019   2.514   6.220  0.4650 -0.6514  0.5470
   48MOL   H51844792   4.820   2.635   6.327 -0.1687  1.3050 -0.3343
   48MOL   O51944793   5.357   2.390   6.131 -0.2026  0.4540  0.2044
   48MOL   C52044794   5.355   2.301   6.246 -0.4537 -0.1257 -0.5872
   48MOL   C52144795   5.446   2.174   6.224 -0.3593  0.0282 -0.0247
   48MOL   C52244796   5.365   2.074   6.134 -0.3710 -0.7086 -0.5666
   48MOL   C52344797   5.419   1.924   6.115 -0.9314 -0.8696 -0.5325
   48MOL   C52444798   5.352   1.817   6.199 -0.6295 -0.1323 -0.2384
   48MOL   C52544799   5.396   1.830   6.347 -0.8700  0.1070  0.1866
   48MOL   C52644800   5.366   1.709   6.435  0.0138 -0.0729  0.9335
   48MOL   C52744801   5.404   1.730   6.581  0.2567  0.0753 -0.3566
   48MOL   C52844802   5.361   1.609   6.662  0.3860  0.1481  0.1114
   48MOL   C52944803   5.332   1.632   6.816 -0.1921 -0.5821 -0.1256
   48MOL   O53044804   5.326   1.509   6.892 -0.0275 -0.3976  0.2091
   48MOL   C53144805   5.249   1.508   7.002 -0.3039 -0.7225  0.0543
   48MOL   O53244806   5.183   1.608   7.045  0.4182  0.1566 -0.1151
   48MOL   C53344807   5.261   1.377   7.073  0.2062  0.0947 -0.2098
   48MOL   C53444808   5.326   1.266   7.016 -0.5376 -0.1122  0.6765
   48MOL   C53544809   5.341   1.138   7.082  0.2692  0.1932 -0.1389
   48MOL   C53644810   5.279   1.119   7.207  0.3708 -0.7063 -0.5980
   48MOL   C53744811   5.286   0.990   7.284  0.2059  0.3859  0.0073
   48MOL   O53844812   5.231   0.978   7.393 -0.2328 -0.2672 -0.7938
   48MOL   O53944813   5.359   0.883   7.222 -0.3484 -0.4240 -0.0965
   48MOL   C54044814   5.221   1.233   7.273  0.4314  0.2112  0.0976
   48MOL   C54144815   5.210   1.359   7.204 -0.1822 -0.1661 -0.1727
   48MOL   H54244816   5.387   2.357   6.333  2.1998 -0.2353 -1.4493
   48MOL   H54344817   5.257   2.264   6.276  0.0743 -2.3911 -1.4658
   48MOL   H54444818   5.474   2.141   6.324  0.6749  2.3872  0.5218
   48MOL   H54544819   5.545   2.199   6.185 -1.2189  1.3717 -1.4365
   48MOL   H54644820   5.258   2.064   6.154 -0.2146 -0.8460  0.2233
   48MOL   H54744821   5.378   2.120   6.036 -1.0434 -2.0846 -1.3122
   48MOL   H54844822   5.528   1.921   6.125 -0.8257  1.6623 -0.7310
   48MOL   H54944823   5.410   1.896   6.011  0.6574  1.6320 -1.3983
   48MOL   H55044824   5.244   1.828   6.194 -0.4869  1.3437 -0.4651
   48MOL   H55144825   5.385   1.723   6.156 -1.2321  0.0022 -1.0103
   48MOL   H55244826   5.504   1.841   6.352 -1.0250  1.6107  0.4994
   48MOL   H55344827   5.358   1.915   6.404  0.1855 -0.8344  2.3474
   48MOL   H55444828   5.263   1.674   6.428  0.3264 -0.5233 -1.7261
   48MOL   H55544829   5.427   1.624   6.405 -1.2769 -0.0633 -1.8081
   48MOL   H55644830   5.511   1.751   6.584  0.9292 -3.1803 -0.3056
   48MOL   H55744831   5.356   1.819   6.623  0.2700  0.1166 -0.4284
   48MOL   H55844832   5.447   1.542   6.659 -0.2413 -0.9178  3.3851
   48MOL   H55944833   5.270   1.566   6.620  2.0077 -1.6632 -1.6619
   48MOL   H56044834   5.252   1.705   6.833  0.7244 -0.1437  2.5984
   48MOL   H56144835   5.419   1.687   6.851 -0.5351 -0.8535  1.1857
   48MOL   H56244836   5.377   1.275   6.922 -0.8001  1.7869  0.6912
   48MOL   H56344837   5.373   1.048   7.033 -0.0777 -0.6821  1.2190
   48MOL   H56444838   5.189   1.219   7.375 -0.4033 -1.5035 -0.3777
   48MOL   H56544839   5.163   1.435   7.265  1.3014  1.5204 -1.0699
   48MOL   O56644840   5.352   0.754   7.293 -0.6908  0.1839  0.0775
   48MOL   C56744841   5.271   0.666   7.216 -0.3408 -0.7935  0.2466
   48MOL   C56844842   5.341   0.605   7.089 -0.1125 -0.6221  0.4948
   48MOL   C56944843   5.258   0.510   6.998 -0.2440  0.2142  0.0115
   48MOL   C57044844   5.331   0.460   6.876 -0.2655 -0.3200  0.0201
   48MOL   C57144845   5.270   0.343   6.801 -0.0499  0.2278  0.2503
   48MOL   C57244846   5.362   0.270   6.704 -0.4612 -0.2837  0.0685
   48MOL   C57344847   5.285   0.156   6.631  0.1628  0.8344 -0.3447
   48MOL   C57444848   5.278   0.023   6.707 -0.2080  1.2216  0.3635
   48MOL   C57544849   5.189   7.901   6.635  0.4454  0.8559  0.5397
   48MOL   C57644850   5.170   7.773   6.719 -0.0018  1.1433  0.3694
   48MOL   O57744851   5.113   7.797   6.845  0.5002  0.3726  0.2917
   48MOL   C57844852   5.063   7.698   6.923 -0.5202 -0.4320  0.3083
   48MOL   O57944853   5.054   7.586   6.885 -0.3877 -0.2631 -0.3192
   48MOL   C58044854   5.021   7.743   7.062 -0.5867  0.1289 -0.3158
   48MOL   C58144855   4.958   7.650   7.149 -0.0508  0.1338 -0.0972
   48MOL   C58244856   4.932   7.686   7.283 -0.6467  1.0748  0.2057
   48MOL   C58344857   4.968   7.815   7.333 -0.2871  0.3853 -0.4611
   48MOL   C58444858   4.931   7.853   7.480 -0.5938  0.0887  0.0012
   48MOL   O58544859   4.833   7.809   7.531  0.0068  0.4327  0.2802
   48MOL   O58644860   5.029   7.927   7.534  0.3593  0.3704 -0.7136
   48MOL   C58744861   5.035   7.904   7.250 -0.2715  0.5969 -0.5061
   48MOL   C58844862   5.062   7.864   7.115 -0.2039  0.0499 -0.4401
   48MOL   H58944863   5.227   0.582   7.270 -0.1812  0.4447  2.3574
   48MOL   H59044864   5.184   0.720   7.178 -0.2434 -0.1011  0.9844
   48MOL   H59144865   5.420   0.550   7.140  0.2076 -1.3757 -0.8040
   48MOL   H59244866   5.393   0.684   7.034  0.8831 -0.5904  1.4457
   48MOL   H59344867   5.215   0.420   7.041  0.3031 -0.7544 -1.4471
   48MOL   H59444868   5.169   0.565   6.965 -1.6286 -0.3535  2.5937
   48MOL   H59544869   5.426   0.425   6.917  0.2704  0.8465 -0.2134
   48MOL   H59644870   5.348   0.543   6.808  0.8612  0.2638  1.0036
   48MOL   H59744871   5.246   0.263   6.871  0.0558  0.3621  0.4392
   48MOL   H59844872   5.181   0.376   6.747  0.0191  1.2671  0.7677
   48MOL   H59944873   5.407   0.328   6.623 -1.7209  1.6459  0.7058
   48MOL   H60044874   5.453   0.236   6.752 -0.0953  0.6012  0.0256
   48MOL   H60144875   5.181   0.188   6.620  0.8018  2.9011 -0.5181
   48MOL   H60244876   5.326   0.144   6.531  1.5713  0.1032  0.3200
   48MOL   H60344877   5.383   7.973   6.704 -0.2277  1.2300 -0.5020
   48MOL   H60444878   5.240   0.059   6.802 -0.1947  2.0836  0.0454
   48MOL   H60544879   5.228   7.873   6.537  1.8873 -0.9898  1.5875
   48MOL   H60644880   5.089   7.940   6.623  0.9967  1.6735 -1.5259
   48MOL   H60744881   5.265   7.720   6.723 -0.4575  0.3688  1.2156
   48MOL   H60844882   5.107   7.709   6.656  0.2055 -0.6508  1.9368
   48MOL   H60944883   4.930   7.553   7.109 -3.0513  1.7185 -1.9967
   48MOL   H61044884   4.879   7.620   7.351 -2.8055  1.7110 -0.8195
   48MOL   H61144885   5.086   0.012   7.292  3.1077 -1.6471  0.1865
   48MOL   H61244886   5.112   7.942   7.061 -1.8616  0.3583 -1.5818
   48MOL   O61344887   5.000   7.977   7.667  0.5982  0.3053  0.3744
   48MOL   C61444888   4.927   0.122   7.658  0.0490 -0.1284  0.0957
   48MOL   C61544889   4.977   0.224   7.560  0.1824 -0.1662 -0.2039
   48MOL   C61644890   4.935   0.377   7.588 -0.4737 -0.5132 -0.3812
   48MOL   C61744891   4.972   0.482   7.479 -0.0669 -0.1053  0.1786
   48MOL   C61844892   4.922   0.623   7.519 -0.5479  0.2772 -0.1184
   48MOL   C61944893   4.974   0.681   7.656  0.5658  0.3963  0.2360
   48MOL   C62044894   5.118   0.727   7.654 -0.3989 -0.2691  0.6220
   48MOL   C62144895   5.152   0.830   7.768  0.2773  0.0982  0.2454
   48MOL   C62244896   5.297   0.885   7.757  0.2425  0.3237 -0.5078
   48MOL   C62344897   5.399   0.781   7.790  0.2377 -0.8516 -0.6824
   48MOL   O62444898   5.426   0.687   7.688 -0.6525  0.0555  0.5078
   48MOL   C62544899   5.464   0.561   7.730  0.4442  0.0076 -0.1477
   48MOL   O62644900   5.510   0.537   7.843 -0.1036 -0.4120 -0.0774
   48MOL   C62744901   5.448   0.458   7.623  0.0377 -0.8609 -0.8047
   48MOL   C62844902   5.432   0.491   7.488  0.7351  0.2148  0.1027
   48MOL   C62944903   5.404   0.384   7.399 -0.7453 -0.0685  0.5471
   48MOL   C63044904   5.407   0.250   7.437  0.3864 -0.3134  0.0345
   48MOL   C63144905   5.382   0.137   7.339  0.8240 -0.2916  0.2047
   48MOL   O63244906   5.341   0.026   7.377 -0.1275  0.4821 -0.8637
   48MOL   O63344907   5.397   0.160   7.205  0.0285 -0.3001  0.1893
   48MOL   C63444908   5.419   0.220   7.573  0.2772  0.1750 -0.0114
   48MOL   C63544909   5.446   0.324   7.664  0.2533 -0.0158  0.0213
   48MOL   H63644910   4.820   0.099   7.660 -0.4878  2.0119 -1.8016
   48MOL   H63744911   4.938   0.166   7.757 -0.6836 -0.0551  0.1516
   48MOL   H63844912   4.932   0.197   7.464  0.1149  0.7305 -0.4256
   48MOL   H63944913   5.084   0.220   7.540 -0.0231  0.4416 -1.4536
   48MOL   H64044914   4.826   0.381   7.592 -0.4036  0.8797  0.1269
   48MOL   H64144915   4.976   0.405   7.684 -0.0320 -0.5718 -0.5539
   48MOL   H64244916   4.929   0.448   7.384 -0.0023  0.4041 -0.0360
   48MOL   H64344917   5.081   0.481   7.477 -0.0135  1.8106  1.1241
   48MOL   H64444918   4.952   0.690   7.438 -0.1378 -1.9910 -1.8822
   48MOL   H64544919   4.813   0.621   7.519 -0.5246 -1.2251  0.3440
   48MOL   H64644920   4.907   0.765   7.668 -2.3795 -1.4583 -2.3279
   48MOL   H64744921   4.955   0.615   7.740 -2.3254 -0.1496 -0.8019
   48MOL   H64844922   5.181   0.639   7.669  1.2862  0.3172 -2.6559
   48MOL   H64944923   5.133   0.767   7.554  0.3590  3.4941  2.1583
   48MOL   H65044924   5.077   0.909   7.774  2.2735  1.9772  0.8224
   48MOL   H65144925   5.138   0.790   7.869 -1.0502  0.4306  0.2021
   48MOL   H65244926   5.306   0.973   7.821 -0.5071 -0.8604  1.2599
   48MOL   H65344927   5.313   0.931   7.659 -1.5938 -0.8649 -1.4028
   48MOL   H65444928   5.375   0.739   7.888  0.0431 -1.3191 -0.9256
   48MOL   H65544929   5.497   0.819   7.820  0.5220 -1.2220 -1.1289
   48MOL   H65644930   5.444   0.592   7.452 -1.3901  0.3430 -0.3045
   48MOL   H65744931   5.403   0.402   7.292  1.8923  0.8281  0.6299
   48MOL   H65844932   5.421   0.118   7.609 -0.3115 -1.4199 -4.1689
   48MOL   H65944933   5.464   0.305   7.769  0.2538 -0.1354 -0.0005
   48MOL   O66044934   5.337   0.058   7.114  0.1942 -0.0806 -0.1298
   48MOL   C66144935   5.431   7.940   7.069  0.2780  0.4046  0.0266
   48MOL   C66244936   5.543   0.009   6.978  0.1983 -0.4135 -0.6590
   48MOL   C66344937   5.646   0.082   7.066 -0.4228 -0.2299  0.0965
   48MOL   C66444938   5.782   0.084   6.995  0.9466 -0.6061  0.1538
   48MOL   C66544939   5.893   0.168   7.056 -0.1270 -0.3978  0.1471
   48MOL   C66644940   6.040   0.108   7.038  0.2397 -0.4742  0.3266
   48MOL   C66744941   6.066   7.967   7.135  0.6501  0.3722  0.2902
   48MOL   C66844942   6.194   0.015   7.218  0.6235  0.1860 -0.1637
   48MOL   C66944943   6.231   7.858   7.282 -0.2201 -0.3300  0.2325
   48MOL   C67044944   6.298   7.860   7.421  0.2340  0.4129 -0.2976
   48MOL   O67144945   6.384   7.744   7.430  0.2007  0.1648 -0.2244
   48MOL   C67244946   6.469   7.726   7.536  0.0329 -0.1130  0.7221
   48MOL   O67344947   6.485   7.810   7.622 -0.3784 -0.4201 -0.4904
   48MOL   C67444948   6.532   7.589   7.548 -0.5098  0.2942  0.0760
   48MOL   C67544949   6.491   7.482   7.464 -0.8768 -0.3660  0.2209
   48MOL   C67644950   6.553   7.360   7.473 -1.4795  0.1571  0.3061
   48MOL   C67744951   6.646   7.336   7.579 -0.3609 -0.5907 -0.2450
   48MOL   C67844952   6.723   7.207   7.581 -0.9311 -0.1669  0.1256
   48MOL   O67944953   6.693   7.114   7.506  0.1379  0.5933 -0.4045
   48MOL   O68044954   6.831   7.213   7.657  0.3462  0.0083  0.5670
   48MOL   C68144955   6.683   7.435   7.668  0.6366 -0.6849  0.1929
   48MOL   C68244956   6.621   7.562   7.653 -0.2067  0.6631 -0.6630
   48MOL   H68344957   5.477   7.886   7.152 -1.6413 -4.1005 -1.6851
   48MOL   H68444958   5.375   7.859   7.022  0.1753  1.4713 -1.7370
   48MOL   H68544959   5.492   0.074   6.906  1.0877 -0.1555 -1.0621
   48MOL   H68644960   5.594   7.909   6.922  0.6974  0.4843 -1.4750
   48MOL   H68744961   5.632   0.188   7.084  1.2575 -0.5821  3.8183
   48MOL   H68844962   5.646   0.042   7.167  4.0996  1.5047  0.9065
   48MOL   H68944963   5.776   0.129   6.896  0.2020 -0.9618  0.0327
   48MOL   H69044964   5.815   7.960   6.974 -0.2616 -1.0688  0.4551
   48MOL   H69144965   5.909   0.267   7.013 -1.8783  0.5689  1.6766
   48MOL   H69244966   5.862   0.193   7.157 -0.8471 -1.0657  0.0964
   48MOL   H69344967   6.064   0.085   6.934 -0.5772 -0.2833  0.0924
   48MOL   H69444968   6.118   0.184   7.046  0.1719 -0.3201 -0.4111
   48MOL   H69544969   5.983   7.945   7.201  1.0435  0.7704  0.9297
   48MOL   H69644970   6.080   7.886   7.063 -0.6891  0.6715 -0.3274
   48MOL   H69744971   6.273   0.059   7.157  1.8475 -0.7470  0.7367
   48MOL   H69844972   6.162   0.091   7.289 -0.7422 -0.2305 -0.3113
   48MOL   H69944973   6.296   7.802   7.215 -1.4677  0.9625 -2.0963
   48MOL   H70044974   6.145   7.792   7.290 -0.7182  0.4673  1.6605
   48MOL   H70144975   6.220   7.858   7.498  1.3569 -0.6812  0.8194
   48MOL   H70244976   6.358   7.951   7.425  1.6281 -0.5739  2.0152
   48MOL   H70344977   6.410   7.496   7.393  0.1024  4.6805 -0.0699
   48MOL   H70444978   6.531   7.282   7.401 -1.4026 -1.8156  2.3421
   48MOL   H70544979   6.752   7.428   7.750  0.0277 -0.0559  0.7627
   48MOL   H70644980   6.632   7.642   7.724 -1.3847  0.4084 -0.1849
   48MOL   O70744981   6.906   7.079   7.672 -0.2577  0.3970 -0.2350
   48MOL   C70844982   7.014   7.080   7.587  0.3246  0.6234  0.2621
   48MOL   C70944983   7.100   6.958   7.612 -0.3616 -0.5911 -0.1401
   48MOL   C71044984   7.228   6.962   7.531  0.5399 -0.1833 -0.2562
   48MOL   C71144985   7.317   6.839   7.558  0.6714  0.3569 -0.3211
   48MOL   C71244986   7.424   6.821   7.448  0.4036 -0.0078  0.1566
   48MOL   C71344987   7.528   6.716   7.476 -0.0895 -0.1540 -0.1751
   48MOL   C71444988   7.640   6.717   7.368 -0.5963 -0.4793  0.1836
   48MOL   C71544989   7.601   6.700   7.216  0.1420  0.5243 -0.3302
   48MOL   C71644990   7.510   6.585   7.196  0.7052  0.1589 -0.4569
   48MOL   C71744991   7.450   6.592   7.053 -0.6738 -0.4498  0.0540
   48MOL   O71844992   7.357   6.486   7.021 -0.1052 -0.6350 -0.2457
   48MOL   C71944993   7.256   6.509   6.936 -0.8101  0.1900 -0.4421
   48MOL   O72044994   7.244   6.615   6.882 -0.4612  0.5418 -0.3080
   48MOL   C72144995   7.175   6.384   6.912  0.2012 -1.3773  0.5155
   48MOL   C72244996   7.084   6.378   6.796  0.0615 -0.2169 -0.4401
   48MOL   C72344997   6.994   6.268   6.785  0.0516 -0.3195  0.2199
   48MOL   C72444998   6.985   6.172   6.889 -0.2983 -0.2838 -0.1231
   48MOL   C72544999   6.897   6.059   6.872 -0.2582 -0.2268 -0.6429
   48MOL   O72645000   6.826   6.047   6.770 -0.2456  0.1592 -0.3648
   48MOL   O72745001   6.898   5.970   6.978 -0.3099 -0.7812  0.3585
   48MOL   C72845002   7.057   6.192   7.007  0.1537  0.7081  0.7785
   48MOL   C72945003   7.163   6.291   7.011 -0.2380  0.3030 -0.2782
   48MOL   H73045004   6.972   7.081   7.486  2.9425  1.4887 -0.8744
   48MOL   H73145005   7.077   7.169   7.585  1.3748 -0.1044 -0.1353
   48MOL   H73245006   7.050   6.867   7.580 -0.2512 -0.6005 -0.2851
   48MOL   H73345007   7.135   6.959   7.715  1.9512  1.5444 -0.8928
   48MOL   H73445008   7.194   6.965   7.427  2.1285  0.2924 -0.7687
   48MOL   H73545009   7.280   7.058   7.536  0.4015 -0.1696  0.9545
   48MOL   H73645010   7.256   6.750   7.570 -0.3089  0.9325 -0.9446
   48MOL   H73745011   7.360   6.848   7.657 -3.6540  0.3865  1.6472
   48MOL   H73845012   7.370   6.815   7.354 -0.2211 -1.8468  0.6116
   48MOL   H73945013   7.474   6.918   7.440 -1.1402  0.7820 -0.3302
   48MOL   H74045014   7.570   6.745   7.573  0.0757  2.0305 -0.8623
   48MOL   H74145015   7.482   6.617   7.475 -1.4048  0.4476 -2.0711
   48MOL   H74245016   7.686   6.814   7.381 -0.1334 -0.6166 -0.4144
   48MOL   H74345017   7.708   6.636   7.399 -0.6642 -0.6041  0.0058
   48MOL   H74445018   7.565   6.796   7.179 -0.7738  0.4825  0.4322
   48MOL   H74545019   7.685   6.687   7.147  0.4220  1.1152 -0.1069
   48MOL   H74645020   7.429   6.581   7.270  1.5206 -1.3367  0.3838
   48MOL   H74745021   7.562   6.490   7.209 -1.2599 -1.0507 -1.1837
   48MOL   H74845022   7.531   6.572   6.983 -0.3088  0.3798  0.2377
   48MOL   H74945023   7.436   6.698   7.035 -0.8133 -0.4519  0.1432
   48MOL   H75045024   7.093   6.447   6.713  1.5395 -0.5973 -0.6143
   48MOL   H75145025   6.949   6.245   6.689  1.9480 -1.8483 -0.3471
   48MOL   H75245026   7.037   6.132   7.094  1.1458 -0.0666  0.4795
   48MOL   H75345027   7.215   6.302   7.105 -0.5094 -1.0022  0.0385
   48MOL   O75445028   6.816   5.853   6.957 -0.2539 -0.4236 -0.3390
   48MOL   C75545029   6.680   5.874   6.999  0.2482 -0.6799 -0.3081
   48MOL   C75645030   6.674   5.883   7.157  0.1364  0.3769  0.1829
   48MOL   C75745031   6.692   6.024   7.213  0.4220 -0.0731 -0.2667
   48MOL   C75845032   6.653   6.038   7.360  0.0911 -0.3917  0.1459
   48MOL   C75945033   6.703   6.168   7.422  0.0068 -0.1735  0.1027
   48MOL   C76045034   6.676   6.164   7.573 -0.6881  0.1074 -0.4062
   48MOL   C76145035   6.543   6.123   7.629 -0.5796  0.1350  0.3002
   48MOL   C76245036   6.426   6.207   7.565 -0.9514 -0.0877 -0.0553
   48MOL   C76345037   6.290   6.154   7.614 -0.6628 -0.0845 -0.8168
   48MOL   C76445038   6.175   6.199   7.520 -0.0133 -0.0249 -0.0472
   48MOL   O76545039   6.184   6.129   7.399  0.5567  0.0009  0.4626
   48MOL   C76645040   6.079   6.132   7.315 -0.8802  0.3326  0.3482
   48MOL   O76745041   5.973   6.178   7.348  0.0435  0.1002 -0.1414
   48MOL   C76845042   6.111   6.063   7.189  0.0429 -0.2987  0.1371
   48MOL   C76945043   6.244   6.022   7.162  0.0508 -0.0867  0.7084
   48MOL   C77045044   6.274   5.956   7.042 -0.3694 -0.1314 -0.5278
   48MOL   C77145045   6.178   5.940   6.941  0.6424 -0.2341 -0.0671
   48MOL   C77245046   6.212   5.883   6.808 -0.7863 -0.4178 -0.5751
   48MOL   O77345047   6.124   5.842   6.735  0.0741  0.1176  0.2603
   48MOL   O77445048   6.347   5.870   6.782 -0.1412  0.5552 -0.0576
   48MOL   C77545049   6.039   5.978   6.974 -0.5980 -0.5396 -0.5078
   48MOL   C77645050   6.007   6.035   7.094 -0.8659 -0.3660 -0.2876
   48MOL   H77745051   6.648   5.969   6.955  0.0880 -1.0679 -1.0353
   48MOL   H77845052   6.611   5.795   6.968 -1.4234 -0.7822  3.4095
   48MOL   H77945053   6.737   5.811   7.210  0.7828 -1.1051 -2.4652
   48MOL   H78045054   6.572   5.858   7.183 -0.4793  1.6883 -0.8850
   48MOL   H78145055   6.798   6.038   7.195  0.4410  1.7653  1.1529
   48MOL   H78245056   6.638   6.098   7.154 -0.8563 -1.4305 -0.8414
   48MOL   H78345057   6.700   5.953   7.410 -2.1742 -1.4179  0.6131
   48MOL   H78445058   6.546   6.019   7.375 -0.5175  1.1619 -2.0486
   48MOL   H78545059   6.807   6.196   7.405 -0.1229  1.0066  1.2078
   48MOL   H78645060   6.646   6.249   7.376  0.2693  0.2750  0.5644
   48MOL   H78745061   6.751   6.089   7.598 -2.7521 -1.6386  0.7480
   48MOL   H78845062   6.707   6.265   7.599 -0.2783 -0.2300  0.4379
   48MOL   H78945063   6.527   6.017   7.611  0.6403 -0.0508  0.2918
   48MOL   H79045064   6.531   6.122   7.737  2.3728 -0.2046  0.6688
   48MOL   H79145065   6.439   6.309   7.601  0.0957 -0.5657  0.9821
   48MOL   H79245066   6.427   6.206   7.456  1.6408 -0.7653 -0.0578
   48MOL   H79345067   6.267   6.176   7.718 -1.8178 -2.3344 -0.5594
   48MOL   H79445068   6.294   6.045   7.614 -0.7753 -0.1166  2.4044
   48MOL   H79545069   6.196   6.306   7.518 -1.0847  0.1973  0.2414
   48MOL   H79645070   6.083   6.178   7.574  0.6108  0.2637  1.1244
   48MOL   H79745071   6.322   6.042   7.235 -0.3783  1.3505  0.8036
   48MOL   H79845072   6.379   5.934   7.024  0.5267  0.8729  3.0532
   48MOL   H79945073   5.960   5.966   6.902 -1.2499  0.0930  0.0984
   48MOL   H80045074   5.911   6.081   7.112  0.2544  1.9832 -0.0503
   48MOL   O80145075   6.378   5.800   6.651  0.2512  0.1845 -0.9766
   48MOL   C80245076   6.430   5.892   6.560 -0.2773  0.0571 -0.2417
   48MOL   C80345077   6.547   5.974   6.612  0.4892 -0.4562  0.3608
   48MOL   C80445078   6.566   6.109   6.540 -0.4487 -0.0677 -0.4106
   48MOL   C80545079   6.474   6.210   6.609 -0.0981  0.5917 -0.1034
   48MOL   C80645080   6.481   6.348   6.537 -0.0739  0.4073 -1.5456
   48MOL   C80745081   6.368   6.445   6.568 -0.4691 -0.0644  0.1021
   48MOL   C80845082   6.248   6.429   6.481 -0.5235 -0.0801 -0.3484
   48MOL   C80945083   6.130   6.524   6.522 -0.1043 -0.5806 -0.0450
   48MOL   C81045084   6.020   6.508   6.424 -0.0423  0.2961 -0.0968
   48MOL   C81145085   5.943   6.366   6.430  0.9871 -0.4235 -0.4355
   48MOL   O81245086   5.839   6.356   6.334 -0.1668  0.0216  0.5345
   48MOL   C81345087   5.718   6.311   6.363  0.7523  0.3069 -0.6641
   48MOL   O81445088   5.690   6.268   6.474  0.1219  0.7081  0.5268
   48MOL   C81545089   5.619   6.326   6.252 -0.4483 -0.0755 -0.3990
   48MOL   C81645090   5.655   6.370   6.122  0.6885 -0.4845  0.3330
   48MOL   C81745091   5.554   6.401   6.024  0.3294  0.0503 -0.0879
   48MOL   C81845092   5.415   6.408   6.066 -0.5474  0.3535 -0.3681
   48MOL   C81945093   5.310   6.454   5.967 -0.4874  0.0484 -0.1084
   48MOL   O82045094   5.335   6.530   5.870  0.7317 -0.0826 -0.2254
   48MOL   O82145095   5.185   6.415   5.989 -0.0854 -0.5751 -0.1401
   48MOL   C82245096   5.389   6.376   6.199  0.6047  0.1777 -0.8018
   48MOL   C82345097   5.485   6.327   6.285  0.4600 -0.7694 -0.3396
   48MOL   H82445098   6.467   5.830   6.478  1.2584 -0.4658  0.8254
   48MOL   H82545099   6.352   5.951   6.512  2.1939  2.8642 -0.9509
   48MOL   H82645100   6.637   5.918   6.588 -0.1796 -1.1918 -0.4817
   48MOL   H82745101   6.548   5.992   6.720  0.7220 -1.6273  0.5577
   48MOL   H82845102   6.672   6.132   6.551 -0.0005 -1.2444 -1.9527
   48MOL   H82945103   6.534   6.105   6.436  1.9201 -1.7526 -1.1367
   48MOL   H83045104   6.508   6.225   6.711 -0.5908  1.3193 -0.0398
   48MOL   H83145105   6.370   6.177   6.620 -1.0820  3.3347 -0.8522
   48MOL   H83245106   6.575   6.384   6.578  0.8353 -2.1218 -1.3656
   48MOL   H83345107   6.488   6.343   6.428  0.5672 -0.3163 -1.4669
   48MOL   H83445108   6.339   6.427   6.672 -0.2750  0.9174  0.3296
   48MOL   H83545109   6.404   6.548   6.564  1.1141 -0.6597 -1.3973
   48MOL   H83645110   6.281   6.430   6.377  2.7284  0.0130  0.6250
   48MOL   H83745111   6.221   6.324   6.499  0.6360 -0.5199 -1.1219
   48MOL   H83845112   6.100   6.505   6.625  1.6262 -3.3907 -0.0053
   48MOL   H83945113   6.180   6.620   6.511 -0.8617 -0.0334  1.2672
   48MOL   H84045114   6.059   6.531   6.325 -0.9520 -0.9709 -0.7705
   48MOL   H84145115   5.958   6.596   6.439  1.9725  2.2062 -2.6130
   48MOL   H84245116   5.911   6.353   6.533  2.0119  1.0375  0.0805
   48MOL   H84345117   6.007   6.281   6.403 -0.7152 -1.3945 -1.5427
   48MOL   H84445118   5.757   6.386   6.089 -0.1698  1.4888 -1.4378
   48MOL   H84545119   5.581   6.442   5.928 -0.1009  2.7609  0.9003
   48MOL   H84645120   5.289   6.389   6.237  1.3789  0.0600  1.3320
   48MOL   H84745121   5.464   6.295   6.386  2.1735  2.6355  1.2058
   48MOL   O84845122   5.081   6.506   5.929 -0.0805  0.5543 -0.4741
   48MOL   C84945123   5.018   6.584   6.022  0.0185  0.3274  0.7603
   48MOL   C85045124   4.917   6.506   6.109  0.1213 -0.6546 -0.1179
   48MOL   C85145125   4.800   6.455   6.028 -0.2689 -0.6821  0.2398
   48MOL   C85245126   4.692   6.373   6.099 -0.0174 -0.3314  0.3776
   48MOL   C85345127   4.569   6.345   6.013  0.4128  0.5220  0.2452
   48MOL   C85445128   4.475   6.245   6.079  0.5946 -0.3092  0.6051
   48MOL   C85545129   4.359   6.208   5.980 -0.6346 -0.1486 -0.4353
   48MOL   C85645130   4.256   6.104   6.031 -0.0293  0.2107 -0.1593
   48MOL   C85745131   4.304   5.962   6.006  0.3535 -0.1067 -0.6451
   48MOL   C85845132   4.216   5.864   6.080 -0.0909 -0.4375 -0.0522
   48MOL   O85945133   4.075   5.887   6.070  0.1448  0.0145  0.2162
   48MOL   C86045134   3.999   5.824   5.987  0.0912  0.1136  0.6734
   48MOL   O86145135   4.050   5.743   5.902 -0.1728  0.2550 -1.0322
   48MOL   C86245136   3.856   5.863   5.984  0.0022  0.9769  0.2579
   48MOL   C86345137   3.820   5.983   6.040 -0.0671  0.9670  0.2624
   48MOL   C86445138   3.685   6.036   6.037 -0.2395  0.4262 -0.2745
   48MOL   C86545139   3.587   5.955   5.979  0.4411  0.2712  0.9025
   48MOL   C86645140   3.443   5.993   5.991 -0.1322 -0.4424 -0.5686
   48MOL   O86745141   3.349   5.916   5.975  0.1650 -0.1074  0.3662
   48MOL   O86845142   3.422   6.123   6.033 -0.4750 -0.2388  0.2559
   48MOL   C86945143   3.625   5.837   5.912 -0.0545  0.4557 -0.0085
   48MOL   C87045144   3.758   5.793   5.912 -0.8025  0.0072  0.0014
   48MOL   H87145145   5.087   6.639   6.085 -1.3269  1.6971  1.0667
   48MOL   H87245146   4.961   6.657   5.965  0.1816 -0.4193 -0.3766
   48MOL   H87345147   4.878   6.573   6.186 -1.4036 -1.0648 -0.5160
   48MOL   H87445148   4.965   6.423   6.160  0.1434 -0.3869  0.2949
   48MOL   H87545149   4.748   6.535   5.975  1.8975 -0.9342 -2.3662
   48MOL   H87645150   4.835   6.386   5.951  0.5307 -0.5270  0.4583
   48MOL   H87745151   4.668   6.427   6.191  1.4210  3.3555 -1.3309
   48MOL   H87845152   4.723   6.273   6.130 -0.5555 -0.2995  1.0369
   48MOL   H87945153   4.517   6.439   5.992 -0.9253  0.4160  2.8723
   48MOL   H88045154   4.605   6.301   5.920 -0.0676 -0.6392  0.6117
   48MOL   H88145155   4.531   6.158   6.112 -0.5834 -0.2230  2.9747
   48MOL   H88245156   4.436   6.285   6.173 -0.1656  2.3552 -0.7795
   48MOL   H88345157   4.296   6.289   5.942 -0.8420 -0.9524 -1.8248
   48MOL   H88445158   4.400   6.175   5.885  1.1709  0.4541  0.1072
   48MOL   H88545159   4.231   6.126   6.135  1.2352  0.2338  0.1469
   48MOL   H88645160   4.165   6.120   5.973  0.8957  2.5076 -1.0519
   48MOL   H88745161   4.405   5.928   6.028  0.2656 -0.3024 -0.5501
   48MOL   H88845162   4.301   5.950   5.898 -2.1288  0.0046 -0.5991
   48MOL   H88945163   4.226   5.851   6.188  0.4916 -2.1251 -0.2947
   48MOL   H89045164   4.236   5.759   6.060 -0.8499 -0.2799 -1.6885
   48MOL   H89145165   3.896   6.027   6.104  2.1507 -1.9067 -0.2751
   48MOL   H89245166   3.675   6.129   6.090  1.4877  0.0029  0.8228
   48MOL   H89345167   3.554   5.768   5.869  0.7557 -0.9745  0.9021
   48MOL   H89445168   3.767   5.696   5.867 -2.1514 -1.0176  1.8431
   48MOL   O89545169   3.275   6.162   6.041 -0.6801 -0.5436  0.2176
   48MOL   C89645170   3.250   6.257   6.147 -0.6966  0.5577 -0.1889
   48MOL   C89745171   3.105   6.246   6.192 -1.0305  0.0946 -0.3178
   48MOL   C89845172   3.053   6.355   6.289  0.2107 -0.0577 -0.0299
   48MOL   C89945173   2.900   6.378   6.298  0.0769 -0.2042 -0.3692
   48MOL   C90045174   2.826   6.264   6.358 -0.4286 -0.1891 -0.5549
   48MOL   C90145175   2.672   6.285   6.345 -0.1912  0.0478  1.0900
   48MOL   C90245176   2.612   6.292   6.204 -0.0793  0.3266  0.5529
   48MOL   C90345177   2.660   6.181   6.114 -0.5705  0.9560 -0.3156
   48MOL   C90445178   2.614   6.043   6.160 -0.1010  0.0852  0.8131
   48MOL   C90545179   2.656   5.947   6.049  0.1892  0.1231  0.1374
   48MOL   O90645180   2.634   5.807   6.078 -0.9511 -0.0784 -0.0553
   48MOL   C90745181   2.536   5.737   6.012 -0.2879 -0.7362 -0.0790
   48MOL   O90845182   2.471   5.782   5.919  0.5367  0.5622 -0.3045
   48MOL   C90945183   2.505   5.612   6.080  0.0775  0.2091  0.2350
   48MOL   C91045184   2.383   5.548   6.041 -0.9709  0.2147  0.1568
   48MOL   C91145185   2.342   5.425   6.090  0.7237  0.0553 -0.0416
   48MOL   C91245186   2.429   5.364   6.186  0.0697 -0.4131 -0.3822
   48MOL   C91345187   2.388   5.224   6.233 -0.5664 -0.6869  0.2951
   48MOL   O91445188   2.274   5.178   6.213 -0.2439  0.0430 -0.1613
   48MOL   O91545189   2.490   5.146   6.275 -0.1797  0.3920 -0.0928
   48MOL   C91645190   2.547   5.426   6.223 -0.1527 -0.1040 -0.8327
   48MOL   C91745191   2.594   5.544   6.167  0.1792 -0.1610 -0.4677
   48MOL   H91845192   3.318   6.211   6.218 -0.6076 -1.1487 -1.3317
   48MOL   H91945193   3.282   6.351   6.102 -0.2817  1.5672  2.1882
   48MOL   H92045194   3.086   6.152   6.245 -3.3052  1.7530  1.9212
   48MOL   H92145195   3.051   6.244   6.098 -0.1050 -0.5285 -0.8497
   48MOL   H92245196   3.104   6.351   6.385  1.3051  2.0890 -0.4913
   48MOL   H92345197   3.088   6.452   6.254 -1.0208  0.8111  1.1020
   48MOL   H92445198   2.867   6.400   6.196 -1.7305  2.1365  0.6675
   48MOL   H92545199   2.877   6.464   6.362  0.2208 -0.4537  0.0190
   48MOL   H92645200   2.867   6.175   6.310  0.4698  0.4219 -0.9371
   48MOL   H92745201   2.847   6.265   6.465  0.0077 -0.7246 -0.6314
   48MOL   H92845202   2.618   6.213   6.408 -0.2067 -0.0140  1.0070
   48MOL   H92945203   2.647   6.377   6.398 -1.4539  0.3552 -0.0110
   48MOL   H93045204   2.506   6.266   6.204  0.6179 -2.6851  1.1674
   48MOL   H93145205   2.630   6.391   6.161 -0.3478 -0.7683 -2.1937
   48MOL   H93245206   2.619   6.196   6.015 -1.4112 -0.1576 -0.1506
   48MOL   H93345207   2.766   6.190   6.091 -0.0243 -0.9815  1.2759
   48MOL   H93445208   2.506   6.044   6.172 -0.4025 -0.2540 -1.5161
   48MOL   H93545209   2.665   6.015   6.252 -1.4306  0.3218  1.6203
   48MOL   H93645210   2.764   5.959   6.043  0.1956  1.6359  2.5857
   48MOL   H93745211   2.603   5.983   5.961 -1.5617  1.3132  1.6495
   48MOL   H93845212   2.318   5.590   5.965 -0.6926 -0.6383 -0.5561
   48MOL   H93945213   2.251   5.376   6.058 -0.6002  1.3706  1.5659
   48MOL   H94045214   2.607   5.379   6.299  1.4535 -0.4171 -2.2677
   48MOL   H94145215   2.689   5.592   6.187  0.2221 -0.6466  0.5226
   48MOL   H94245216   2.450   5.066   6.305  0.3266 -0.8231 -2.5363
   49MOL     O145217   1.874   3.991   7.778 -0.1693  0.2253 -0.2524
   49MOL     C245218   1.850   3.986   7.917 -0.2671  0.7036 -0.1144
   49MOL     C345219   1.707   4.029   7.938 -0.5008  0.8741  0.1426
   49MOL     C445220   1.609   3.925   7.892  0.0261 -0.5005  0.1587
   49MOL     C545221   1.462   3.948   7.940 -0.2501  0.7054  0.4235
   49MOL     C645222   1.366   3.816   7.939  0.3821 -0.2063  0.6044
   49MOL     C745223   1.411   3.712   0.061 -0.5873 -0.5655 -0.1204
   49MOL     C845224   1.381   3.751   0.203 -0.2277  0.0078  0.5639
   49MOL     C945225   1.388   3.622   0.282 -0.1808  0.5214 -0.0971
   49MOL    C1045226   1.530   3.557   0.296 -0.2399  0.1525 -0.2609
   49MOL    C1145227   1.642   3.650   0.335 -0.5121 -0.6769  0.4369
   49MOL    O1245228   1.765   3.579   0.357 -0.2292 -0.1685  0.0545
   49MOL    C1345229   1.866   3.629   0.434  0.1728  0.1424  0.0570
   49MOL    O1445230   1.843   3.728   0.504 -0.6954 -0.1614 -0.5498
   49MOL    C1545231   1.993   3.548   0.430  0.0820  0.0206  0.7254
   49MOL    C1645232   1.992   3.425   0.360 -0.0294  0.4099 -0.6389
   49MOL    C1745233   2.110   3.343   0.354  0.1220  0.3936  0.8959
   49MOL    C1845234   2.228   3.394   0.414 -0.5297 -0.1144  0.0948
   49MOL    C1945235   2.347   3.310   0.414 -0.2626 -0.6182 -0.8085
   49MOL    O2045236   2.462   3.351   0.439 -0.2212  0.4868  0.1134
   49MOL    O2145237   2.327   3.185   0.392  0.5975 -0.3501  0.5607
   49MOL    C2245238   2.228   3.527   0.471 -0.1546  0.7953  0.6445
   49MOL    C2345239   2.112   3.606   0.477  0.0311  0.6838 -0.2702
   49MOL    H2445240   1.872   3.892   7.967 -0.6672  0.4257 -0.4685
   49MOL    H2545241   1.924   4.043   7.974 -0.9789 -0.4818  2.0785
   49MOL    H2645242   1.691   4.124   7.886  0.9042  0.9336 -0.1923
   49MOL    H2745243   1.696   4.060   0.063 -0.8373  1.9393 -0.2040
   49MOL    H2845244   1.596   3.913   7.785  0.7322  1.7013 -0.2048
   49MOL    H2945245   1.658   3.834   7.928  0.7137 -0.1445  0.1217
   49MOL    H3045246   1.413   4.012   7.866 -0.1270 -1.0023 -1.1549
   49MOL    H3145247   1.453   3.992   0.061 -2.1447  1.3404 -0.0004
   49MOL    H3245248   1.262   3.841   7.959  0.2383 -0.4620  0.1915
   49MOL    H3345249   1.373   3.770   7.841 -0.2678  1.1299 -0.0784
   49MOL    H3445250   1.376   3.614   0.028 -1.7488 -0.5796  1.0931
   49MOL    H3545251   1.519   3.699   0.060 -0.5321 -0.1924  0.4329
   49MOL    H3645252   1.457   3.816   0.246  1.5014  0.2644 -2.7708
   49MOL    H3745253   1.283   3.796   0.217  0.0625  0.7428  0.2591
   49MOL    H3845254   1.360   3.634   0.386 -0.3290 -2.3324  0.2240
   49MOL    H3945255   1.314   3.550   0.247  0.0137  0.7466 -1.0034
   49MOL    H4045256   1.562   3.509   0.204  0.1199 -2.7552  1.3062
   49MOL    H4145257   1.518   3.472   0.363  1.1862  0.2541  0.1364
   49MOL    H4245258   1.621   3.710   0.424  1.8540  1.4402 -0.3547
   49MOL    H4345259   1.662   3.727   0.260  0.8893  0.7043  2.1973
   49MOL    H4445260   1.903   3.390   0.311 -0.5754  0.4885  0.2856
   49MOL    H4545261   2.109   3.247   0.304  1.8405  1.2636 -0.8708
   49MOL    H4645262   2.322   3.570   0.502 -0.1005  0.0605  1.5318
   49MOL    H4745263   2.112   3.698   0.534 -0.3960  0.4595  0.1006
   49MOL    H4845264   1.793   3.970   7.735  0.0819 -2.2002  0.4007
   49MOL    O4945265   2.443   3.093   0.410 -0.4300 -0.4046  0.2697
   49MOL    C5045266   2.463   3.061   0.545  0.6196  0.7075 -0.2270
   49MOL    C5145267   2.566   2.954   0.568  0.2426 -0.2150 -0.9533
   49MOL    C5245268   2.703   3.011   0.535  0.1882  0.3794 -0.1833
   49MOL    C5345269   2.807   2.902   0.501 -0.5784  0.6254  0.0558
   49MOL    C5445270   2.940   2.958   0.448 -0.2451 -0.2741  0.5736
   49MOL    C5545271   3.037   2.851   0.410 -0.7838 -0.7750 -0.0420
   49MOL    C5645272   3.102   2.780   0.528 -0.4407 -0.3084 -0.1058
   49MOL    C5745273   3.179   2.658   0.475 -0.4427  0.2000 -0.2511
   49MOL    C5845274   3.270   2.593   0.575 -0.2657  0.8841 -0.5892
   49MOL    C5945275   3.199   2.525   0.689 -0.2618 -0.2255  0.3089
   49MOL    O6045276   3.293   2.466   0.772 -0.3604  0.1882 -0.3849
   49MOL    C6145277   3.254   2.391   0.879 -0.0284  0.6480  0.1046
   49MOL    O6245278   3.135   2.371   0.912  0.0735  0.0565 -0.4976
   49MOL    C6345279   3.369   2.353   0.965  0.4378  0.0168 -0.1207
   49MOL    C6445280   3.368   2.364   1.104  0.0752  0.4487 -0.6628
   49MOL    C6545281   3.491   2.330   1.174  0.5139  0.1943  0.7123
   49MOL    C6645282   3.603   2.279   1.112 -0.8059  0.0587 -0.1196
   49MOL    C6745283   3.729   2.246   1.186  0.0366  0.8590  0.2240
   49MOL    O6845284   3.832   2.208   1.126 -0.0968 -0.4475 -0.6145
   49MOL    O6945285   3.728   2.274   1.322 -0.7790  0.2777 -0.6380
   49MOL    C7045286   3.596   2.254   0.973 -0.6653 -0.1149 -0.0075
   49MOL    C7145287   3.482   2.293   0.901  0.4878  0.5677 -0.1683
   49MOL    H7245288   2.489   3.154   0.594  2.7241  0.0603 -0.0555
   49MOL    H7345289   2.366   3.023   0.579  0.4057  0.5193 -1.0243
   49MOL    H7445290   2.537   2.870   0.505  0.3579 -0.4877 -0.6388
   49MOL    H7545291   2.564   2.911   0.668  0.4019  0.3618 -0.7020
   49MOL    H7645292   2.699   3.080   0.451  1.5226 -1.3175 -1.6597
   49MOL    H7745293   2.736   3.068   0.622 -0.9981  1.0649 -0.1716
   49MOL    H7845294   2.761   2.839   0.425 -1.4944 -1.1313  2.0112
   49MOL    H7945295   2.823   2.838   0.588 -1.7945  0.5882  0.2594
   49MOL    H8045296   2.926   3.029   0.367  1.7278 -0.2656  0.2171
   49MOL    H8145297   2.985   3.008   0.534  1.5912  1.1285 -1.1738
   49MOL    H8245298   2.979   2.787   0.342  0.5681 -1.8129 -0.2393
   49MOL    H8345299   3.115   2.901   0.352  0.4589 -1.4131  1.0588
   49MOL    H8445300   3.170   2.860   0.557 -0.6395  0.3234 -1.3124
   49MOL    H8545301   3.046   2.753   0.617 -1.2800 -0.0044 -0.5274
   49MOL    H8645302   3.118   2.579   0.431 -0.6132 -0.3971  1.0483
   49MOL    H8745303   3.244   2.696   0.395  0.6662 -0.7579  0.1721
   49MOL    H8845304   3.340   2.666   0.615 -1.2781  1.3427  0.3937
   49MOL    H8945305   3.335   2.524   0.521  0.4224 -0.3708  1.7588
   49MOL    H9045306   3.131   2.450   0.647 -1.4786  0.9113  0.2116
   49MOL    H9145307   3.135   2.590   0.749 -3.7681 -1.2316 -2.1828
   49MOL    H9245308   3.275   2.399   1.148  0.8638  1.4124  0.2916
   49MOL    H9345309   3.490   2.357   1.278 -0.0144 -0.8811  0.9981
   49MOL    H9445310   3.670   2.205   0.911 -1.1025  0.9866 -1.4211
   49MOL    H9545311   3.480   2.290   0.793  0.0299  0.3140 -0.1549
   49MOL    O9645312   3.823   2.192   1.400 -0.4961  0.3349 -0.1253
   49MOL    C9745313   3.749   2.079   1.454  0.1756 -0.2789 -0.5282
   49MOL    C9845314   3.827   1.957   1.407 -0.9948  0.3435  0.2966
   49MOL    C9945315   3.732   1.834   1.415  0.0928  0.4435 -0.0241
   49MOL   C10045316   3.623   1.832   1.309  0.0180 -0.1852 -0.7947
   49MOL   C10145317   3.654   1.843   1.165  0.4390 -0.2154 -0.1946
   49MOL   C10245318   3.538   1.798   1.078  0.4643 -0.2687 -1.1421
   49MOL   C10345319   3.423   1.905   1.078 -0.4041  0.8574 -0.2802
   49MOL   C10445320   3.312   1.862   0.979  0.9404 -0.8787  0.0913
   49MOL   C10545321   3.213   1.978   0.976 -0.4746  0.0227  0.1627
   49MOL   C10645322   3.077   1.916   0.920 -0.0036  0.2214 -0.7901
   49MOL   O10745323   3.100   1.853   0.797  0.3981  0.0824 -0.3749
   49MOL   C10845324   3.069   1.924   0.685 -0.0408 -0.5390 -0.4158
   49MOL   O10945325   3.036   2.044   0.685 -0.0961  0.2724 -0.4751
   49MOL   C11045326   3.080   1.845   0.566 -0.2731 -0.1913  0.4033
   49MOL   C11145327   3.109   1.908   0.445  0.5334 -0.2994 -0.1064
   49MOL   C11245328   3.129   1.830   0.326  0.2395  0.0998  0.3003
   49MOL   C11345329   3.109   1.692   0.324  0.7561 -0.0534  0.3203
   49MOL   C11445330   3.129   1.612   0.199  0.8931  0.2366  0.3406
   49MOL   O11545331   3.134   1.484   0.200 -0.3190 -0.3618 -0.3222
   49MOL   O11645332   3.148   1.686   0.091 -0.2854 -0.3839 -0.1280
   49MOL   C11745333   3.070   1.634   0.448  0.6345  0.7178  0.0202
   49MOL   C11845334   3.053   1.709   0.567  0.1973  0.0078  0.2450
   49MOL   H11945335   3.734   2.095   1.561  0.8956  0.2160 -0.5031
   49MOL   H12045336   3.655   2.074   1.399  0.0157 -1.9174 -0.1516
   49MOL   H12145337   3.907   1.948   1.481  0.6666  3.0169 -1.1023
   49MOL   H12245338   3.869   1.970   1.308 -0.7679 -2.2684  0.0021
   49MOL   H12345339   3.778   1.735   1.413 -1.2028 -0.1408 -1.2791
   49MOL   H12445340   3.682   1.848   1.511  1.7825 -3.2681  1.5434
   49MOL   H12545341   3.543   1.904   1.328 -2.0664 -2.0877 -2.1384
   49MOL   H12645342   3.572   1.738   1.324  1.0951 -0.5237  0.8728
   49MOL   H12745343   3.677   1.945   1.134 -0.7386 -0.3406 -1.5145
   49MOL   H12845344   3.744   1.785   1.142  0.1198 -0.5213 -0.6862
   49MOL   H12945345   3.574   1.798   0.975 -0.8402  2.2203 -1.6577
   49MOL   H13045346   3.499   1.698   1.096  0.2140 -0.0131 -0.2243
   49MOL   H13145347   3.378   1.918   1.176 -0.8323 -1.8256 -0.0705
   49MOL   H13245348   3.473   2.000   1.057 -1.0855  0.7985 -2.3395
   49MOL   H13345349   3.347   1.827   0.882 -0.0447 -1.3532 -0.0988
   49MOL   H13445350   3.251   1.777   1.010  1.1217 -0.7576  0.7955
   49MOL   H13545351   3.245   2.063   0.916  2.3898  0.4551  2.2358
   49MOL   H13645352   3.198   2.019   1.076  1.2818  2.0700 -0.3864
   49MOL   H13745353   2.994   1.985   0.912  0.3411  0.6437 -0.7411
   49MOL   H13845354   3.045   1.834   0.985 -0.2276  1.5827  0.8748
   49MOL   H13945355   3.126   2.015   0.449 -0.4434 -0.2059  2.6793
   49MOL   H14045356   3.147   1.873   0.229 -2.1517 -2.6860 -1.5023
   49MOL   H14145357   3.059   1.527   0.461  1.3942  0.5743 -0.4983
   49MOL   H14245358   3.023   1.659   0.658 -4.4411  0.7282 -0.7803
   49MOL   O14345359   3.141   1.605   7.934  0.8734  0.2157  0.2350
   49MOL   C14445360   3.275   1.575   7.907 -0.5800  0.2052  0.1037
   49MOL   C14545361   3.297   1.489   7.782  0.4113  0.3139  0.2862
   49MOL   C14645362   3.449   1.474   7.750  0.0645  0.3079  0.6804
   49MOL   C14745363   3.472   1.428   7.605  0.0063  0.0749  0.0239
   49MOL   C14845364   3.620   1.401   7.569 -0.1739 -1.1176  0.5421
   49MOL   C14945365   3.636   1.367   7.416 -0.2990  0.4335 -0.5770
   49MOL   C15045366   3.598   1.467   7.307  0.4376 -0.0061 -0.3331
   49MOL   C15145367   3.622   1.397   7.167 -0.1755 -0.1304  0.1745
   49MOL   C15245368   3.608   1.501   7.049 -0.9842 -0.6434 -0.5099
   49MOL   C15345369   3.648   1.430   6.916 -0.8236  0.0426 -0.2465
   49MOL   O15445370   3.791   1.408   6.901 -0.2981  0.1106 -0.4314
   49MOL   C15545371   3.833   1.317   6.812 -0.1783  0.1280  0.6119
   49MOL   O15645372   3.756   1.264   6.735  0.0182 -0.2632 -0.2581
   49MOL   C15745373   3.980   1.301   6.810 -0.0853  0.4910 -0.1571
   49MOL   C15845374   4.036   1.242   6.688  0.0610 -0.5141 -0.0575
   49MOL   C15945375   4.182   1.232   6.685  0.3468  0.0180  0.3047
   49MOL   C16045376   4.264   1.290   6.793 -1.0581  0.3570  0.0072
   49MOL   C16145377   4.419   1.282   6.789  0.0088  0.0085 -0.4655
   49MOL   O16245378   4.491   1.354   6.857 -0.0189  0.2323  0.3015
   49MOL   O16345379   4.472   1.181   6.712  0.3621  0.5623  0.2015
   49MOL   C16445380   4.205   1.348   6.906  0.5966  0.4681 -0.3072
   49MOL   C16545381   4.063   1.357   6.912  0.3271 -0.0684  0.5821
   49MOL   H16645382   3.335   1.666   7.903 -0.3847  0.1716  1.7616
   49MOL   H16745383   3.310   1.525   0.019  0.0901 -1.1900 -0.9363
   49MOL   H16845384   3.260   1.545   7.695  2.1124  0.9676 -0.0302
   49MOL   H16945385   3.249   1.392   7.792  0.6047  0.3972  2.0972
   49MOL   H17045386   3.507   1.564   7.768  0.9092 -0.5348  2.3811
   49MOL   H17145387   3.481   1.404   7.827 -0.3340 -1.0607 -0.3826
   49MOL   H17245388   3.428   1.507   7.544 -0.0746 -0.6991 -0.9357
   49MOL   H17345389   3.423   1.333   7.581 -3.0084  1.3936  0.6613
   49MOL   H17445390   3.684   1.488   7.583 -0.9700  0.1664 -3.2859
   49MOL   H17545391   3.663   1.312   7.616  4.3019  0.2547 -0.6867
   49MOL   H17645392   3.744   1.357   7.409 -0.2057 -0.4560  1.6590
   49MOL   H17745393   3.593   1.272   7.384  0.2163 -1.0710  2.9894
   49MOL   H17845394   3.494   1.497   7.318  1.3737  2.9325  0.9114
   49MOL   H17945395   3.657   1.558   7.315  0.5079  0.1017 -1.8563
   49MOL   H18045396   3.721   1.352   7.159 -0.2616 -0.1943 -0.5351
   49MOL   H18145397   3.546   1.321   7.151 -0.1410  0.1869 -1.5817
   49MOL   H18245398   3.677   1.582   7.078 -0.4887 -0.9178 -0.9104
   49MOL   H18345399   3.508   1.544   7.049 -0.2867  1.0452  0.1168
   49MOL   H18445400   3.627   1.502   6.836 -3.5868 -0.8513 -0.3705
   49MOL   H18545401   3.597   1.339   6.885 -0.5642  0.6024 -2.4311
   49MOL   H18645402   3.967   1.223   6.607  0.2059 -1.0115 -0.0699
   49MOL   H18745403   4.239   1.175   6.613 -2.1287 -1.9245 -0.1822
   49MOL   H18845404   4.266   1.380   6.988  0.4641  0.7658 -0.3266
   49MOL   H18945405   4.032   1.395   7.008  2.8166  2.7012  0.3845
   49MOL   O19045406   4.619   1.161   6.717 -0.0824 -0.0758  0.6608
   49MOL   C19145407   4.643   1.062   6.811  0.0283  0.8460 -0.1564
   49MOL   C19245408   4.593   0.923   6.754  0.2131 -0.1879  0.1607
   49MOL   C19345409   4.475   0.871   6.833 -0.1932  0.0188  0.2878
   49MOL   C19445410   4.332   0.892   6.780 -0.0612  0.1971 -0.5459
   49MOL   C19545411   4.212   0.832   6.859  0.0026 -0.3494 -0.6843
   49MOL   C19645412   4.069   0.832   6.781 -0.2235  0.0140  0.3029
   49MOL   C19745413   3.964   0.736   6.832 -0.3097 -0.5405 -0.5839
   49MOL   C19845414   3.814   0.750   6.772  0.3813  0.3962 -0.2165
   49MOL   C19945415   3.702   0.669   6.841  0.2447  0.4801 -0.3086
   49MOL   C20045416   3.559   0.682   6.772 -0.2345  0.4695 -0.3326
   49MOL   O20145417   3.486   0.791   6.838  0.0726  0.2276  0.4702
   49MOL   C20245418   3.360   0.814   6.803 -0.1141  0.6178 -0.1834
   49MOL   O20345419   3.297   0.753   6.717  0.1868  0.4661 -0.4262
   49MOL   C20445420   3.303   0.915   6.895  0.3225 -0.0317  0.4872
   49MOL   C20545421   3.163   0.928   6.882 -0.5115 -0.3283  0.7917
   49MOL   C20645422   3.092   1.015   6.966  0.0091 -0.0271 -0.0914
   49MOL   C20745423   3.169   1.110   7.042  0.3285 -0.4852  0.3032
   49MOL   C20845424   3.104   1.213   7.117  0.1295 -0.9408 -0.3891
   49MOL   O20945425   3.166   1.285   7.196  0.2982  0.1408  0.0356
   49MOL   O21045426   2.973   1.223   7.100 -0.0238  0.4045  0.4202
   49MOL   C21145427   3.306   1.096   7.049 -0.6754 -0.6768  0.1429
   49MOL   C21245428   3.377   0.995   6.980  0.0535 -0.6699  0.1086
   49MOL   H21345429   4.751   1.062   6.818  0.0008 -1.0509  0.3421
   49MOL   H21445430   4.587   1.077   6.903 -2.0999 -3.7756 -0.5711
   49MOL   H21545431   4.678   0.859   6.778  2.9311  2.9584 -0.7609
   49MOL   H21645432   4.581   0.913   6.646 -0.2530  0.9713  0.0968
   49MOL   H21745433   4.494   0.763   6.828  2.8986  0.4715  1.4388
   49MOL   H21845434   4.464   0.902   6.937  0.7666  0.0161  0.3945
   49MOL   H21945435   4.331   0.859   6.676 -2.2159  1.7679 -1.0550
   49MOL   H22045436   4.313   1.000   6.777  3.0519  0.8000 -1.1129
   49MOL   H22145437   4.235   0.729   6.883 -1.0904 -0.5010 -0.2639
   49MOL   H22245438   4.202   0.877   6.958 -1.1874 -1.8108 -0.1312
   49MOL   H22345439   4.035   0.935   6.787  1.7496  0.7179 -0.0162
   49MOL   H22445440   4.088   0.801   6.678 -2.3737 -0.0471 -0.0867
   49MOL   H22545441   4.001   0.635   6.815  5.6079  1.2124  0.7465
   49MOL   H22645442   3.950   0.752   6.939 -0.3445 -1.4587 -0.4460
   49MOL   H22745443   3.790   0.854   6.747  0.0606  0.3653 -0.0419
   49MOL   H22845444   3.825   0.705   6.674 -1.1189 -0.3313 -0.0578
   49MOL   H22945445   3.699   0.696   6.946 -2.3345  1.7788 -0.6713
   49MOL   H23045446   3.730   0.564   6.845  2.0703  0.9727  0.1232
   49MOL   H23145447   3.517   0.583   6.788 -0.0294  0.8043  2.5950
   49MOL   H23245448   3.562   0.697   6.664  1.0154  0.9119 -0.2429
   49MOL   H23345449   3.105   0.864   6.816  0.6689 -1.3324  0.7057
   49MOL   H23445450   2.984   1.018   6.970 -0.1029 -0.0518 -2.1416
   49MOL   H23545451   3.354   1.159   7.122 -0.6045 -0.1077 -0.3929
   49MOL   H23645452   3.483   0.981   6.990  0.3182  1.3324  0.3662
   49MOL   O23745453   2.910   1.346   7.169 -0.3100  0.3040  0.5112
   49MOL   C23845454   2.873   1.311   7.305  0.1144  0.1629  0.0825
   49MOL   C23945455   2.813   1.439   7.371  0.8237 -0.0947  0.8625
   49MOL   C24045456   2.737   1.419   7.500 -0.5881  0.5496  0.0434
   49MOL   C24145457   2.659   1.547   7.530 -0.3750  0.5937  0.3566
   49MOL   C24245458   2.530   1.567   7.446  0.7242  0.3666 -0.1465
   49MOL   C24345459   2.448   1.691   7.483  0.4256 -0.5046 -0.0737
   49MOL   C24445460   2.328   1.716   7.388  0.2448  0.3460  0.3456
   49MOL   C24545461   2.232   1.819   7.440  0.5285 -0.6576  0.2680
   49MOL   C24645462   2.109   1.838   7.353 -0.2497 -0.0920 -0.0869
   49MOL   C24745463   1.986   1.883   7.429 -0.5083 -0.1258 -0.4771
   49MOL   O24845464   1.920   1.776   7.486 -0.6216 -0.2944  0.6112
   49MOL   C24945465   1.810   1.781   7.565 -0.1579 -0.1638  0.1672
   49MOL   O25045466   1.750   1.886   7.577  0.2804 -0.1283  0.5468
   49MOL   C25145467   1.760   1.662   7.631  0.6585  0.2662  0.7856
   49MOL   C25245468   1.689   1.678   7.756  0.7124 -0.1143  0.2299
   49MOL   C25345469   1.656   1.569   7.840 -0.2631  0.4605  0.4033
   49MOL   C25445470   1.702   1.438   7.796  0.5370  0.1340  0.2931
   49MOL   C25545471   1.666   1.321   7.886 -0.0997  0.6089  0.3771
   49MOL   O25645472   1.595   1.328   0.015 -0.3117 -0.1355  0.0083
   49MOL   O25745473   1.704   1.197   7.836  0.7474  0.2909 -0.2048
   49MOL   C25845474   1.772   1.419   7.672 -0.3451 -0.4953  0.1920
   49MOL   C25945475   1.798   1.532   7.592  0.3226  0.2217  0.6724
   49MOL   H26045476   2.810   1.222   7.301  1.0418 -0.4933 -0.1073
   49MOL   H26145477   2.962   1.288   7.364  0.3794  1.9370  0.4082
   49MOL   H26245478   2.757   1.484   7.289  0.1533 -0.9637  0.8429
   49MOL   H26345479   2.894   1.509   7.394  0.8094 -0.3308  1.6362
   49MOL   H26445480   2.665   1.342   7.473  0.8887 -0.4501 -1.1201
   49MOL   H26545481   2.797   1.381   7.582 -1.9176 -0.3098  0.6281
   49MOL   H26645482   2.718   1.639   7.527  0.9470 -0.1758  1.9974
   49MOL   H26745483   2.623   1.537   7.632 -0.0103  0.6167  0.4866
   49MOL   H26845484   2.553   1.565   7.339  1.0330 -2.7446 -0.0562
   49MOL   H26945485   2.474   1.476   7.466  1.5782  0.2584  1.9045
   49MOL   H27045486   2.423   1.691   7.589  0.6092 -0.5479 -0.0303
   49MOL   H27145487   2.511   1.777   7.463 -0.8550  0.6128  0.6395
   49MOL   H27245488   2.370   1.758   7.296 -0.1920  2.5704  1.1373
   49MOL   H27345489   2.273   1.627   7.358 -0.7392  1.0425  0.0786
   49MOL   H27445490   2.200   1.782   7.538  3.3300  0.1636  1.5797
   49MOL   H27545491   2.288   1.910   7.465  1.3274 -1.1060  0.1364
   49MOL   H27645492   2.086   1.748   7.296 -0.5921  1.4098 -2.3741
   49MOL   H27745493   2.141   1.915   7.284  0.1586 -0.8846 -0.7916
   49MOL   H27845494   1.919   1.942   7.367 -0.4508  0.7403  0.2749
   49MOL   H27945495   2.012   1.946   7.515 -1.3306 -3.1188  2.0778
   49MOL   H28045496   1.661   1.775   7.794 -1.7458 -0.9862  0.7105
   49MOL   H28145497   1.608   1.590   7.935 -2.9854  1.2402 -1.0757
   49MOL   H28245498   1.806   1.319   7.649 -1.3084 -1.2368  1.8765
   49MOL   H28345499   1.863   1.523   7.506 -3.0986  0.2421 -1.9976
   49MOL   O28445500   1.671   1.082   7.922  0.0489 -0.4665  0.3236
   49MOL   C28545501   1.562   1.022   7.859 -0.1624 -0.3903  0.0314
   49MOL   C28645502   1.589   0.874   7.872  0.4892  0.7940 -0.1421
   49MOL   C28745503   1.584   0.830   0.044  0.5893 -0.0462  0.5094
   49MOL   C28845504   1.577   0.680   0.047  0.7205  0.3155 -0.4363
   49MOL   C28945505   1.538   0.637   0.191 -0.4661 -0.5696 -0.2088
   49MOL   C29045506   1.392   0.654   0.231  0.0444 -0.9617  0.0460
   49MOL   C29145507   1.284   0.575   0.159 -0.4539  0.1367 -0.0526
   49MOL   C29245508   1.139   0.613   0.208 -0.3803  0.0915  0.6434
   49MOL   C29345509   1.018   0.547   0.132 -0.3937  0.1595  0.2529
   49MOL   C29445510   0.880   0.608   0.158  0.5098 -0.0260 -0.1424
   49MOL   O29545511   0.799   0.585   0.043 -0.2718 -0.4307  0.4173
   49MOL   C29645512   0.669   0.597   0.057 -0.1730  0.1119  0.2178
   49MOL   O29745513   0.609   0.624   0.159  0.7485  0.2371  0.0305
   49MOL   C29845514   0.600   0.568   7.907  0.3276 -1.4841 -0.1489
   49MOL   C29945515   0.638   0.474   7.810 -0.0336  0.5823  0.3556
   49MOL   C30045516   0.575   0.473   7.679 -0.1999 -0.0643  1.1728
   49MOL   C30145517   0.480   0.568   7.644 -0.7145 -0.4088 -0.4243
   49MOL   C30245518   0.427   0.564   7.503  0.5446  0.1659  0.1927
   49MOL   O30345519   0.391   0.663   7.446  0.4175 -0.4636  0.2143
   49MOL   O30445520   0.426   0.445   7.445 -0.1352 -0.0013  0.2073
   49MOL   C30545521   0.441   0.663   7.740 -0.0226  0.3635 -0.5337
   49MOL   C30645522   0.497   0.657   7.874  0.2993 -0.2291  0.2785
   49MOL   H30745523   1.472   1.057   7.909  0.6658  0.5217  0.9198
   49MOL   H30845524   1.562   1.044   7.752 -0.5988 -1.5586 -0.2088
   49MOL   H30945525   1.688   0.846   7.836  1.9673  3.1964  1.9375
   49MOL   H31045526   1.513   0.823   7.812  0.3708  1.5631 -0.6540
   49MOL   H31145527   1.677   0.863   0.092  2.5610  0.6305 -3.5546
   49MOL   H31245528   1.501   0.875   0.098  1.6270  1.2919  1.0478
   49MOL   H31345529   1.675   0.634   0.032  0.6323 -1.9301  4.8123
   49MOL   H31445530   1.501   0.647   7.954 -0.0158  1.1220 -0.0329
   49MOL   H31545531   1.560   0.531   0.199 -1.8813 -0.8563  0.0412
   49MOL   H31645532   1.610   0.684   0.258 -0.1871 -0.4701 -0.5787
   49MOL   H31745533   1.391   0.636   0.339  1.0669 -0.1493  0.2038
   49MOL   H31845534   1.373   0.760   0.224  3.8256 -0.3644 -3.0698
   49MOL   H31945535   1.290   0.586   0.051  0.8964 -2.4369 -0.2789
   49MOL   H32045536   1.296   0.468   0.175  0.2987  0.4576  1.6255
   49MOL   H32145537   1.128   0.585   0.313 -1.0367 -1.6104  0.1346
   49MOL   H32245538   1.121   0.720   0.207  1.2295  0.3616 -0.1541
   49MOL   H32345539   1.023   0.442   0.159  1.5359 -0.0533 -0.8335
   49MOL   H32445540   1.049   0.556   0.028 -0.9432 -0.3440  0.0408
   49MOL   H32545541   0.882   0.715   0.179 -1.7615 -0.0419  0.2686
   49MOL   H32645542   0.833   0.566   0.247  0.1739 -0.0831 -0.3456
   49MOL   H32745543   0.712   0.403   7.844  0.4901  0.4749 -0.9840
   49MOL   H32845544   0.608   0.389   7.621  0.1762  0.7633  0.1859
   49MOL   H32945545   0.366   0.737   7.716 -2.4670 -1.3428  1.6297
   49MOL   H33045546   0.460   0.727   7.948 -0.8114 -0.8022  0.2719
   49MOL   O33145547   0.383   0.452   7.297  0.7352 -0.1525  0.6732
   49MOL   C33245548   0.506   0.447   7.225 -0.0523 -0.3313 -0.0741
   49MOL   C33345549   0.493   0.425   7.071  0.1883 -0.0904 -0.3857
   49MOL   C33445550   0.629   0.409   7.005  0.2478 -0.2740  0.2652
   49MOL   C33545551   0.610   0.396   6.852 -0.0766 -0.3541  0.0946
   49MOL   C33645552   0.748   0.403   6.773  0.1428  0.0973 -0.2361
   49MOL   C33745553   0.728   0.383   6.624 -0.3002 -0.3152  0.4203
   49MOL   C33845554   0.691   0.241   6.586 -0.3387 -0.0407 -0.0312
   49MOL   C33945555   0.676   0.197   6.445  0.2780 -0.1040  0.1771
   49MOL   C34045556   0.615   0.054   6.427  0.0310  0.0868  0.6098
   49MOL   C34145557   0.633   7.975   6.286  0.7301 -0.0616  0.4346
   49MOL   O34245558   0.548   7.857   6.290 -0.3426  0.2658 -0.2704
   49MOL   C34345559   0.599   7.738   6.257  0.0207  0.4329 -0.4043
   49MOL   O34445560   0.715   7.715   6.219  0.1576  0.9654  0.2986
   49MOL   C34545561   0.498   7.626   6.287  0.7816 -0.1130 -0.2399
   49MOL   C34645562   0.558   7.503   6.304  0.3202  0.1149 -0.5554
   49MOL   C34745563   0.480   7.392   6.346  0.5943 -0.8334  0.0588
   49MOL   C34845564   0.340   7.409   6.351 -0.2131 -0.7856 -0.7347
   49MOL   C34945565   0.259   7.294   6.393 -0.3142  0.3289  0.0049
   49MOL   O35045566   0.143   7.303   6.429  0.6316 -0.0528 -0.3527
   49MOL   O35145567   0.322   7.176   6.362 -0.3301  0.2224  0.4878
   49MOL   C35245568   0.277   7.531   6.327  0.0668  0.5408  0.2463
   49MOL   C35345569   0.357   7.642   6.295  0.5475  0.1281  0.0768
   49MOL   H35445570   0.567   0.535   7.248 -2.1152  0.4434  2.7916
   49MOL   H35545571   0.559   0.362   7.268  0.9067 -0.1351 -0.8304
   49MOL   H35645572   0.447   0.516   7.031  1.0379  0.2072 -0.7025
   49MOL   H35745573   0.420   0.346   7.056  1.1357 -0.8435 -1.1002
   49MOL   H35845574   0.686   0.495   7.041  1.4881 -1.1471  0.3943
   49MOL   H35945575   0.677   0.314   7.026 -0.2575 -0.9838 -1.6948
   49MOL   H36045576   0.570   0.491   6.819 -3.2151 -1.2718  1.0954
   49MOL   H36145577   0.546   0.317   6.814 -0.4079 -0.2018  0.3370
   49MOL   H36245578   0.803   0.493   6.797 -1.3874  0.5741  1.5497
   49MOL   H36345579   0.810   0.320   6.806  0.6439  0.1406 -1.0620
   49MOL   H36445580   0.654   0.450   6.580 -1.0301 -1.5798 -0.3187
   49MOL   H36545581   0.818   0.408   6.569  0.2173 -0.6550  1.1030
   49MOL   H36645582   0.770   0.182   6.634  0.9248  0.2014 -1.7666
   49MOL   H36745583   0.598   0.211   6.635  0.5611 -1.6205  0.7596
   49MOL   H36845584   0.607   0.263   6.392 -1.9781 -2.4811  0.0512
   49MOL   H36945585   0.771   0.209   6.393  0.4271 -2.5485 -0.1867
   49MOL   H37045586   0.508   0.066   6.446  0.1808  1.6327  0.5002
   49MOL   H37145587   0.658   7.967   6.503  1.3548  0.1352 -0.0987
   49MOL   H37245588   0.740   7.956   6.273  0.9509  0.5862  1.2394
   49MOL   H37345589   0.590   0.065   6.212  2.4105 -0.3225 -0.8144
   49MOL   H37445590   0.666   7.494   6.309  0.1967 -1.6905 -0.7929
   49MOL   H37545591   0.531   7.299   6.366  2.0129 -0.4854 -1.7567
   49MOL   H37645592   0.172   7.548   6.342 -0.1272  0.0257 -0.4971
   49MOL   H37745593   0.304   7.734   6.273  0.0470 -0.6390 -2.1312
   49MOL   O37845594   0.237   7.054   6.375  0.6762 -0.5280 -0.7723
   49MOL   C37945595   0.203   7.012   6.246  0.5871 -0.2745  0.1410
   49MOL   C38045596   0.108   6.897   6.269  0.9888 -0.5820 -0.3602
   49MOL   C38145597   0.087   6.813   6.141 -0.1286 -0.3728 -0.3442
   49MOL   C38245598   7.965   6.700   6.177 -0.3029  0.6132 -0.2072
   49MOL   C38345599   7.907   6.628   6.053  0.4386 -0.0733  0.0108
   49MOL   C38445600   7.770   6.561   6.073  0.0688 -0.1624 -0.1918
   49MOL   C38545601   7.711   6.492   5.946  0.5252  0.2512  0.5144
   49MOL   C38645602   7.610   6.376   5.967 -0.2332 -0.5186  0.2804
   49MOL   C38745603   7.619   6.277   5.847 -0.0080  0.2713 -0.3232
   49MOL   C38845604   7.482   6.271   5.777 -0.5492  0.6282  0.5990
   49MOL   O38945605   7.399   6.191   5.853 -0.2887 -0.4105 -0.4485
   49MOL   C39045606   7.273   6.184   5.815  0.5032  0.9027 -0.1708
   49MOL   O39145607   7.224   6.234   5.717  0.4666 -0.3060  0.1764
   49MOL   C39245608   7.202   6.079   5.891 -0.6860  0.3902 -0.1005
   49MOL   C39345609   7.263   6.004   5.995 -0.1731 -0.3441 -0.1063
   49MOL   C39445610   7.198   5.888   6.055  0.1750 -0.1840  0.3782
   49MOL   C39545611   7.069   5.852   6.015 -0.1115  0.4497  1.0374
   49MOL   C39645612   6.989   5.730   6.065 -0.3506 -0.5438  0.2918
   49MOL   O39745613   6.872   5.703   6.045  0.0646  0.1171  0.4690
   49MOL   O39845614   7.064   5.657   6.158 -0.3534 -0.1278  0.0595
   49MOL   C39945615   7.007   5.933   5.919 -0.2357  0.1175 -0.0558
   49MOL   C40045616   7.071   6.037   5.856 -0.2630 -0.9711 -0.6427
   49MOL   H40145617   0.158   7.089   6.184  3.1402  1.7148  0.6431
   49MOL   H40245618   0.289   6.963   6.200 -0.9852 -2.4124 -0.5627
   49MOL   H40345619   0.022   6.947   6.313  1.0779 -0.7288 -0.0110
   49MOL   H40445620   0.156   6.839   6.348  2.5904  0.4913 -0.5230
   49MOL   H40545621   0.056   6.875   6.056  1.8570  0.2043 -0.6766
   49MOL   H40645622   0.175   6.752   6.121  1.3902  0.2472  3.8345
   49MOL   H40745623   7.884   6.749   6.232 -1.0010 -1.3798  0.5910
   49MOL   H40845624   0.025   6.624   6.245 -3.0546 -1.7834 -1.2350
   49MOL   H40945625   7.893   6.695   5.969 -1.9478  0.4316  0.7664
   49MOL   H41045626   0.007   6.562   6.014 -1.5705 -0.9281 -2.6763
   49MOL   H41145627   7.787   6.478   6.141 -0.2298  1.0970  1.4327
   49MOL   H41245628   7.692   6.621   6.119  0.7813 -0.3656  1.2976
   49MOL   H41345629   7.663   6.572   5.890  2.9908  0.5319 -1.2902
   49MOL   H41445630   7.796   6.437   5.904 -0.2432 -2.0002  1.8155
   49MOL   H41545631   7.615   6.327   6.064  0.8918 -0.3569  0.3055
   49MOL   H41645632   7.507   6.408   5.980 -1.0316 -2.8821 -0.0470
   49MOL   H41745633   7.656   6.179   5.879 -0.2180 -0.6414 -2.7376
   49MOL   H41845634   7.701   6.301   5.778  1.0245 -1.8347  0.1265
   49MOL   H41945635   7.508   6.217   5.686  1.4635  0.1884  1.4274
   49MOL   H42045636   7.438   6.366   5.747  0.2901  0.0946 -2.4116
   49MOL   H42145637   7.359   6.037   6.032 -0.0794 -1.1872  0.4167
   49MOL   H42245638   7.245   5.830   6.132 -1.7482 -3.7256 -1.0228
   49MOL   H42345639   6.914   5.895   5.878 -0.0781 -1.0526  0.6334
   49MOL   H42445640   7.018   6.092   5.780  3.0249  0.3318 -2.0792
   49MOL   O42545641   6.987   5.571   6.241 -0.2803 -0.0119 -0.1577
   49MOL   C42645642   6.965   5.444   6.183 -0.5472 -0.2805 -0.4867
   49MOL   C42745643   6.860   5.367   6.269  0.9073 -0.1702  0.7894
   49MOL   C42845644   6.884   5.219   6.270 -0.2390 -0.1095  0.1346
   49MOL   C42945645   6.798   5.135   6.364 -0.0073 -0.7642  0.5916
   49MOL   C43045646   6.803   5.179   6.505 -0.5836  0.7004  0.5024
   49MOL   C43145647   6.712   5.085   6.581  0.3995 -0.0139  0.0304
   49MOL   C43245648   6.698   5.109   6.730 -0.4033  0.5346 -0.5105
   49MOL   C43345649   6.595   5.017   6.793  0.2643 -0.1105  0.6778
   49MOL   C43445650   6.576   5.041   6.947  0.0373  0.4477 -0.5154
   49MOL   C43545651   6.437   5.016   6.998  0.1034  0.0654 -0.4479
   49MOL   O43645652   6.406   4.874   6.988 -0.4041  0.2799 -0.1987
   49MOL   C43745653   6.294   4.828   7.039 -0.1869  0.3604  0.4552
   49MOL   O43845654   6.212   4.885   7.114  0.2319 -0.4716  0.6622
   49MOL   C43945655   6.259   4.694   6.980 -0.3017 -0.3791 -0.2133
   49MOL   C44045656   6.356   4.610   6.920  0.2467 -0.2088  0.6269
   49MOL   C44145657   6.321   4.487   6.861  0.0458  0.0298  0.6500
   49MOL   C44245658   6.190   4.447   6.871 -0.4610  0.3376 -1.0967
   49MOL   C44345659   6.146   4.313   6.820 -1.0464  0.4110  0.2459
   49MOL   O44445660   6.029   4.285   6.806  0.0244 -0.0935  0.1973
   49MOL   O44545661   6.247   4.232   6.804  0.8383  0.3466 -0.3512
   49MOL   C44645662   6.095   4.535   6.920  1.1435  0.0492 -0.0909
   49MOL   C44745663   6.125   4.659   6.971 -0.6445 -0.7054  0.1987
   49MOL   H44845664   6.920   5.445   6.083  1.6290  0.1984 -1.5001
   49MOL   H44945665   7.063   5.397   6.175  0.3927  1.3064  1.2486
   49MOL   H45045666   6.758   5.383   6.236  1.3256 -0.7733 -0.8403
   49MOL   H45145667   6.858   5.406   6.371 -1.4884  1.0360  0.3263
   49MOL   H45245668   6.871   5.174   6.172 -1.0773 -0.9319  0.6221
   49MOL   H45345669   6.991   5.201   6.283 -0.1707  0.5681  0.5677
   49MOL   H45445670   6.846   5.038   6.358  2.0458  0.2063  0.8675
   49MOL   H45545671   6.695   5.129   6.328 -0.5555 -1.3617  2.2154
   49MOL   H45645672   6.905   5.164   6.539 -0.4730  0.8115  0.2216
   49MOL   H45745673   6.783   5.285   6.518  0.9499  0.9592  0.7912
   49MOL   H45845674   6.615   5.075   6.533 -0.3469 -1.0245  1.7002
   49MOL   H45945675   6.759   4.987   6.573 -1.4637 -1.0728  1.5796
   49MOL   H46045676   6.788   5.111   6.791 -0.4709  0.6064 -0.4166
   49MOL   H46145677   6.648   5.205   6.742 -1.5125 -0.1976  0.7688
   49MOL   H46245678   6.498   5.046   6.752 -0.3901 -0.2161  2.1532
   49MOL   H46345679   6.601   4.911   6.767 -0.7256 -0.2514  0.9962
   49MOL   H46445680   6.586   5.148   6.963 -1.4731  0.4981  0.2210
   49MOL   H46545681   6.652   4.993   7.009 -0.3486 -0.9478 -1.1084
   49MOL   H46645682   6.375   5.074   6.930  0.1142  1.6916  0.8969
   49MOL   H46745683   6.420   5.064   7.095  1.2338 -0.8155  0.1965
   49MOL   H46845684   6.461   4.634   6.913  0.0937  0.0770 -1.1068
   49MOL   H46945685   6.396   4.428   6.811  0.6330  1.9183 -0.7674
   49MOL   H47045686   5.991   4.507   6.927  0.5478  2.2812  0.3798
   49MOL   H47145687   6.047   4.721   7.010  0.7014  1.5904 -0.6755
   49MOL   O47245688   6.201   4.120   6.716 -0.2175  0.0698  0.0019
   49MOL   C47345689   6.219   3.998   6.779 -0.0859 -0.2379 -0.2833
   49MOL   C47445690   6.135   3.887   6.717 -0.6260  0.2190  0.4616
   49MOL   C47545691   6.176   3.844   6.585 -0.0052 -0.1006 -0.0649
   49MOL   C47645692   6.081   3.743   6.521 -0.1821 -0.2130  0.3741
   49MOL   C47745693   6.149   3.682   6.395  0.2295  0.0135  0.3836
   49MOL   C47845694   6.068   3.580   6.315  1.1401 -0.0399 -0.0789
   49MOL   C47945695   6.042   3.449   6.391  0.3252  0.3427 -0.5903
   49MOL   C48045696   5.982   3.331   6.305 -0.5568 -0.7448  0.1392
   49MOL   C48145697   5.947   3.203   6.387 -0.7480 -0.0698 -0.4745
   49MOL   C48245698   5.913   3.079   6.306 -0.4560 -0.5114 -0.5026
   49MOL   O48345699   5.783   3.102   6.250 -0.1941  0.1612  0.2929
   49MOL   C48445700   5.730   3.003   6.165 -0.3321 -0.5451 -0.0831
   49MOL   O48545701   5.792   2.902   6.126 -0.2646  0.0251 -0.2234
   49MOL   C48645702   5.593   3.055   6.122  0.3832  0.2425 -0.0883
   49MOL   C48745703   5.532   3.180   6.159 -0.3231 -0.0571 -0.2014
   49MOL   C48845704   5.401   3.221   6.118 -0.2562 -0.7324 -0.3689
   49MOL   C48945705   5.319   3.130   6.052 -0.5776 -0.0101 -0.7502
   49MOL   C49045706   5.177   3.171   6.026 -0.2221 -0.6378  0.3351
   49MOL   O49145707   5.104   3.108   5.950  0.2653  0.0801 -0.0972
   49MOL   O49245708   5.141   3.288   6.088  0.1861  0.0961  0.0193
   49MOL   C49345709   5.379   3.011   6.013 -0.4910  0.2869  0.8223
   49MOL   C49445710   5.509   2.974   6.045  0.4242  0.9129 -0.3590
   49MOL   H49545711   6.325   3.973   6.784 -0.1022  0.0317  1.4863
   49MOL   H49645712   6.190   4.005   6.884 -0.0013 -3.7773  0.0305
   49MOL   H49745713   6.035   3.930   6.708 -0.6196 -0.0272 -0.9725
   49MOL   H49845714   6.136   3.803   6.785  0.1726  0.2559  0.4915
   49MOL   H49945715   6.164   3.928   6.516 -0.8304 -0.9000 -0.9016
   49MOL   H50045716   6.280   3.810   6.587  0.1349  0.3909  1.5773
   49MOL   H50145717   5.986   3.791   6.496  0.8684  1.2556 -0.9046
   49MOL   H50245718   6.058   3.671   6.599 -0.8113 -0.0357  0.3509
   49MOL   H50345719   6.183   3.764   6.333 -0.7816 -0.6567 -1.0688
   49MOL   H50445720   6.248   3.642   6.416  0.1476 -0.4796 -0.1594
   49MOL   H50545721   5.975   3.628   6.284  1.4477  1.1193  0.7650
   49MOL   H50645722   6.132   3.567   6.228  1.2569 -0.7305  0.1133
   49MOL   H50745723   6.140   3.419   6.427 -0.0020  1.0180  0.8899
   49MOL   H50845724   5.979   3.472   6.477 -0.7809 -2.6616 -0.5577
   49MOL   H50945725   5.894   3.364   6.250 -0.6860 -1.2705  0.0292
   49MOL   H51045726   6.055   3.312   6.225 -2.1186 -1.1257 -1.2236
   49MOL   H51145727   5.874   3.218   6.467  1.2341 -0.4774  1.4589
   49MOL   H51245728   6.040   3.184   6.440 -0.9362 -1.3190 -0.5679
   49MOL   H51345729   5.900   2.996   6.375 -0.6484  0.7819  1.0556
   49MOL   H51445730   5.981   3.056   6.224 -0.9705  1.0858 -1.3960
   49MOL   H51545731   5.589   3.258   6.209 -0.5065 -0.2055  0.2410
   49MOL   H51645732   5.362   3.313   6.158 -0.7159 -1.4687  0.9043
   49MOL   H51745733   5.323   2.943   5.950 -0.0160 -0.1894  0.9127
   49MOL   H51845734   5.548   2.880   6.007  0.0875  1.2136 -1.4538
   49MOL   O51945735   4.992   3.326   6.083 -0.3288  0.5406 -0.0386
   49MOL   C52045736   4.927   3.265   6.194 -0.6177  0.2389 -0.4934
   49MOL   C52145737   4.807   3.350   6.220  0.9291  0.4940 -0.5473
   49MOL   C52245738   4.827   3.499   6.247 -0.4812 -0.1239  0.2853
   49MOL   C52345739   4.697   3.570   6.291  0.1955 -0.5878  0.1354
   49MOL   C52445740   4.708   3.710   6.361 -0.0224 -0.7240  0.1822
   49MOL   C52545741   4.755   3.698   6.504 -0.4613 -0.5457 -0.7033
   49MOL   C52645742   4.780   3.836   6.573  0.1674  0.7055  0.0445
   49MOL   C52745743   4.864   3.839   6.702 -0.3378 -0.1313 -0.8254
   49MOL   C52845744   4.892   3.987   6.744 -0.8960  0.8501  0.3282
   49MOL   C52945745   4.989   3.980   6.863  0.0494  0.6215  0.2354
   49MOL   O53045746   5.019   4.108   6.922  0.0144 -0.0667 -0.3546
   49MOL   C53145747   5.144   4.163   6.931  0.4971 -0.2202  0.3768
   49MOL   O53245748   5.241   4.114   6.876 -0.2990 -0.5754  0.4537
   49MOL   C53345749   5.148   4.287   7.016 -0.2575 -0.8173  0.9332
   49MOL   C53445750   5.269   4.357   7.024  0.3909  0.4371  0.9418
   49MOL   C53545751   5.280   4.473   7.097 -0.6594  0.1307  0.1361
   49MOL   C53645752   5.169   4.526   7.161 -0.2498  0.1907  0.1987
   49MOL   C53745753   5.195   4.649   7.245  0.0260 -0.1170  0.1324
   49MOL   O53845754   5.302   4.706   7.258  0.4494 -0.0952  0.2990
   49MOL   O53945755   5.083   4.692   7.311  0.0061 -0.3467  0.2257
   49MOL   C54045756   5.044   4.456   7.161  0.1212  0.3670  0.1473
   49MOL   C54145757   5.033   4.337   7.081 -0.7632 -0.4134 -0.3832
   49MOL   H54245758   4.902   3.160   6.176  0.7298 -0.3182  0.8010
   49MOL   H54345759   4.995   3.271   6.279  0.8919  0.7077 -1.7061
   49MOL   H54445760   4.762   3.312   6.312  1.7374  1.0087  0.0726
   49MOL   H54545761   4.740   3.337   6.136 -0.1546  0.5926  0.2864
   49MOL   H54645762   4.897   3.504   6.330  2.2835 -1.0413 -1.8913
   49MOL   H54745763   4.867   3.538   6.153  0.4483 -1.9170 -0.0893
   49MOL   H54845764   4.632   3.499   6.341  0.9224  0.1858  2.2139
   49MOL   H54945765   4.641   3.588   6.199 -1.5844  0.3089  1.3660
   49MOL   H55045766   4.768   3.777   6.298  1.4044 -0.8187  1.4260
   49MOL   H55145767   4.605   3.746   6.365  0.0203 -0.7646  1.9597
   49MOL   H55245768   4.685   3.640   6.566  2.2964 -3.3123 -0.0261
   49MOL   H55345769   4.846   3.638   6.498  0.9510  1.6888 -1.7555
   49MOL   H55445770   4.824   3.904   6.500  0.8554  0.8279  0.5653
   49MOL   H55545771   4.683   3.879   6.596  0.2939  1.1039 -0.1745
   49MOL   H55645772   4.813   3.794   6.787 -0.3329  1.3061 -0.0578
   49MOL   H55745773   4.956   3.782   6.690 -0.3455 -0.3535  0.1884
   49MOL   H55845774   4.806   4.035   6.790  0.4075  3.9819 -0.3599
   49MOL   H55945775   4.945   4.050   6.672  0.6876 -0.4807  0.2973
   49MOL   H56045776   5.079   3.921   6.843  0.6408  1.9577 -1.1878
   49MOL   H56145777   4.943   3.923   6.944  3.8599  1.2571  2.9780
   49MOL   H56245778   5.355   4.306   6.983  0.0790  1.2245 -0.7363
   49MOL   H56345779   5.381   4.509   7.111 -0.3106 -0.6114 -0.4517
   49MOL   H56445780   4.967   4.483   7.231 -0.3527  0.9206 -0.5871
   49MOL   H56545781   4.943   4.278   7.082 -0.7303 -0.4660 -0.5843
   49MOL   O56645782   5.115   4.794   7.420  0.2052  0.2587  0.3070
   49MOL   C56745783   5.067   4.915   7.380  0.0796 -0.4253 -0.5447
   49MOL   C56845784   4.917   4.918   7.350  0.3138 -0.2874  0.3213
   49MOL   C56945785   4.882   5.067   7.343  0.3777 -0.5616  0.3268
   49MOL   C57045786   4.733   5.095   7.292  0.1743 -0.0005 -0.4145
   49MOL   C57145787   4.700   5.247   7.282 -0.2911  0.2432  0.4355
   49MOL   C57245788   4.558   5.287   7.224 -0.6022  1.1714 -0.1685
   49MOL   C57345789   4.521   5.441   7.226 -0.4871 -0.5023  0.5563
   49MOL   C57445790   4.609   5.546   7.149  0.4474  0.3936 -0.3443
   49MOL   C57545791   4.520   5.661   7.107  0.1724 -0.3145 -0.0728
   49MOL   C57645792   4.586   5.764   7.003 -0.3940  0.1836 -0.2934
   49MOL   O57745793   4.546   5.727   6.869 -0.7504  0.2758 -0.5080
   49MOL   C57845794   4.631   5.762   6.773  0.1466  0.1467  0.6706
   49MOL   O57945795   4.734   5.823   6.791 -0.1624 -0.7109 -0.6936
   49MOL   C58045796   4.576   5.727   6.638 -0.9169  0.7322  0.1569
   49MOL   C58145797   4.659   5.753   6.529  0.0967 -0.3042  0.2254
   49MOL   C58245798   4.624   5.703   6.402  0.4216 -0.3815 -0.7815
   49MOL   C58345799   4.497   5.636   6.383 -0.5025 -0.3194  0.5494
   49MOL   C58445800   4.446   5.603   6.247 -0.1512 -0.5147 -0.2847
   49MOL   O58545801   4.350   5.534   6.214  0.0116 -0.1978  0.1503
   49MOL   O58645802   4.519   5.674   6.149 -0.4023 -0.0791  0.2596
   49MOL   C58745803   4.414   5.609   6.495  0.5276 -0.5116  0.0852
   49MOL   C58845804   4.454   5.657   6.624 -0.3591 -0.4992  0.0591
   49MOL   H58945805   5.087   4.988   7.458  3.1907 -0.3446 -1.3588
   49MOL   H59045806   5.126   4.952   7.296 -1.2611 -2.0882 -2.2460
   49MOL   H59145807   4.852   4.862   7.417  1.1038 -0.2257  1.1436
   49MOL   H59245808   4.885   4.872   7.257  3.4333  1.6696 -1.8121
   49MOL   H59345809   4.888   5.116   7.440 -1.4915  1.3122 -0.4661
   49MOL   H59445810   4.948   5.118   7.273 -1.0846 -0.0310 -0.6953
   49MOL   H59545811   4.669   5.054   7.369  1.4331 -0.6963  0.2709
   49MOL   H59645812   4.726   5.048   7.194 -0.6187 -0.7488 -0.0019
   49MOL   H59745813   4.726   5.290   7.378 -1.9661  2.7444 -0.1864
   49MOL   H59845814   4.779   5.299   7.226  1.2840 -0.2159  2.1883
   49MOL   H59945815   4.545   5.234   7.130 -1.5445  0.9217  0.1022
   49MOL   H60045816   4.485   5.249   7.295 -0.3124  1.3339  0.2180
   49MOL   H60145817   4.414   5.452   7.207 -0.1504  2.1864 -0.0073
   49MOL   H60245818   4.520   5.462   7.333 -0.1418 -0.8394  0.6282
   49MOL   H60345819   4.685   5.596   7.209 -0.1473  2.4017 -1.2125
   49MOL   H60445820   4.652   5.498   7.062 -3.2511 -0.2238 -1.9384
   49MOL   H60545821   4.496   5.709   7.202 -0.0947 -2.7055  1.1060
   49MOL   H60645822   4.426   5.632   7.059  0.7266  0.7806 -1.8992
   49MOL   H60745823   4.694   5.754   7.014 -0.3522  0.5578 -0.3365
   49MOL   H60845824   4.558   5.868   7.022  0.8730  0.9531 -2.4032
   49MOL   H60945825   4.741   5.823   6.521  0.7582 -1.0351  0.5515
   49MOL   H61045826   4.682   5.742   6.319 -0.4310 -1.0093 -1.6873
   49MOL   H61145827   4.317   5.562   6.485  0.3232 -0.4874  1.7976
   49MOL   H61245828   4.384   5.643   6.705 -1.6631 -1.1545 -1.1438
   49MOL   O61345829   4.474   5.637   6.011  0.4113 -0.2536 -0.5430
   49MOL   C61445830   4.575   5.557   5.948  0.2264 -0.6580  0.2694
   49MOL   C61545831   4.597   5.631   5.814  0.0631 -0.1284  0.0800
   49MOL   C61645832   4.474   5.673   5.735 -0.1688  0.0241 -0.4512
   49MOL   C61745833   4.365   5.563   5.704  0.5051 -0.4314 -0.0302
   49MOL   C61845834   4.418   5.442   5.631  0.4907  0.2030 -0.1426
   49MOL   C61945835   4.322   5.323   5.604  0.3930 -0.5338 -0.5257
   49MOL   C62045836   4.203   5.351   5.511 -0.6114  0.2670  0.4264
   49MOL   C62145837   4.143   5.218   5.458 -0.6906  0.4725  0.4726
   49MOL   C62245838   4.025   5.249   5.372  0.3824 -0.7161 -0.2286
   49MOL   C62345839   3.975   5.123   5.304 -0.0416 -0.2928 -0.7695
   49MOL   O62445840   3.912   5.027   5.387  0.5895  0.2617 -0.2848
   49MOL   C62545841   3.849   4.922   5.337  0.3929  0.1724  0.3972
   49MOL   O62645842   3.857   4.902   5.216  0.6592 -0.3726  0.3022
   49MOL   C62745843   3.765   4.842   5.428  0.1230  0.2876 -0.2590
   49MOL   C62845844   3.665   4.753   5.382  0.8054 -0.1381  0.0224
   49MOL   C62945845   3.600   4.661   5.467  0.3519 -0.2638 -0.1742
   49MOL   C63045846   3.625   4.667   5.606 -0.0016 -0.0207  0.1471
   49MOL   C63145847   3.555   4.563   5.693 -0.1681 -0.3119 -0.5097
   49MOL   O63245848   3.553   4.571   5.818  0.2153  0.2110  0.5584
   49MOL   O63345849   3.486   4.478   5.623 -0.2382  0.1918  0.0376
   49MOL   C63445850   3.706   4.773   5.654  0.7074 -0.1160  0.7272
   49MOL   C63545851   3.790   4.848   5.569  0.1897 -0.1356 -0.3824
   49MOL   H63645852   4.670   5.556   6.002 -0.0390 -0.6512  0.7358
   49MOL   H63745853   4.537   5.456   5.933  0.0047 -0.2547 -2.0469
   49MOL   H63845854   4.677   5.592   5.752  0.1821 -1.1043  0.8310
   49MOL   H63945855   4.650   5.721   5.844  0.2762 -0.1321 -0.2851
   49MOL   H64045856   4.435   5.763   5.781 -1.5229 -0.8002  0.0521
   49MOL   H64145857   4.517   5.715   5.644 -0.0748 -1.8793 -1.3164
   49MOL   H64245858   4.282   5.609   5.651  1.3755  1.5952  0.3339
   49MOL   H64345859   4.321   5.523   5.795 -3.6438  1.3741 -1.1297
   49MOL   H64445860   4.455   5.479   5.535  2.9848  1.6811  1.3161
   49MOL   H64545861   4.516   5.409   5.665  1.6715  0.4623 -3.0848
   49MOL   H64645862   4.389   5.240   5.578 -0.5999 -0.8707 -2.0293
   49MOL   H64745863   4.294   5.274   5.698  0.0960  1.3978  0.4057
   49MOL   H64845864   4.123   5.403   5.562  0.3244  1.6000  0.5610
   49MOL   H64945865   4.232   5.411   5.425 -0.6938  0.0471  0.2436
   49MOL   H65045866   4.222   5.164   5.406 -0.3232  0.6413  0.8634
   49MOL   H65145867   4.123   5.152   5.542 -0.9307  2.6257  2.1325
   49MOL   H65245868   4.059   5.335   5.315 -0.2125 -1.8402 -2.3256
   49MOL   H65345869   3.947   5.289   5.436 -0.7573 -0.8472 -1.5065
   49MOL   H65445870   4.052   5.077   5.241  0.8526  0.2897 -0.1045
   49MOL   H65545871   3.897   5.164   5.241 -0.5643  0.3193  0.2729
   49MOL   H65645872   3.646   4.755   5.276  1.7992  0.1447 -0.1552
   49MOL   H65745873   3.521   4.594   5.434 -0.7363  0.7194  0.4063
   49MOL   H65845874   3.704   4.784   5.762  0.4420 -1.4727  0.8741
   49MOL   H65945875   3.867   4.912   5.607  0.7148  0.5943 -2.6211
   49MOL   O66045876   3.393   4.391   5.703 -0.1625  0.1002  0.6761
   49MOL   C66145877   3.263   4.446   5.718 -0.1861  0.4214  0.0520
   49MOL   C66245878   3.216   4.520   5.577  0.1610  0.2155  0.3376
   49MOL   C66345879   3.191   4.418   5.460  0.5233 -0.3519  0.1412
   49MOL   C66445880   3.181   4.485   5.320  0.0932  0.1994  0.0406
   49MOL   C66545881   3.055   4.570   5.292  0.1964  0.6331  0.0256
   49MOL   C66645882   2.963   4.505   5.193  0.6950  0.3998 -0.8213
   49MOL   C66745883   2.845   4.596   5.151  0.8564 -0.8942 -0.0482
   49MOL   C66845884   2.764   4.547   5.031 -0.3753 -0.2389 -0.4609
   49MOL   C66945885   2.676   4.415   5.065 -0.5493  0.2321 -0.0862
   49MOL   C67045886   2.623   4.344   4.950  0.9394  0.0502 -0.6937
   49MOL   O67145887   2.735   4.314   4.866  0.3281 -0.2993  0.1062
   49MOL   C67245888   2.720   4.221   4.778  0.8080 -0.0931 -0.1579
   49MOL   O67345889   2.618   4.151   4.768 -0.1511 -0.3033  0.0392
   49MOL   C67445890   2.842   4.214   4.697 -0.0459 -0.0454  0.6988
   49MOL   C67545891   2.861   4.097   4.625 -0.4682  0.5257  0.4772
   49MOL   C67645892   2.981   4.073   4.554  0.7728 -0.1920 -0.1845
   49MOL   C67745893   3.078   4.181   4.553 -0.0522  0.1312  0.3337
   49MOL   C67845894   3.210   4.161   4.479 -0.2889  0.2247 -0.0650
   49MOL   O67945895   3.234   4.057   4.420 -0.3875 -0.1049  0.4254
   49MOL   O68045896   3.295   4.266   4.493 -0.6276 -0.0010  0.4281
   49MOL   C68145897   3.056   4.293   4.629 -0.0199 -0.6425  0.4513
   49MOL   C68245898   2.937   4.314   4.692 -0.1134 -0.0160 -0.4245
   49MOL   H68345899   3.197   4.361   5.736  0.6485 -0.5098 -1.2210
   49MOL   H68445900   3.250   4.516   5.801 -0.3428 -1.0210  1.2634
   49MOL   H68545901   3.290   4.594   5.548  0.2491  0.2861  0.7361
   49MOL   H68645902   3.127   4.581   5.594  0.5988  1.2131 -0.9037
   49MOL   H68745903   3.277   4.351   5.460  1.4542  0.7432  3.1988
   49MOL   H68845904   3.102   4.358   5.480  0.4049  0.4872  2.4023
   49MOL   H68945905   3.200   4.416   5.239 -0.4586  1.6763 -1.3781
   49MOL   H69045906   3.259   4.552   5.284 -1.9066  1.9295 -1.2123
   49MOL   H69145907   2.999   4.600   5.381  1.3018  2.7486  0.0502
   49MOL   H69245908   3.089   4.665   5.251  0.2984  0.5778 -0.0161
   49MOL   H69345909   3.014   4.479   5.101  0.4740 -0.6734 -0.6484
   49MOL   H69445910   2.927   4.413   5.241  4.0882  1.0623  3.2715
   49MOL   H69545911   2.771   4.612   5.229  0.7417  0.0256 -0.3411
   49MOL   H69645912   2.882   4.696   5.129 -3.6810  1.2555  1.6128
   49MOL   H69745913   2.700   4.631   5.002 -1.0581 -0.6909 -0.2917
   49MOL   H69845914   2.831   4.529   4.948  1.8362  2.6389  0.6133
   49MOL   H69945915   2.596   4.436   5.136  0.0573 -0.7816  0.9239
   49MOL   H70045916   2.746   4.344   5.110 -0.4591  1.1214  1.2262
   49MOL   H70145917   2.556   4.415   4.900 -0.1524 -0.7837 -0.4494
   49MOL   H70245918   2.570   4.257   4.987 -1.3115  1.8111  0.3518
   49MOL   H70345919   2.789   4.017   4.636 -0.2375  0.1590 -0.5547
   49MOL   H70445920   3.003   3.982   4.501  1.0318 -1.2143  1.6535
   49MOL   H70545921   3.122   4.378   4.637 -2.6352  1.4251  1.0702
   49MOL   H70645922   2.914   4.411   4.734  1.3282  1.0198 -1.9535
   49MOL   O70745923   3.419   4.251   4.404  0.0884 -0.3033  0.6459
   49MOL   C70845924   3.528   4.200   4.482  0.5107  0.0547  0.6304
   49MOL   C70945925   3.639   4.159   4.396  0.4985 -0.5425 -0.1874
   49MOL   C71045926   3.597   4.029   4.316 -0.1209 -0.2837  0.6283
   49MOL   C71145927   3.720   3.975   4.241 -0.1383  0.0220  0.0651
   49MOL   C71245928   3.830   3.908   4.336 -0.5354  0.0203 -1.0820
   49MOL   C71345929   3.944   3.842   4.256 -0.4078  0.1074 -0.3786
   49MOL   C71445930   4.073   3.802   4.338 -0.5362 -0.3578 -0.0110
   49MOL   C71545931   4.145   3.911   4.422 -0.1536  0.2482 -0.6486
   49MOL   C71645932   4.259   3.857   4.500  1.0486  0.0254  0.1114
   49MOL   C71745933   4.330   3.972   4.576 -0.1466  0.7684  0.2308
   49MOL   O71845934   4.392   4.054   4.475 -0.3661 -0.2781 -0.3010
   49MOL   C71945935   4.364   4.186   4.485  0.1955 -0.5665  0.1142
   49MOL   O72045936   4.304   4.234   4.580  0.3195  0.3908  0.2922
   49MOL   C72145937   4.409   4.257   4.361 -0.4270 -0.2166  0.1438
   49MOL   C72245938   4.401   4.395   4.365 -0.1497 -0.2242 -0.1391
   49MOL   C72345939   4.412   4.465   4.249  0.7324  0.1094 -0.0681
   49MOL   C72445940   4.455   4.402   4.130  0.6199  0.4014  0.4004
   49MOL   C72545941   4.490   4.483   4.014  0.1915 -0.3834  0.8115
   49MOL   O72645942   4.470   4.602   3.993 -0.3592  0.0860 -0.5192
   49MOL   O72745943   4.578   4.414   3.935  0.8933  0.4492 -0.0154
   49MOL   C72845944   4.468   4.262   4.129 -0.2652  0.2578 -0.2714
   49MOL   C72945945   4.444   4.187   4.249  0.1590 -0.4702 -0.6934
   49MOL   H73045946   3.555   4.273   4.558  2.3735 -0.1712  0.2007
   49MOL   H73145947   3.507   4.114   4.546  1.9567 -1.2326 -0.5903
   49MOL   H73245948   3.721   4.138   4.464 -1.0914  0.7648  2.2242
   49MOL   H73345949   3.664   4.238   4.326  0.0596  0.1441  0.4114
   49MOL   H73445950   3.537   3.960   4.374 -2.4020  1.3890  0.3052
   49MOL   H73545951   3.518   4.065   4.250  1.2095  0.4979 -0.5763
   49MOL   H73645952   3.754   4.058   4.179  1.6203 -0.6471  0.1042
   49MOL   H73745953   3.678   3.905   4.168  1.2389 -1.3183  0.5325
   49MOL   H73845954   3.866   3.985   4.404 -1.5939 -2.0820  1.9889
   49MOL   H73945955   3.786   3.826   4.394  0.4663 -0.2429 -0.6914
   49MOL   H74045956   3.902   3.755   4.206 -0.4302 -0.1771  0.1320
   49MOL   H74145957   3.967   3.897   4.165  2.6291  0.0901  0.3201
   49MOL   H74245958   4.053   3.709   4.390  0.5810 -0.3325  0.4846
   49MOL   H74345959   4.149   3.772   4.265 -0.2170  1.2982 -0.3756
   49MOL   H74445960   4.173   3.990   4.352 -3.6241 -0.2046 -2.6602
   49MOL   H74545961   4.074   3.959   4.489 -0.0020 -0.9939  0.4139
   49MOL   H74645962   4.324   3.806   4.429  0.5812  0.1740 -0.4289
   49MOL   H74745963   4.224   3.778   4.566  0.4769 -0.0175 -0.2393
   49MOL   H74845964   4.408   3.938   4.644  0.3136 -0.8140 -1.0627
   49MOL   H74945965   4.256   4.022   4.639 -0.5103  0.9188 -0.3034
   49MOL   H75045966   4.374   4.462   4.446 -1.9992  4.3920 -4.3338
   49MOL   H75145967   4.405   4.573   4.249  0.9236  0.1203  0.2568
   49MOL   H75245968   4.502   4.204   4.045  1.0555 -0.3325  0.6488
   49MOL   H75345969   4.459   4.080   4.247  1.1118 -0.4672  2.4741
   49MOL   O75445970   4.644   4.495   3.838 -0.3364 -0.1938 -0.1260
   49MOL   C75545971   4.782   4.475   3.859  0.0895 -0.1006 -0.2173
   49MOL   C75645972   4.863   4.546   3.746  0.1793 -0.3945 -0.4889
   49MOL   C75745973   4.858   4.473   3.606  0.1455  0.3689  0.1795
   49MOL   C75845974   4.971   4.512   3.513  0.2807  0.0518 -0.3942
   49MOL   C75945975   5.101   4.441   3.552  0.5075  0.2160 -0.5593
   49MOL   C76045976   5.207   4.514   3.469 -0.5115  0.7575  0.6405
   49MOL   C76145977   5.328   4.429   3.431 -1.2648  0.4988  0.2000
   49MOL   C76245978   5.430   4.421   3.545 -0.4777  0.0353  0.2307
   49MOL   C76345979   5.562   4.360   3.497  0.9206 -0.2542 -0.5152
   49MOL   C76445980   5.658   4.357   3.621  0.4924  0.1521 -0.2375
   49MOL   O76545981   5.604   4.280   3.725 -0.1180 -0.3466 -0.1752
   49MOL   C76645982   5.639   4.288   3.850  0.3607  0.0405  0.0005
   49MOL   O76745983   5.728   4.362   3.886 -0.5502  0.3440 -0.3027
   49MOL   C76845984   5.551   4.213   3.944  0.2384  0.1398 -0.2715
   49MOL   C76945985   5.575   4.211   4.085 -0.7792  0.3567  0.0748
   49MOL   C77045986   5.488   4.129   4.169  0.0086 -0.0647  0.1595
   49MOL   C77145987   5.385   4.054   4.115 -0.2793  0.6766  0.0487
   49MOL   C77245988   5.296   3.963   4.193 -0.5873  0.0163  0.5215
   49MOL   O77345989   5.194   3.919   4.149  0.0690  0.1029 -0.1479
   49MOL   O77445990   5.346   3.934   4.318  0.3969  0.1651  0.6106
   49MOL   C77545991   5.358   4.060   3.974 -0.7140 -0.4672 -0.3672
   49MOL   C77645992   5.445   4.134   3.889  0.6982  0.1911 -0.6452
   49MOL   H77745993   4.799   4.523   3.955  0.3277  0.2738 -0.4438
   49MOL   H77845994   4.814   4.371   3.870  1.1912  0.3622  1.2029
   49MOL   H77945995   4.967   4.529   3.776 -0.3403 -0.7417  1.2137
   49MOL   H78045996   4.832   4.651   3.745 -2.1205 -1.0133  1.6406
   49MOL   H78145997   4.877   4.368   3.628  2.5698  0.9076  0.8088
   49MOL   H78245998   4.759   4.488   3.564  0.5418  1.2632 -0.4359
   49MOL   H78345999   4.993   4.619   3.514  0.8843 -0.0667 -0.5798
   49MOL   H78446000   4.936   4.490   3.412  0.1954 -3.7475  0.3817
   49MOL   H78546001   5.128   4.435   3.657  0.6794 -0.8220 -0.6647
   49MOL   H78646002   5.106   4.336   3.525 -0.1384  0.1179 -0.2780
   49MOL   H78746003   5.171   4.542   3.370  1.1990  3.2021  0.6408
   49MOL   H78846004   5.241   4.610   3.508  2.7516 -0.1339  0.1474
   49MOL   H78946005   5.306   4.327   3.400  0.7457 -0.7257  2.6304
   49MOL   H79046006   5.383   4.479   3.350 -0.7869 -0.0195  0.2012
   49MOL   H79146007   5.452   4.522   3.580 -0.6297  1.0705 -2.5358
   49MOL   H79246008   5.397   4.361   3.629  0.3283 -1.1360 -0.2716
   49MOL   H79346009   5.609   4.413   3.414  0.8766  0.4821 -0.0760
   49MOL   H79446010   5.541   4.259   3.464 -0.0029 -0.8294  1.7880
   49MOL   H79546011   5.677   4.460   3.651 -3.7119  0.6300  1.2160
   49MOL   H79646012   5.758   4.319   3.601  0.7139 -0.5262  1.9939
   49MOL   H79746013   5.660   4.263   4.127 -2.1282  1.4128  1.5494
   49MOL   H79846014   5.505   4.126   4.275  0.2827 -0.2719  0.1114
   49MOL   H79946015   5.279   3.998   3.933 -0.0228 -0.7023 -1.3610
   49MOL   H80046016   5.416   4.139   3.785 -2.2380 -0.8476  0.0925
   49MOL   O80146017   5.254   3.837   4.396  0.2554  1.0774 -0.3809
   49MOL   C80246018   5.265   3.705   4.356  1.0724 -0.1120  0.3699
   49MOL   C80346019   5.124   3.651   4.348  0.5374 -0.9884 -0.0954
   49MOL   C80446020   5.124   3.496   4.345 -0.1818  0.7916  0.0161
   49MOL   C80546021   4.996   3.426   4.305  0.7272  0.3228  0.1304
   49MOL   C80646022   4.978   3.275   4.331  0.4566 -0.6849 -0.4982
   49MOL   C80746023   5.016   3.217   4.467  0.0844 -0.1598  0.1046
   49MOL   C80846024   4.931   3.274   4.584 -0.2192 -0.1371  0.4446
   49MOL   C80946025   4.972   3.210   4.719  0.6522 -0.5352 -0.7848
   49MOL   C81046026   4.880   3.257   4.844 -0.0707  0.1264  0.0395
   49MOL   C81146027   4.928   3.195   4.978 -0.3902  0.6543 -0.4305
   49MOL   O81246028   5.061   3.233   5.009 -0.1472 -0.6326 -0.2759
   49MOL   C81346029   5.092   3.249   5.132  0.0644  0.8115 -0.1510
   49MOL   O81446030   5.013   3.221   5.226 -0.2018  0.3858 -0.1678
   49MOL   C81546031   5.229   3.304   5.154  0.8902  0.1269 -0.0060
   49MOL   C81646032   5.316   3.329   5.047  0.4427 -0.8430  0.2837
   49MOL   C81746033   5.444   3.389   5.072  0.8763 -0.0543 -0.5498
   49MOL   C81846034   5.486   3.415   5.203  0.7931  0.6255 -0.0799
   49MOL   C81946035   5.626   3.467   5.224  0.4403 -0.6273  0.1011
   49MOL   O82046036   5.682   3.476   5.334  0.6532 -0.5365 -0.5182
   49MOL   O82146037   5.693   3.508   5.110  0.4672  0.0593 -0.0347
   49MOL   C82246038   5.397   3.386   5.314  0.0402  0.4415  0.0987
   49MOL   C82346039   5.268   3.335   5.289 -0.7946  0.1631  0.4647
   49MOL   H82446040   5.308   3.690   4.257  1.8681  0.4376  0.6295
   49MOL   H82546041   5.326   3.641   4.420 -0.6274 -0.3145  1.8400
   49MOL   H82646042   5.060   3.686   4.267 -1.0824 -2.0090  0.7267
   49MOL   H82746043   5.082   3.681   4.444  1.0854 -1.4085  0.2834
   49MOL   H82846044   5.198   3.458   4.275  0.8578  1.4239  0.7565
   49MOL   H82946045   5.150   3.462   4.446 -1.9958 -0.1577  0.1763
   49MOL   H83046046   4.959   3.445   4.205 -1.5462 -0.2241  0.8520
   49MOL   H83146047   4.918   3.470   4.367 -2.1040 -1.9749 -1.6495
   49MOL   H83246048   4.870   3.268   4.319  0.4974 -0.5162 -0.9672
   49MOL   H83346049   5.024   3.219   4.251  0.7669  0.5383 -1.1866
   49MOL   H83446050   5.008   3.108   4.461  0.2136 -0.0779 -2.0252
   49MOL   H83546051   5.124   3.234   4.472  0.3491 -1.2702 -1.3599
   49MOL   H83646052   4.931   3.382   4.593  1.3562  0.0900 -1.8683
   49MOL   H83746053   4.828   3.256   4.552 -0.7237  3.7135 -0.2952
   49MOL   H83846054   4.969   3.101   4.727  1.7091 -0.4797  0.3625
   49MOL   H83946055   5.073   3.249   4.736  0.5953 -0.6078 -0.2766
   49MOL   H84046056   4.777   3.239   4.813  0.6751  0.0429 -2.4318
   49MOL   H84146057   4.896   3.364   4.855  0.1421 -0.0724  1.9530
   49MOL   H84246058   4.933   3.087   4.966 -0.4696  0.3526  1.8916
   49MOL   H84346059   4.856   3.219   5.057 -0.7930 -1.5023 -0.0990
   49MOL   H84446060   5.293   3.312   4.943  4.1891  0.7383 -0.8746
   49MOL   H84546061   5.505   3.395   4.983  0.5555 -2.5600 -0.9687
   49MOL   H84646062   5.425   3.408   5.416 -3.1781  0.4590  1.0313
   49MOL   H84746063   5.202   3.319   5.373 -3.4356  0.6278 -1.4301
   49MOL   O84846064   5.839   3.526   5.119 -0.3812 -0.2573 -0.2938
   49MOL   C84946065   5.866   3.661   5.152 -0.4396 -0.2490 -0.3141
   49MOL   C85046066   6.016   3.683   5.161  0.5438  0.9680 -0.0085
   49MOL   C85146067   6.058   3.834   5.156 -0.5465  0.4266 -0.1166
   49MOL   C85246068   6.214   3.849   5.179 -0.2023  0.3423  0.1261
   49MOL   C85346069   6.238   4.005   5.182  0.1474 -0.8526  0.2033
   49MOL   C85446070   6.391   4.032   5.190  0.1598  0.0860 -0.7764
   49MOL   C85546071   6.412   4.185   5.179 -0.1410  0.2331  0.8754
   49MOL   C85646072   6.561   4.223   5.192  0.0049 -0.2411 -0.0769
   49MOL   C85746073   6.617   4.227   5.331  0.0909 -0.0076  0.1875
   49MOL   C85846074   6.771   4.258   5.326  0.8306 -0.1866  0.1280
   49MOL   O85946075   6.823   4.198   5.441  0.5825 -0.1005  0.5135
   49MOL   C86046076   6.850   4.281   5.552 -0.0282  0.8457 -0.3902
   49MOL   O86146077   6.819   4.402   5.558  0.0768 -0.5136  0.3993
   49MOL   C86246078   6.913   4.209   5.669  1.1127  0.4075  0.5307
   49MOL   C86346079   6.945   4.068   5.668  0.6350  0.0941  0.3584
   49MOL   C86446080   6.974   4.004   5.794  0.2342 -0.0018  0.1135
   49MOL   C86546081   6.977   4.078   5.916 -0.1475 -0.2948 -0.3939
   49MOL   C86646082   7.007   4.014   6.044 -0.8560 -0.3775 -0.4976
   49MOL   O86746083   6.995   4.077   6.152 -0.1652  0.3006 -0.0580
   49MOL   O86846084   7.062   3.896   6.027  0.1660  0.0759  0.8935
   49MOL   C86946085   6.959   4.216   5.915 -0.2799  0.6388  0.0152
   49MOL   C87046086   6.925   4.281   5.793  0.6403  0.2064 -0.2160
   49MOL   H87146087   5.816   3.731   5.086 -1.5166  1.6212  2.3795
   49MOL   H87246088   5.830   3.685   5.252 -2.4507 -0.0327 -1.0584
   49MOL   H87346089   6.067   3.615   5.093 -1.0073 -1.5961  1.2883
   49MOL   H87446090   6.051   3.644   5.256  0.3177  1.8683  0.4495
   49MOL   H87546091   6.035   3.886   5.063 -1.3667  1.9521  0.9087
   49MOL   H87646092   6.004   3.882   5.239  1.3479  2.8365 -0.2119
   49MOL   H87746093   6.269   3.807   5.095  3.1366  0.3056  2.2492
   49MOL   H87846094   6.245   3.802   5.272  0.0379 -0.1119 -0.1778
   49MOL   H87946095   6.192   4.051   5.094  0.5013  0.0840  0.4951
   49MOL   H88046096   6.187   4.060   5.262  0.8679  1.4255 -0.8733
   49MOL   H88146097   6.430   4.012   5.290 -1.3694  5.3020  1.0339
   49MOL   H88246098   6.456   3.987   5.115  1.2021 -0.6096  0.5223
   49MOL   H88346099   6.389   4.212   5.076 -0.9214 -0.5139  0.8469
   49MOL   H88446100   6.354   4.244   5.249  1.0635  1.0695  1.1717
   49MOL   H88546101   6.625   4.150   5.144 -1.7490 -1.3314 -0.8160
   49MOL   H88646102   6.568   4.324   5.151  1.8799  0.2960  1.4974
   49MOL   H88746103   6.593   4.135   5.384 -0.7581 -0.5446 -1.1046
   49MOL   H88846104   6.565   4.308   5.383  0.3405  0.2153  0.0921
   49MOL   H88946105   6.792   4.364   5.315  0.7759 -0.2596 -0.7653
   49MOL   H89046106   6.811   4.217   5.233  0.9691 -1.2855  0.6543
   49MOL   H89146107   6.945   4.015   5.574  2.2948 -0.0209  0.4165
   49MOL   H89246108   6.985   3.897   5.786  1.0794  0.1666 -1.1555
   49MOL   H89346109   6.962   4.275   6.005  0.7782 -1.0301  1.1158
   49MOL   H89446110   6.918   4.388   5.795 -2.5173  0.0372  4.0328
   49MOL   O89546111   7.113   3.834   6.158  0.2400 -0.2606  0.1500
   49MOL   C89646112   7.005   3.776   6.232  0.6039  0.1397 -0.3760
   49MOL   C89746113   6.950   3.655   6.167  0.2885 -0.7333 -0.2259
   49MOL   C89846114   6.900   3.651   6.024 -0.1737  0.0737  0.0748
   49MOL   C89946115   6.826   3.518   6.003  0.2300 -0.3509  0.0877
   49MOL   C90046116   6.736   3.517   5.884  0.3738 -0.3158 -0.2930
   49MOL   C90146117   6.692   3.379   5.843 -0.6813  0.0114  0.1983
   49MOL   C90246118   6.611   3.357   5.722  0.2773 -0.1138 -0.3841
   49MOL   C90346119   6.593   3.206   5.702 -0.2321  0.0025 -0.3608
   49MOL   C90446120   6.533   3.205   5.563  0.7212 -0.2590  0.7635
   49MOL   C90546121   6.489   3.064   5.525  0.3035  0.5805 -0.0734
   49MOL   O90646122   6.531   3.041   5.391  0.0285  0.2369 -0.4125
   49MOL   C90746123   6.438   3.003   5.300  0.6679 -0.0406 -0.2126
   49MOL   O90846124   6.314   2.975   5.325  0.3770 -0.3833  0.6659
   49MOL   C90946125   6.498   2.986   5.166  0.0639  0.2313 -0.4447
   49MOL   C91046126   6.604   3.068   5.123  0.1804  0.1152 -0.1952
   49MOL   C91146127   6.668   3.051   4.999  0.2089  0.3055  0.3153
   49MOL   C91246128   6.617   2.950   4.914  0.1342  0.3620  0.6159
   49MOL   C91346129   6.680   2.929   4.777 -0.1231 -0.6929  0.0831
   49MOL   O91446130   6.783   2.992   4.752  0.0472 -0.1095 -0.0018
   49MOL   O91546131   6.619   2.840   4.691 -0.5561  0.3484 -0.8122
   49MOL   C91646132   6.501   2.874   4.952 -0.5953  0.2824  0.9238
   49MOL   C91746133   6.444   2.887   5.079  0.7080  0.2042 -0.3265
   49MOL   H91846134   7.034   3.741   6.331  0.8311  0.7555 -0.2185
   49MOL   H91946135   6.918   3.841   6.227 -0.2077 -1.0472 -2.6113
   49MOL   H92046136   6.868   3.626   6.233  4.2303 -2.4116  4.2119
   49MOL   H92146137   7.012   3.566   6.180 -0.0960 -0.9904 -0.1436
   49MOL   H92246138   6.828   3.730   6.003 -1.4227 -0.9719  0.3437
   49MOL   H92346139   6.981   3.671   5.954  0.4507 -0.5848  0.6026
   49MOL   H92446140   6.774   3.494   6.096  1.8727  1.4440  1.5041
   49MOL   H92546141   6.911   3.450   5.998  1.0435  0.4658  2.5144
   49MOL   H92646142   6.649   3.574   5.918 -0.3309 -0.9121 -1.0721
   49MOL   H92746143   6.774   3.572   5.798 -1.2272  1.7780  0.2858
   49MOL   H92846144   6.780   3.317   5.827 -0.4870  0.9435 -2.7365
   49MOL   H92946145   6.647   3.335   5.932 -0.7383  3.1607  1.8078
   49MOL   H93046146   6.513   3.401   5.742 -0.4496 -2.3936  1.2566
   49MOL   H93146147   6.650   3.410   5.635  1.5374  0.7634  0.6848
   49MOL   H93246148   6.688   3.153   5.714 -0.2339 -0.2250 -1.3120
   49MOL   H93346149   6.519   3.173   5.775  0.1801 -0.7301 -0.2680
   49MOL   H93446150   6.613   3.245   5.501  2.3357 -2.8229  1.1151
   49MOL   H93546151   6.449   3.274   5.560 -0.1798 -1.1907  3.3586
   49MOL   H93646152   6.381   3.057   5.535  0.1932  0.5797 -1.1955
   49MOL   H93746153   6.521   2.983   5.590 -1.2596 -0.8390 -1.0250
   49MOL   H93846154   6.643   3.141   5.193  5.7800 -2.9872  0.1781
   49MOL   H93946155   6.752   3.112   4.966  0.2675 -0.2366 -0.5488
   49MOL   H94046156   6.458   2.803   4.883 -1.2759  1.6065 -0.0234
   49MOL   H94146157   6.361   2.822   5.104  1.0940 -0.0937  0.2088
   49MOL   H94246158   6.673   2.825   4.615  0.6134 -0.2071  0.1133
   50MOL     O146159   0.549   4.082   0.163 -0.5058 -0.1017  0.2018
   50MOL     C246160   0.488   4.189   0.090  0.3355  0.5298 -0.2684
   50MOL     C346161   0.338   4.166   0.071 -0.3336  0.3890 -0.6526
   50MOL     C446162   0.277   4.278   7.954 -0.2086  0.4228  0.1208
   50MOL     C546163   0.128   4.281   7.934 -0.1127 -0.7395 -0.5317
   50MOL     C646164   0.068   4.147   7.883  0.2935  0.4790  0.7993
   50MOL     C746165   7.890   4.157   7.891  0.2165  0.3021 -0.0243
   50MOL     C846166   7.832   4.024   7.837 -0.3899  0.2414  0.1479
   50MOL     C946167   7.838   3.914   7.942  0.9276  0.2895 -0.6239
   50MOL    C1046168   7.837   3.777   7.875 -0.0060  0.2537  0.3214
   50MOL    C1146169   7.776   3.657   7.948 -0.0134 -0.5276  0.0810
   50MOL    O1246170   7.856   3.646   0.088 -0.4471 -0.0564  0.3918
   50MOL    C1346171   7.841   3.540   0.161  0.0360 -0.5792 -0.4844
   50MOL    O1446172   7.753   3.455   0.143 -0.2683 -0.5410 -0.1912
   50MOL    C1546173   7.926   3.532   0.281 -0.0652 -0.3081  0.5415
   50MOL    C1646174   7.894   3.444   0.389 -0.6792 -0.4231 -0.2566
   50MOL    C1746175   0.000   3.429   0.500 -0.7039  0.3792  0.6960
   50MOL    C1846176   0.126   3.489   0.498 -0.1836  0.1009  0.6048
   50MOL    C1946177   0.213   3.481   0.614  0.5703  0.8261  0.2837
   50MOL    O2046178   0.325   3.540   0.619 -0.2043  0.4064 -0.3752
   50MOL    O2146179   0.171   3.404   0.721  0.3633  0.1283  0.2120
   50MOL    C2246180   0.169   3.560   0.383 -0.1740  0.1199  0.1382
   50MOL    C2346181   0.075   3.587   0.283 -0.0217  0.2023 -0.5226
   50MOL    H2446182   0.504   4.286   0.137 -2.5332  0.6386  0.5663
   50MOL    H2546183   0.524   4.196   7.965 -2.0328 -0.9299 -1.2505
   50MOL    H2646184   0.276   4.153   0.160 -0.4706  3.2752 -0.2961
   50MOL    H2746185   0.335   4.069   0.022 -1.0592 -0.8123  1.6986
   50MOL    H2846186   0.316   4.371   0.018 -0.6589 -0.0511  1.6059
   50MOL    H2946187   0.314   4.271   7.852 -1.9705 -2.3557 -0.3533
   50MOL    H3046188   0.099   4.358   7.862  0.4207  2.1798  2.2700
   50MOL    H3146189   0.076   4.298   0.050 -0.0969  0.5680 -0.7399
   50MOL    H3246190   0.104   4.147   7.780  0.6693 -1.7953  0.9219
   50MOL    H3346191   0.103   4.057   7.933  1.3511 -0.1977 -1.0905
   50MOL    H3446192   7.854   4.189   0.010 -1.9777  1.0771 -1.0511
   50MOL    H3546193   7.864   4.231   7.815  2.0719 -0.8944 -1.9047
   50MOL    H3646194   7.729   4.045   7.810 -0.4214 -0.2900 -0.1602
   50MOL    H3746195   7.876   3.992   7.742 -1.5636  1.3100 -0.7731
   50MOL    H3846196   7.919   3.934   0.034 -0.0808  1.1920  0.3038
   50MOL    H3946197   7.758   3.925   0.037  0.2998 -0.3993 -1.2095
   50MOL    H4046198   7.931   3.761   7.822 -1.1174  0.6029 -1.8542
   50MOL    H4146199   7.770   3.774   7.788  1.6406  1.1185 -0.9944
   50MOL    H4246200   7.771   3.564   7.891  1.5940  0.7205 -2.2347
   50MOL    H4346201   7.674   3.674   0.004  0.1769  0.3372  0.2379
   50MOL    H4446202   7.806   3.382   0.388  0.5093 -2.1673  1.2632
   50MOL    H4546203   7.938   3.356   0.569  1.2538 -3.0817 -1.6736
   50MOL    H4646204   0.265   3.607   0.371  0.1061 -0.6576 -0.7738
   50MOL    H4746205   0.121   3.632   0.197  3.0030 -0.4618  0.6956
   50MOL    H4846206   0.520   4.001   0.122 -1.1225 -1.2136  2.7150
   50MOL    O4946207   0.266   3.400   0.840  0.4288  0.8101 -0.2184
   50MOL    C5046208   0.219   3.488   0.943 -0.1076  0.0553 -0.0986
   50MOL    C5146209   0.254   3.638   0.914 -0.4419  0.3245 -0.2370
   50MOL    C5246210   0.235   3.736   1.028 -0.1582 -0.0883 -0.5740
   50MOL    C5346211   0.234   3.891   0.986 -0.0003  0.3670  0.2595
   50MOL    C5446212   0.119   3.940   0.903  0.1908 -0.2155 -0.1897
   50MOL    C5546213   7.961   3.922   0.964 -0.1132  0.3732  0.1432
   50MOL    C5646214   7.857   4.007   0.898 -0.1953  0.4474  0.0338
   50MOL    C5746215   7.726   3.995   0.973  0.4002 -0.4437 -0.2448
   50MOL    C5846216   7.625   3.901   0.904 -0.3548 -0.7008  0.1106
   50MOL    C5946217   7.496   3.887   0.972  0.4846  0.3727 -0.5226
   50MOL    O6046218   7.400   3.823   0.887 -0.2031 -0.0021 -0.1886
   50MOL    C6146219   7.384   3.691   0.899 -0.5239  0.1823  0.3726
   50MOL    O6246220   7.437   3.618   0.980 -0.1625  0.3357  0.4072
   50MOL    C6346221   7.300   3.633   0.784  0.1129 -0.1845 -0.7797
   50MOL    C6446222   7.242   3.510   0.795  0.3129  0.4741  0.7179
   50MOL    C6546223   7.167   3.459   0.687  0.1791 -0.0004  0.2405
   50MOL    C6646224   7.146   3.525   0.565 -0.8663  0.1107 -0.0689
   50MOL    C6746225   7.083   3.463   0.441  0.3788  0.0599 -0.1967
   50MOL    O6846226   7.028   3.516   0.342  0.1707 -0.1490  0.4082
   50MOL    O6946227   7.086   3.331   0.462 -0.0021 -0.3506 -0.0557
   50MOL    C7046228   7.197   3.659   0.562  0.3223  0.0454 -0.3445
   50MOL    C7146229   7.269   3.714   0.669 -0.0268  0.0113 -0.3959
   50MOL    H7246230   0.111   3.485   0.958  0.2639  1.2498  3.1634
   50MOL    H7346231   0.260   3.453   1.038 -0.6901 -1.0318 -0.2358
   50MOL    H7446232   0.188   3.672   0.834 -0.6441 -1.0105 -0.6422
   50MOL    H7546233   0.354   3.648   0.871 -0.5450 -1.6589 -0.9663
   50MOL    H7646234   0.142   3.710   1.079  0.9570 -0.1950  1.4735
   50MOL    H7746235   0.308   3.713   1.106 -1.0473 -0.2503  0.2211
   50MOL    H7846236   0.327   3.900   0.930 -0.1312  1.1158  0.1625
   50MOL    H7946237   0.239   3.959   1.071  2.0397 -1.2617  1.5273
   50MOL    H8046238   0.121   4.045   0.871  2.9242 -0.2568 -0.2667
   50MOL    H8146239   0.106   3.883   0.811 -1.0052  0.4116 -0.4166
   50MOL    H8246240   7.921   3.821   0.962  0.5996  0.1106 -1.8341
   50MOL    H8346241   7.962   3.962   1.066 -1.5414  0.3509  0.1650
   50MOL    H8446242   7.886   4.112   0.903 -2.8471  1.2607 -0.5167
   50MOL    H8546243   7.847   3.987   0.792  1.0187  0.8348 -0.1533
   50MOL    H8646244   7.749   3.963   1.075  0.6757 -1.4258 -0.6040
   50MOL    H8746245   7.674   4.091   0.981 -0.6712 -1.0586  0.3977
   50MOL    H8846246   7.679   3.807   0.890  1.5869  0.5978 -1.3075
   50MOL    H8946247   7.596   3.945   0.809 -1.4545 -0.7370  0.4244
   50MOL    H9046248   7.451   3.984   0.995 -1.0758 -0.4959  0.1769
   50MOL    H9146249   7.505   3.841   1.071  1.3569  0.7271 -0.4376
   50MOL    H9246250   7.268   3.445   0.877  0.4223 -0.9107 -0.3905
   50MOL    H9346251   7.127   3.360   0.700 -1.0140  0.3685 -0.5879
   50MOL    H9446252   7.193   3.716   0.471  1.6288  2.4512  1.0639
   50MOL    H9546253   7.314   3.810   0.648  2.2582 -1.5083 -2.8098
   50MOL    O9646254   6.993   3.254   0.375 -0.3071 -1.1967 -0.2202
   50MOL    C9746255   7.067   3.196   0.272  0.0921  0.1053  0.5435
   50MOL    C9846256   6.984   3.073   0.220  1.0600  0.3921  0.2617
   50MOL    C9946257   6.856   3.095   0.131 -0.6665 -0.0886 -0.0504
   50MOL   C10046258   6.806   2.968   0.071  0.2881 -0.5508 -0.2261
   50MOL   C10146259   6.670   2.985   0.001  0.1522 -1.1083 -0.1298
   50MOL   C10246260   6.610   2.857   7.924  0.6933  0.2554 -0.0097
   50MOL   C10346261   6.467   2.877   7.876  0.5164 -0.1961 -0.2043
   50MOL   C10446262   6.413   2.753   7.794  0.2362  0.6358  0.3384
   50MOL   C10546263   6.398   2.626   7.879  0.3424 -0.0961  0.3671
   50MOL   C10646264   6.351   2.496   7.815  0.3284  0.2631 -0.2790
   50MOL   O10746265   6.445   2.449   7.723 -0.5648  0.1091  0.1106
   50MOL   C10846266   6.456   2.317   7.687  0.0903  0.4478 -0.3809
   50MOL   O10946267   6.360   2.236   7.705 -0.0203 -0.3193  0.1078
   50MOL   C11046268   6.593   2.268   7.635 -0.3465  0.0637  0.0290
   50MOL   C11146269   6.611   2.131   7.602 -0.3559  0.4109  0.6372
   50MOL   C11246270   6.737   2.091   7.558 -0.1853  1.0355  0.4509
   50MOL   C11346271   6.844   2.182   7.544  0.1605  0.1491 -0.6553
   50MOL   C11446272   6.978   2.140   7.488  0.7233 -0.4538  0.2805
   50MOL   O11546273   7.004   2.024   7.459 -0.5456 -0.7895 -0.1669
   50MOL   O11646274   7.063   2.242   7.462  0.4191 -0.6200 -0.4137
   50MOL   C11746275   6.822   2.319   7.576  0.6491 -0.0763 -0.4843
   50MOL   C11846276   6.697   2.364   7.623 -0.7360 -0.5499 -0.0887
   50MOL   H11946277   7.074   3.273   0.195 -1.8643  0.8534  1.0845
   50MOL   H12046278   7.165   3.156   0.298  0.2962  1.0905  1.3322
   50MOL   H12146279   6.952   3.020   0.310  0.0145  1.9003  0.7906
   50MOL   H12246280   7.060   3.006   0.179  0.0735 -1.4645  1.4023
   50MOL   H12346281   6.789   3.147   0.200  0.8747  2.4124 -0.3658
   50MOL   H12446282   6.894   3.167   0.059  1.7088 -1.8015 -0.5438
   50MOL   H12546283   6.796   2.890   0.147  2.3503 -0.6651 -0.0463
   50MOL   H12646284   6.885   2.943   0.001  1.9169  1.4254  0.8390
   50MOL   H12746285   6.608   3.046   0.067  0.0040 -1.9631  0.5229
   50MOL   H12846286   6.688   3.058   7.900  0.2410 -2.3333 -1.2621
   50MOL   H12946287   6.673   2.814   7.847 -1.0197 -0.2310 -1.1663
   50MOL   H13046288   6.609   2.787   0.029 -1.3155 -0.0113 -0.2257
   50MOL   H13146289   6.411   2.895   7.968  0.8901 -0.5119  0.0847
   50MOL   H13246290   6.477   2.965   7.812  0.3025  0.4068  0.5735
   50MOL   H13346291   6.314   2.787   7.764  0.2368  0.5519  0.2403
   50MOL   H13446292   6.470   2.735   7.703 -1.4655  2.2675 -1.1050
   50MOL   H13546293   6.323   2.652   7.955 -1.0177 -0.5272 -0.8033
   50MOL   H13646294   6.495   2.600   7.922 -0.5587 -0.9925  1.9300
   50MOL   H13746295   6.262   2.525   7.758  1.0288  0.8959 -1.0640
   50MOL   H13846296   6.327   2.422   7.891 -0.7748  1.1258  0.2224
   50MOL   H13946297   6.525   2.066   7.600  1.5014 -2.1341 -3.0166
   50MOL   H14046298   6.757   1.990   7.526  1.8471  1.8704 -0.9984
   50MOL   H14146299   6.896   2.396   7.555 -1.3343  1.9690 -0.1749
   50MOL   H14246300   6.677   2.467   7.648 -0.5530 -0.5205 -0.0600
   50MOL   O14346301   7.179   2.210   7.368 -0.1927  0.6484  0.1181
   50MOL   C14446302   7.302   2.182   7.443  0.7774 -0.0769 -0.1673
   50MOL   C14546303   7.411   2.154   7.343 -0.5905  0.1299 -0.7498
   50MOL   C14646304   7.431   2.277   7.258 -0.2236  0.3974 -0.7259
   50MOL   C14746305   7.524   2.260   7.135 -0.0662 -0.5920 -0.3776
   50MOL   C14846306   7.468   2.166   7.026 -0.0954 -0.1175 -0.0362
   50MOL   C14946307   7.511   2.199   6.885 -0.0077  0.2909 -1.0716
   50MOL   C15046308   7.494   2.075   6.792 -0.7612  0.0445  0.0632
   50MOL   C15146309   7.354   2.013   6.775  0.1948  0.3799 -0.4138
   50MOL   C15246310   7.327   1.894   6.869 -0.0615 -0.0611 -0.0505
   50MOL   C15346311   7.197   1.821   6.846  0.1983  0.0401 -0.4004
   50MOL   O15446312   7.186   1.703   6.925  0.2676  0.4266 -0.1928
   50MOL   C15546313   7.067   1.645   6.925 -0.4035 -0.0302  0.5856
   50MOL   O15646314   6.968   1.684   6.858 -0.5502  0.5713 -0.2845
   50MOL   C15746315   7.067   1.520   7.011 -0.6639 -0.3281  0.0961
   50MOL   C15846316   6.954   1.424   7.012  0.3879  0.1877 -0.0095
   50MOL   C15946317   6.966   1.300   7.076  0.3004 -0.4608 -0.3059
   50MOL   C16046318   7.076   1.276   7.163  0.0136  0.2382  0.0876
   50MOL   C16146319   7.086   1.141   7.234  0.3398 -0.5105  0.0433
   50MOL   O16246320   7.167   1.123   7.313 -0.0622 -0.1024  0.1501
   50MOL   O16346321   6.986   1.049   7.222 -0.2706  0.0208 -0.1756
   50MOL   C16446322   7.188   1.365   7.158  0.2136  0.2070 -0.1332
   50MOL   C16546323   7.189   1.480   7.077  0.5148  0.2285  0.0178
   50MOL   H16646324   7.331   2.258   7.515 -0.3055  0.6889 -0.5384
   50MOL   H16746325   7.301   2.094   7.508 -1.8311 -1.5273 -2.0821
   50MOL   H16846326   7.372   2.073   7.281 -0.7814 -1.7042  1.6769
   50MOL   H16946327   7.496   2.115   7.399 -1.2609 -1.6270 -0.9155
   50MOL   H17046328   7.337   2.308   7.212  1.0093  2.3986 -1.9621
   50MOL   H17146329   7.471   2.366   7.306 -1.0334  0.7312 -0.6519
   50MOL   H17246330   7.630   2.245   7.158 -0.3923 -1.1293  0.8215
   50MOL   H17346331   7.525   2.354   7.080  0.6281 -0.1788  0.3162
   50MOL   H17446332   7.479   2.058   7.035  0.9442 -0.1449 -1.3521
   50MOL   H17546333   7.362   2.188   7.030 -1.1583 -5.2624  3.0031
   50MOL   H17646334   7.447   2.274   6.838  0.3744  2.3191  1.5667
   50MOL   H17746335   7.614   2.235   6.882  0.8675 -1.9450  0.3327
   50MOL   H17846336   7.534   2.106   6.696 -1.4518  1.8513  0.3306
   50MOL   H17946337   7.559   1.992   6.820 -1.2915 -0.3782  0.0393
   50MOL   H18046338   7.268   2.080   6.783  1.8379  2.8314 -2.3623
   50MOL   H18146339   7.353   1.993   6.668 -1.0830  1.4762 -0.6251
   50MOL   H18246340   7.331   1.927   6.973  1.2326 -1.0992  0.2424
   50MOL   H18346341   7.400   1.813   6.867 -0.6840 -0.6481  0.8942
   50MOL   H18446342   7.182   1.793   6.742 -2.6994  0.6262 -0.1867
   50MOL   H18546343   7.119   1.895   6.863  0.6855  0.3109  0.7261
   50MOL   H18646344   6.866   1.451   6.957 -0.3997 -1.4639  0.4159
   50MOL   H18746345   6.879   1.236   7.067  0.8209 -0.8553 -3.0373
   50MOL   H18846346   7.276   1.346   7.217 -0.1252 -0.2454  0.2225
   50MOL   H18946347   7.279   1.536   7.056 -0.7372  1.4055 -2.5179
   50MOL   O19046348   7.019   0.912   7.259  0.5001 -0.4086 -0.1542
   50MOL   C19146349   7.034   0.837   7.139 -0.3969  0.2761 -0.4954
   50MOL   C19246350   7.169   0.870   7.079  0.5496 -0.2844  0.5061
   50MOL   C19346351   7.290   0.846   7.161 -0.5504 -0.2939  0.1247
   50MOL   C19446352   7.421   0.872   7.089 -1.3317  0.2615 -0.2730
   50MOL   C19546353   7.535   0.814   7.186  0.0086  0.0686 -0.1422
   50MOL   C19646354   7.656   0.909   7.206  0.2913 -0.2681 -0.1883
   50MOL   C19746355   7.742   0.938   7.080 -0.3740  0.4907  0.0087
   50MOL   C19846356   7.842   1.051   7.118 -0.5161 -0.3341  0.6273
   50MOL   C19946357   7.933   1.100   6.992 -0.5925 -0.1866 -0.1666
   50MOL   C20046358   0.053   1.208   7.032 -0.0566  0.0262 -0.0646
   50MOL   O20146359   0.130   1.173   7.146  0.0622  0.4698 -0.2775
   50MOL   C20246360   0.243   1.237   7.182  0.4740  1.0314 -0.0867
   50MOL   O20346361   0.275   1.343   7.127  0.0890  0.0435  0.1699
   50MOL   C20446362   0.309   1.185   7.307  0.3449  0.3370  0.0744
   50MOL   C20546363   0.434   1.240   7.359  0.8539  0.2963 -0.2719
   50MOL   C20646364   0.485   1.197   7.484  0.2283  0.4166 -0.0655
   50MOL   C20746365   0.419   1.098   7.560  0.1363  0.9520  0.4710
   50MOL   C20846366   0.467   1.057   7.697  0.3432  0.1681 -1.0523
   50MOL   O20946367   0.576   1.086   7.747 -0.3051  0.2403 -0.1073
   50MOL   O21046368   0.374   0.988   7.760 -0.1282  0.3062 -0.1865
   50MOL   C21146369   0.309   1.037   7.502 -0.1973 -0.0839  0.6916
   50MOL   C21246370   0.256   1.076   7.377  0.3150  0.6498  0.3137
   50MOL   H21346371   7.038   0.731   7.165  0.3914  0.3989 -0.0883
   50MOL   H21446372   6.946   0.858   7.079  0.2385  0.9725 -1.1939
   50MOL   H21546373   7.167   0.973   7.042 -1.2474 -0.1601  0.9186
   50MOL   H21646374   7.183   0.813   6.988  1.8079  2.2482 -0.9521
   50MOL   H21746375   7.282   0.891   7.260 -0.8506 -1.4901  0.6557
   50MOL   H21846376   7.284   0.740   7.185  4.5833 -1.2899 -2.4168
   50MOL   H21946377   7.421   0.981   7.089  1.9122  0.3231 -0.0804
   50MOL   H22046378   7.409   0.826   6.991 -0.8549  0.4521 -0.4224
   50MOL   H22146379   7.493   0.786   7.283  0.4459  0.4139  0.1468
   50MOL   H22246380   7.565   0.717   7.144  1.8909  0.5540  0.0311
   50MOL   H22346381   7.609   1.004   7.230  1.3962  0.0389  0.8367
   50MOL   H22446382   7.713   0.887   7.297 -1.7205 -1.8013  0.7213
   50MOL   H22546383   7.799   0.854   7.042 -0.5499  0.3423  0.0746
   50MOL   H22646384   7.679   0.978   7.000  0.1952  1.3263 -0.0280
   50MOL   H22746385   7.800   1.141   7.163 -0.8452  0.4424 -1.1883
   50MOL   H22846386   7.897   1.000   7.198 -2.2986 -2.8384  0.2862
   50MOL   H22946387   7.861   1.137   6.919 -0.1675 -0.4763 -0.7282
   50MOL   H23046388   0.006   1.016   6.945 -1.5822 -0.3234 -1.0159
   50MOL   H23146389   0.008   1.302   7.065  0.1415  0.2814 -0.5223
   50MOL   H23246390   0.121   1.230   6.950 -0.0588 -0.8873 -0.3121
   50MOL   H23346391   0.476   1.329   7.314 -2.1510  1.3464 -1.1882
   50MOL   H23446392   0.574   1.242   7.527  0.5009 -0.0831 -0.0964
   50MOL   H23546393   0.255   0.959   7.554 -0.9940 -2.0413 -2.9259
   50MOL   H23646394   0.161   1.036   7.342  1.2069 -0.1351 -1.2683
   50MOL   O23746395   0.417   0.968   7.906  0.2158 -0.0351  0.0258
   50MOL   C23846396   0.345   1.072   7.976  0.7743  0.3738 -0.6298
   50MOL   C23946397   0.343   1.048   0.145 -0.4393  0.3486 -0.0983
   50MOL   C24046398   0.482   1.016   0.212 -0.0431 -0.3338 -0.0786
   50MOL   C24146399   0.465   0.934   0.344 -0.5999  0.5877  0.4533
   50MOL   C24246400   0.420   1.027   0.461 -0.3104 -0.2951  0.3310
   50MOL   C24346401   0.401   0.945   0.591 -0.6076 -0.5635  0.3456
   50MOL   C24446402   0.295   0.834   0.588  0.1244  0.7123 -0.0301
   50MOL   C24546403   0.267   0.761   0.722  0.0610  0.4973 -0.1132
   50MOL   C24646404   0.151   0.664   0.715  0.0763  0.7183  0.4788
   50MOL   C24746405   0.146   0.555   0.828 -0.6238 -0.4067 -0.0898
   50MOL   O24846406   0.017   0.493   0.816 -0.2270 -0.2728 -0.2816
   50MOL   C24946407   7.975   0.373   0.767  0.5503  0.0782 -0.6256
   50MOL   O25046408   0.081   0.288   0.734 -0.3140 -0.8282 -0.5090
   50MOL   C25146409   7.827   0.345   0.758  0.0806  0.3436 -0.4914
   50MOL   C25246410   7.789   0.211   0.761 -0.0361  0.2301 -0.4131
   50MOL   C25346411   7.651   0.178   0.757 -0.2837  0.9151  1.0022
   50MOL   C25446412   7.554   0.280   0.748  0.6420  0.1475 -0.1815
   50MOL   C25546413   7.413   0.233   0.718 -0.3058  1.0081 -0.4694
   50MOL   O25646414   7.378   0.123   0.741  0.1278 -0.2649 -0.8198
   50MOL   O25746415   7.340   0.323   0.651 -0.0410  0.1609  0.1167
   50MOL   C25846416   7.593   0.418   0.738  0.7381 -0.0929 -0.2107
   50MOL   C25946417   7.727   0.445   0.745 -0.3758 -0.0192 -0.5383
   50MOL   H26046418   0.382   1.174   7.962 -1.8392  1.5968  0.9465
   50MOL   H26146419   0.242   1.061   7.944 -0.0680  2.8921  1.0621
   50MOL   H26246420   0.282   0.960   0.164 -0.1719  0.2878  0.5174
   50MOL   H26346421   0.292   1.136   0.186 -0.2870  0.0460  0.7505
   50MOL   H26446422   0.548   0.968   0.141  1.1787  0.0601  0.7796
   50MOL   H26546423   0.549   1.101   0.228  0.9619 -1.1209 -0.0623
   50MOL   H26646424   0.550   0.876   0.381 -0.9575 -0.0235  0.3278
   50MOL   H26746425   0.401   0.846   0.335 -1.6564  1.4043 -0.1942
   50MOL   H26846426   0.497   1.102   0.477 -0.3798  0.1969 -1.5098
   50MOL   H26946427   0.327   1.084   0.455  0.6020  1.1610 -0.3812
   50MOL   H27046428   0.495   0.911   0.634 -0.1746  2.6071  2.0889
   50MOL   H27146429   0.380   1.012   0.675  0.9361 -0.2760  0.5293
   50MOL   H27246430   0.196   0.860   0.551 -1.0390  0.5602  2.8151
   50MOL   H27346431   0.325   0.754   0.520  2.1708  1.3647  0.0659
   50MOL   H27446432   0.351   0.727   0.782 -0.3028  1.3449  0.8877
   50MOL   H27546433   0.226   0.839   0.786 -1.4909 -0.3999  0.0246
   50MOL   H27646434   0.160   0.608   0.623  1.8978  1.6781  0.0405
   50MOL   H27746435   0.062   0.726   0.720 -1.6226 -1.6137 -0.1547
   50MOL   H27846436   0.143   0.590   0.931 -0.6505 -2.4362  0.6288
   50MOL   H27946437   0.232   0.489   0.818  0.1187  0.7169 -1.2328
   50MOL   H28046438   7.866   0.136   0.769  1.5734  1.7296 -1.4006
   50MOL   H28146439   7.628   0.072   0.760  1.6029  0.5012  1.4710
   50MOL   H28246440   7.534   0.508   0.739  1.3826  0.3271  0.2097
   50MOL   H28346441   7.761   0.547   0.735  3.6141 -1.1565  0.4663
   50MOL   O28446442   7.201   0.277   0.614 -0.0991  0.0663 -0.6323
   50MOL   C28546443   7.205   0.247   0.478  0.2562 -0.2899 -0.0233
   50MOL   C28646444   7.068   0.224   0.419 -0.0393  0.3905 -0.7283
   50MOL   C28746445   6.986   0.117   0.491 -0.2244 -0.4549 -0.7896
   50MOL   C28846446   6.851   0.091   0.423  0.5143 -0.4875  0.3832
   50MOL   C28946447   6.744   0.062   0.524 -0.3357  0.1743 -0.0607
   50MOL   C29046448   6.604   0.051   0.468  0.2016  0.1545  0.3980
   50MOL   C29146449   6.511   0.007   0.579  0.4234  0.4947  0.2271
   50MOL   C29246450   6.367   0.025   0.545  0.8429  0.2129  0.3059
   50MOL   C29346451   6.301   7.873   0.489  0.4431  0.5106  0.1477
   50MOL   C29446452   6.297   7.756   0.589  0.0784  0.0581  0.1211
   50MOL   O29546453   6.235   7.802   0.711  0.0412 -0.3368  0.7270
   50MOL   C29646454   6.268   7.741   0.822 -0.6042  0.9398  0.0568
   50MOL   O29746455   6.335   7.631   0.824 -0.3145 -0.3370  1.0632
   50MOL   C29846456   6.221   7.804   0.948 -0.4606 -0.6356 -0.3908
   50MOL   C29946457   6.133   7.911   0.946  0.4906 -0.1574 -0.1949
   50MOL   C30046458   6.102   7.972   1.069 -0.0976  0.2078  0.3196
   50MOL   C30146459   6.154   7.933   1.192  0.2352 -0.8872  0.2189
   50MOL   C30246460   6.091   0.008   1.314  0.0846  0.0194 -0.2638
   50MOL   O30346461   6.017   0.109   1.310 -0.3705  0.0236 -0.4133
   50MOL   O30446462   6.118   7.923   1.430  0.1221  0.1184  0.0306
   50MOL   C30546463   6.247   7.829   1.191  0.4860 -0.3259 -0.1553
   50MOL   C30646464   6.275   7.761   1.076  0.4710 -0.1636  0.6347
   50MOL   H30746465   7.247   0.340   0.440  1.5596  0.0884  2.2385
   50MOL   H30846466   7.276   0.168   0.457 -1.2463 -1.5544 -0.4463
   50MOL   H30946467   7.086   0.199   0.314  0.1734 -0.5266 -0.4767
   50MOL   H31046468   7.019   0.322   0.416  0.3086  0.6153  0.6555
   50MOL   H31146469   7.043   0.024   0.497 -0.2467 -0.4386 -0.2171
   50MOL   H31246470   6.963   0.162   0.588  2.0535  0.2898 -0.5554
   50MOL   H31346471   6.853   0.011   0.349 -1.6387  1.4010 -1.7777
   50MOL   H31446472   6.817   0.182   0.374 -1.5823  0.2922  3.1517
   50MOL   H31546473   6.776   7.953   0.582 -2.2827  0.2109  1.1194
   50MOL   H31646474   6.727   0.146   0.591  0.4817  1.5919 -1.6131
   50MOL   H31746475   6.568   0.142   0.420  0.1752 -0.3357 -0.5406
   50MOL   H31846476   6.603   7.957   0.386  2.2506 -0.7838  1.1760
   50MOL   H31946477   6.548   7.898   0.632  0.4678 -0.3620 -1.1826
   50MOL   H32046478   6.525   0.089   0.650  0.0997 -0.6966  1.6761
   50MOL   H32146479   6.312   0.073   0.626  0.9401 -0.9247  1.0718
   50MOL   H32246480   6.356   0.093   0.461 -0.6046  0.7290  0.9076
   50MOL   H32346481   6.341   7.849   0.391 -1.6593 -1.2469 -0.3240
   50MOL   H32446482   6.195   7.885   0.467  0.3568 -1.5101 -0.7108
   50MOL   H32546483   6.398   7.722   0.611 -0.0159  0.7858  1.7435
   50MOL   H32646484   6.246   7.669   0.548  1.0617 -0.0640 -0.8901
   50MOL   H32746485   6.092   7.954   0.855 -1.0730  0.5214  0.7995
   50MOL   H32846486   6.030   0.074   1.071  1.6633  1.8534 -0.5824
   50MOL   H32946487   6.283   7.798   1.287 -1.1619 -2.1963 -0.1001
   50MOL   H33046488   6.349   7.683   1.071 -0.1188 -0.5809 -2.7907
   50MOL   O33146489   6.048   0.014   1.554 -0.0543 -0.3228 -0.1818
   50MOL   C33246490   5.953   7.904   1.607 -0.0070 -0.6822 -0.6460
   50MOL   C33346491   5.812   7.920   1.543 -0.7581  0.5367 -1.0172
   50MOL   C33446492   5.710   7.826   1.610  0.6860  0.0356 -0.2705
   50MOL   C33546493   5.580   7.799   1.532 -0.2524 -0.5132  0.0836
   50MOL   C33646494   5.496   7.685   1.591 -0.4721 -0.4239  0.2262
   50MOL   C33746495   5.553   7.546   1.552  0.2620  0.7916 -0.4388
   50MOL   C33846496   5.471   7.423   1.587 -0.0779  0.3712  0.2902
   50MOL   C33946497   5.522   7.293   1.536 -0.1869 -0.0680  0.5038
   50MOL   C34046498   5.523   7.276   1.385 -0.6691 -0.1067  0.7982
   50MOL   C34146499   5.546   7.128   1.339  0.2752  1.1168  0.3352
   50MOL   O34246500   5.547   7.128   1.198  0.2992 -0.0024 -0.1537
   50MOL   C34346501   5.438   7.126   1.117 -0.7676  0.4502 -0.5384
   50MOL   O34446502   5.320   7.107   1.160  0.4720 -0.2373 -0.6572
   50MOL   C34546503   5.477   7.160   0.976 -0.2530  0.1505  0.7516
   50MOL   C34646504   5.382   7.178   0.871  0.6523 -0.3045  0.0065
   50MOL   C34746505   5.420   7.216   0.738 -0.4144 -0.5717  0.2820
   50MOL   C34846506   5.554   7.238   0.711 -0.7352 -0.7389 -0.0837
   50MOL   C34946507   5.593   7.306   0.578 -0.7200  0.3044  0.2197
   50MOL   O35046508   5.713   7.312   0.544  0.0513  0.6346 -0.2473
   50MOL   O35146509   5.499   7.354   0.497 -0.2305  0.0848  0.0587
   50MOL   C35246510   5.650   7.209   0.811  0.2108 -0.0974  0.7618
   50MOL   C35346511   5.611   7.171   0.939 -0.2831  0.3904 -0.6148
   50MOL   H35446512   5.985   7.800   1.612 -1.1987 -1.0593 -0.5638
   50MOL   H35546513   5.940   7.915   1.715  2.0200  0.9257 -0.5494
   50MOL   H35646514   5.823   7.916   1.434 -1.3839  1.4010 -1.1198
   50MOL   H35746515   5.781   0.044   1.565  0.1149  0.9892 -1.8407
   50MOL   H35846516   5.754   7.727   1.622  3.3178  1.1019 -0.8834
   50MOL   H35946517   5.682   7.865   1.708 -0.7618  0.6236 -0.9040
   50MOL   H36046518   5.610   7.770   1.432  1.0757 -0.6158  0.4900
   50MOL   H36146519   5.521   7.890   1.521 -0.4526 -0.6132  0.3282
   50MOL   H36246520   5.502   7.693   1.700  1.0984 -0.7772  0.1804
   50MOL   H36346521   5.393   7.703   1.561 -0.7460 -0.9960  0.8191
   50MOL   H36446522   5.559   7.552   1.443 -0.5622  3.3311 -0.3654
   50MOL   H36546523   5.648   7.532   1.603  0.0092 -0.7572 -0.3572
   50MOL   H36646524   5.453   7.414   1.694 -1.4165 -0.1180  0.0387
   50MOL   H36746525   5.372   7.444   1.547 -1.7020 -1.3681  3.2179
   50MOL   H36846526   5.626   7.285   1.568 -1.1214 -1.1464  3.4709
   50MOL   H36946527   5.457   7.217   1.580 -1.5406  0.6846 -0.1872
   50MOL   H37046528   5.596   7.334   1.329 -0.3822 -0.3397  0.9334
   50MOL   H37146529   5.429   7.312   1.342 -0.1202  1.3200  0.8024
   50MOL   H37246530   5.459   7.070   1.370 -0.9516  2.7467  0.0420
   50MOL   H37346531   5.637   7.091   1.386  0.9273  0.6338 -1.2852
   50MOL   H37446532   5.276   7.164   0.889  1.1990 -3.4317  0.9949
   50MOL   H37546533   5.352   7.234   0.655  0.9881  0.2752 -0.7008
   50MOL   H37646534   5.756   7.218   0.792  0.1052 -1.7278 -0.7640
   50MOL   H37746535   5.680   7.173   1.023 -1.1570 -0.1467  0.1311
   50MOL   O37846536   5.546   7.433   0.381 -0.3651 -0.4698  0.2828
   50MOL   C37946537   5.497   7.563   0.386  0.5124  0.7671  0.3585
   50MOL   C38046538   5.553   7.647   0.495  0.3551  0.4046  0.2341
   50MOL   C38146539   5.458   7.694   0.608  0.2954  0.7789  0.4267
   50MOL   C38246540   5.452   7.586   0.715  0.2006 -0.1487  0.7454
   50MOL   C38346541   5.404   7.641   0.852 -0.0771 -0.2023 -0.3102
   50MOL   C38446542   5.360   7.534   0.955 -0.0928  0.3733  0.0785
   50MOL   C38546543   5.281   7.583   1.076 -0.0455 -0.0294 -0.4628
   50MOL   C38646544   5.243   7.460   1.159  0.3192 -0.3025 -0.5670
   50MOL   C38746545   5.175   7.509   1.289  0.3396 -0.2327  0.8796
   50MOL   C38846546   5.117   7.392   1.372  0.2497 -0.7618 -0.4168
   50MOL   O38946547   5.035   7.450   1.476 -0.1417 -0.1982  0.0832
   50MOL   C39046548   5.059   7.412   1.610  0.3390  0.1210 -0.3938
   50MOL   O39146549   5.144   7.329   1.645  0.0999  0.5495  0.5991
   50MOL   C39246550   4.971   7.477   1.702  0.1377  0.0345  0.6217
   50MOL   C39346551   4.839   7.507   1.663 -1.2335 -0.2436  0.4613
   50MOL   C39446552   4.753   7.571   1.750  0.4544 -0.8551  0.0447
   50MOL   C39546553   4.803   7.611   1.879  0.1970 -0.1396  0.6336
   50MOL   C39646554   4.726   7.690   1.972 -0.0485 -0.1395  0.8130
   50MOL   O39746555   4.769   7.732   2.082  0.6828 -0.5007  0.1055
   50MOL   O39846556   4.611   7.721   1.920 -0.2316 -0.5297  1.0731
   50MOL   C39946557   4.936   7.571   1.913 -0.3404  0.0321 -0.5826
   50MOL   C40046558   5.022   7.501   1.832  0.2568  0.2338  0.1621
   50MOL   H40146559   5.530   7.610   0.293  2.5954  1.3275  1.3415
   50MOL   H40246560   5.390   7.548   0.395  0.8116  0.2728  3.5548
   50MOL   H40346561   5.585   7.741   0.450 -1.9066  1.2044  0.2066
   50MOL   H40446562   5.634   7.588   0.535 -0.2609 -0.5728  0.0532
   50MOL   H40546563   5.506   7.784   0.646  1.6195 -0.2393  1.2345
   50MOL   H40646564   5.359   7.730   0.583  0.0179 -0.9138 -0.9968
   50MOL   H40746565   5.549   7.538   0.728  0.4000  0.3067  0.9773
   50MOL   H40846566   5.386   7.504   0.687  1.5947 -0.5587 -1.4787
   50MOL   H40946567   5.481   7.703   0.896 -0.5600  1.5246 -1.8625
   50MOL   H41046568   5.322   7.712   0.844  1.2166  1.7629  3.0177
   50MOL   H41146569   5.306   7.450   0.910  0.1048  0.4583 -0.3225
   50MOL   H41246570   5.456   7.493   0.987 -0.9807 -1.0993  0.8733
   50MOL   H41346571   5.341   7.656   1.130 -1.7180  0.7721  0.3702
   50MOL   H41446572   5.187   7.628   1.044 -1.4679 -1.4930  1.4890
   50MOL   H41546573   5.173   7.402   1.100 -1.2883  0.4660  0.5365
   50MOL   H41646574   5.332   7.402   1.185  1.1723  1.6475  1.0206
   50MOL   H41746575   5.095   7.579   1.264  1.6223  1.2794  0.8997
   50MOL   H41846576   5.249   7.558   1.353  0.3328 -0.7454  1.2790
   50MOL   H41946577   5.193   7.323   1.409 -0.2833 -2.1474 -1.8310
   50MOL   H42046578   5.049   7.327   1.316  0.8080 -3.5065  1.9871
   50MOL   H42146579   4.801   7.487   1.563 -0.3795  0.6682 -0.0608
   50MOL   H42246580   4.654   7.598   1.715  0.3567  0.7121  1.4443
   50MOL   H42346581   4.978   7.598   2.009  0.6191 -2.5546 -0.2594
   50MOL   H42446582   5.120   7.473   1.867  0.1110 -0.4591  0.0188
   50MOL   O42546583   4.535   7.818   2.005  0.2396 -0.3561  0.3946
   50MOL   C42646584   4.561   7.948   1.966  0.0177  0.1942  0.4696
   50MOL   C42746585   4.449   0.008   1.876 -0.6710 -0.1205  0.2774
   50MOL   C42846586   4.308   0.032   1.941  0.5004  0.2057 -0.0385
   50MOL   C42946587   4.232   0.128   1.845 -0.4898  0.6287  0.2454
   50MOL   C43046588   4.084   0.121   1.880 -0.3437 -0.4294 -0.1315
   50MOL   C43146589   3.997   0.232   1.812 -0.2970  0.5699  0.4941
   50MOL   C43246590   3.999   0.227   1.660 -0.6214  0.8769 -0.4393
   50MOL   C43346591   3.899   0.339   1.619 -0.1202  0.0327  0.2264
   50MOL   C43446592   3.876   0.371   1.469  0.1377 -0.0151  0.3769
   50MOL   C43546593   3.793   0.501   1.442 -0.0083 -0.6637  0.1596
   50MOL   O43646594   3.779   0.511   1.300 -0.4922  0.5024 -0.6783
   50MOL   C43746595   3.655   0.523   1.251  0.4325  0.0914 -0.1076
   50MOL   O43846596   3.552   0.523   1.317  0.0830  0.0315 -0.1836
   50MOL   C43946597   3.654   0.520   1.103  0.0838 -0.5154  0.4810
   50MOL   C44046598   3.766   0.530   1.021  0.4080  0.4693  0.1129
   50MOL   C44146599   3.762   0.542   0.882 -0.2232 -0.3442  1.0130
   50MOL   C44246600   3.634   0.535   0.814  0.4148 -0.0674  0.9508
   50MOL   C44346601   3.636   0.528   0.667 -0.2816 -0.4448 -0.3748
   50MOL   O44446602   3.730   0.583   0.600  0.0229 -0.3119 -0.5480
   50MOL   O44546603   3.539   0.472   0.617 -0.3556  0.0584 -0.0264
   50MOL   C44646604   3.522   0.535   0.889  0.0790 -0.1570 -0.1505
   50MOL   C44746605   3.531   0.527   1.030  0.0905 -0.2235  0.1608
   50MOL   H44846606   4.564   0.039   2.051 -0.0500  0.9826 -0.1605
   50MOL   H44946607   4.654   7.958   1.910  0.4680 -2.0834  0.7651
   50MOL   H45046608   4.438   7.918   1.792 -0.0132  0.7908 -0.5559
   50MOL   H45146609   4.485   0.106   1.844 -0.3573 -0.7460 -1.2926
   50MOL   H45246610   4.260   7.912   1.945 -1.8860  1.3629  0.4014
   50MOL   H45346611   4.309   0.070   2.043 -0.6871  0.1454  0.0020
   50MOL   H45446612   4.235   0.082   1.747 -1.2514  1.7711 -0.3130
   50MOL   H45546613   4.266   0.231   1.837 -1.0090  0.9012  1.4252
   50MOL   H45646614   4.054   0.019   1.853  2.3844 -1.5258  0.7464
   50MOL   H45746615   4.076   0.136   1.988 -1.5054  1.6490 -0.4925
   50MOL   H45846616   3.900   0.228   1.861 -0.8487  2.3039 -0.4148
   50MOL   H45946617   4.026   0.328   1.856  0.9169 -0.8457  2.8564
   50MOL   H46046618   4.100   0.249   1.627 -0.1865 -0.0098  0.3031
   50MOL   H46146619   3.963   0.127   1.635  1.2903 -0.1302  0.7419
   50MOL   H46246620   3.800   0.322   1.662 -0.7978 -0.6937 -1.6018
   50MOL   H46346621   3.943   0.421   1.675  0.1072  1.4391 -1.9518
   50MOL   H46446622   3.826   0.287   1.422  0.2778  0.3686 -0.4653
   50MOL   H46546623   3.977   0.388   1.432 -0.1728 -1.9949 -1.4592
   50MOL   H46646624   3.850   0.586   1.482  0.9885 -1.0597 -0.3946
   50MOL   H46746625   3.696   0.496   1.491  0.7799 -1.1521  1.7041
   50MOL   H46846626   3.863   0.521   1.067  0.8045 -3.8936 -1.3491
   50MOL   H46946627   3.851   0.549   0.821 -0.0621 -0.7586  1.1983
   50MOL   H47046628   3.426   0.538   0.841 -0.1625  1.3661  0.3857
   50MOL   H47146629   3.439   0.519   1.086  0.6437 -0.5188  1.0481
   50MOL   O47246630   3.541   0.462   0.466 -0.1431  0.6303 -0.2849
   50MOL   C47346631   3.607   0.339   0.420  0.1061 -0.2358  0.0123
   50MOL   C47446632   3.612   0.347   0.267 -0.4668  1.0431 -0.2512
   50MOL   C47546633   3.688   0.473   0.204 -0.3674  1.0109 -0.0780
   50MOL   C47646634   3.720   0.444   0.056 -0.5201  0.0073  0.3882
   50MOL   C47746635   3.786   0.566   0.001 -0.1148  0.2570 -0.2368
   50MOL   C47846636   3.932   0.581   0.039 -0.7994  0.2537 -0.4345
   50MOL   C47946637   3.957   0.673   0.157  0.0964 -0.0941 -0.0911
   50MOL   C48046638   3.937   0.828   0.138  0.3900 -0.1646  0.6243
   50MOL   C48146639   3.925   0.889   0.283  0.4385 -0.2589  0.0717
   50MOL   C48246640   3.880   1.034   0.278  0.1801 -0.2631 -0.1470
   50MOL   O48346641   3.907   1.078   0.415  0.2897  0.0120  0.6908
   50MOL   C48446642   3.900   1.214   0.435  0.3522  0.4988  0.2547
   50MOL   O48546643   3.892   1.295   0.348 -0.5782 -0.7252  0.1584
   50MOL   C48646644   3.899   1.259   0.581 -0.1607 -0.8463  0.2617
   50MOL   C48746645   3.850   1.183   0.695 -0.0339 -0.2142 -0.2042
   50MOL   C48846646   3.858   1.233   0.830 -0.7376  0.2373  0.1595
   50MOL   C48946647   3.907   1.362   0.848 -0.4284 -0.4190 -0.3164
   50MOL   C49046648   3.919   1.406   0.989 -0.4286  0.7994  1.0668
   50MOL   O49146649   3.880   1.342   1.084  0.2227 -0.3546 -0.6521
   50MOL   O49246650   3.986   1.521   0.997 -0.2120  0.4313  0.5172
   50MOL   C49346651   3.961   1.439   0.742 -0.4869  0.3143 -0.2378
   50MOL   C49446652   3.949   1.388   0.609  0.2863 -1.0005  0.0984
   50MOL   H49546653   3.705   0.337   0.468 -0.1225  0.1351  0.5028
   50MOL   H49646654   3.559   0.244   0.443 -2.4617  1.2171  0.8636
   50MOL   H49746655   3.515   0.333   0.220  0.3259  0.1623 -1.6260
   50MOL   H49846656   3.667   0.259   0.235  1.6434  1.6588  1.5305
   50MOL   H49946657   3.622   0.559   0.213 -1.4472  0.0916  0.8552
   50MOL   H50046658   3.775   0.485   0.269  0.1618  0.0821 -0.5998
   50MOL   H50146659   3.622   0.423   0.014 -1.3560  3.2303  0.6003
   50MOL   H50246660   3.782   0.355   0.043  0.1714  0.4709  0.4805
   50MOL   H50346661   3.782   0.553   7.871 -1.8173  2.0467 -0.4054
   50MOL   H50446662   3.721   0.650   0.027 -0.0688  0.7935 -1.7946
   50MOL   H50546663   3.978   0.489   0.075  2.3882  2.7925  2.3870
   50MOL   H50646664   3.995   0.606   7.931 -0.6706  2.6303  0.3159
   50MOL   H50746665   3.898   0.642   0.242 -0.8104  0.6435 -0.4400
   50MOL   H50846666   4.065   0.672   0.175 -0.0774  1.7964  1.2440
   50MOL   H50946667   4.015   0.875   0.078 -0.9196  0.6689 -0.4569
   50MOL   H51046668   3.845   0.848   0.082  1.0154 -1.4660 -0.9011
   50MOL   H51146669   4.018   0.876   0.337 -0.0360  1.2685  1.2903
   50MOL   H51246670   3.845   0.835   0.334 -0.3614  1.7426  1.0173
   50MOL   H51346671   3.779   1.056   0.244  0.1546  0.9876  0.6915
   50MOL   H51446672   3.939   1.099   0.213  1.8174 -1.2586  0.3327
   50MOL   H51546673   3.823   1.080   0.678  1.2998 -0.7819  1.0355
   50MOL   H51646674   3.840   1.177   0.920 -1.3287  0.9699  0.5060
   50MOL   H51746675   4.017   1.530   0.754 -0.4047  0.4709 -1.7483
   50MOL   H51846676   3.993   1.447   0.530 -0.0059  0.5675  1.0882
   50MOL   O51946677   4.014   1.563   1.138 -0.0783  0.5356 -0.4043
   50MOL   C52046678   4.152   1.577   1.156  0.9557 -0.5316 -0.2885
   50MOL   C52146679   4.179   1.644   1.293  0.0602 -0.1799 -0.5554
   50MOL   C52246680   4.326   1.690   1.326 -0.4298  0.5378 -0.3105
   50MOL   C52346681   4.444   1.580   1.317 -0.7059  0.5213 -0.1492
   50MOL   C52446682   4.431   1.465   1.419  0.7243 -0.3679 -0.1804
   50MOL   C52546683   4.545   1.359   1.410  0.4550 -0.5008 -0.1277
   50MOL   C52646684   4.555   1.275   1.539 -0.0732  0.3222  0.0665
   50MOL   C52746685   4.655   1.159   1.518  0.2180 -0.0353 -0.1202
   50MOL   C52846686   4.661   1.068   1.645  0.4838  0.2985  0.4787
   50MOL   C52946687   4.716   1.137   1.769 -0.4771  0.1909 -0.4347
   50MOL   O53046688   4.733   1.049   1.880 -0.4605 -0.4235  0.3690
   50MOL   C53146689   4.632   1.031   1.960 -0.1810 -0.8012  0.3194
   50MOL   O53246690   4.525   1.093   1.951  0.1605 -0.4128  0.1563
   50MOL   C53346691   4.666   0.931   2.063  0.3780  0.3691 -0.3816
   50MOL   C53446692   4.784   0.854   2.048  0.0841  0.7182  0.6292
   50MOL   C53546693   4.824   0.767   2.151 -0.7144 -0.3403 -0.0478
   50MOL   C53646694   4.738   0.735   2.256  0.6133  0.2993 -0.2337
   50MOL   C53746695   4.782   0.643   2.363 -0.1393 -0.5562 -0.1847
   50MOL   O53846696   4.869   0.556   2.346  0.5244  0.0865 -0.5334
   50MOL   O53946697   4.726   0.674   2.474 -0.0824 -0.7050 -0.1401
   50MOL   C54046698   4.614   0.804   2.259 -0.1699  0.1686 -0.1013
   50MOL   C54146699   4.582   0.902   2.170 -0.4677  0.2530 -0.3307
   50MOL   H54246700   4.200   1.479   1.157  0.8580 -0.5766  0.2359
   50MOL   H54346701   4.192   1.642   1.078 -2.0904  1.7081 -0.0616
   50MOL   H54446702   4.151   1.581   1.377  0.3015  0.4768  0.0156
   50MOL   H54546703   4.112   1.728   1.309  0.4580  0.0265  0.0061
   50MOL   H54646704   4.365   1.772   1.264  1.1887 -1.0101 -1.4033
   50MOL   H54746705   4.325   1.730   1.427 -1.6302  0.5108 -0.3050
   50MOL   H54846706   4.532   1.641   1.334  0.2456 -0.0101 -2.8651
   50MOL   H54946707   4.463   1.552   1.213 -1.1163 -2.0130  0.4260
   50MOL   H55046708   4.434   1.508   1.519  0.2060  0.4754 -0.5200
   50MOL   H55146709   4.346   1.398   1.410  0.7830 -0.5648  0.7220
   50MOL   H55246710   4.554   1.310   1.313  2.5854  1.2936 -0.8785
   50MOL   H55346711   4.643   1.407   1.407  0.7338 -0.9841  0.7859
   50MOL   H55446712   4.602   1.344   1.610 -0.2284  0.8126 -0.3045
   50MOL   H55546713   4.460   1.234   1.572  0.7110  0.0227  2.0755
   50MOL   H55646714   4.623   1.093   1.438 -0.0272 -0.1005  0.0293
   50MOL   H55746715   4.749   1.208   1.493  1.3959 -0.9915  2.2537
   50MOL   H55846716   4.711   0.976   1.615 -0.3472 -0.6745  2.0925
   50MOL   H55946717   4.561   1.032   1.667 -0.5853  1.2001 -2.6138
   50MOL   H56046718   4.662   1.230   1.789  1.1700  1.6981 -2.7349
   50MOL   H56146719   4.821   1.165   1.756  0.4646 -2.4424  1.1551
   50MOL   H56246720   4.846   0.872   1.961 -0.7805  2.0159  0.2679
   50MOL   H56346721   4.921   0.720   2.147  0.9116  2.9435 -1.5600
   50MOL   H56446722   4.544   0.778   2.338  0.6920  1.2795  1.0448
   50MOL   H56546723   4.490   0.957   2.185 -0.5079  0.9048 -2.7954
   50MOL   O56646724   4.754   0.580   2.587 -0.0837 -0.1533 -0.7938
   50MOL   C56746725   4.630   0.561   2.643 -0.1666  0.0021 -0.2741
   50MOL   C56846726   4.658   0.463   2.766 -0.0849 -0.2187  0.2794
   50MOL   C56946727   4.535   0.419   2.852 -0.4919 -0.2307  0.0952
   50MOL   C57046728   4.447   0.319   2.780 -1.0581 -0.3281  0.0901
   50MOL   C57146729   4.313   0.294   2.849  0.3014  0.5497 -0.0205
   50MOL   C57246730   4.232   0.182   2.777 -0.0894  0.4431 -0.3552
   50MOL   C57346731   4.091   0.180   2.832  0.1805  0.1542  0.5180
   50MOL   C57446732   4.000   0.300   2.803  0.4719 -0.0125 -0.8843
   50MOL   C57546733   3.984   0.341   2.656 -0.2312 -0.2416 -0.1824
   50MOL   C57646734   3.892   0.460   2.632 -0.3720 -0.7324 -0.4204
   50MOL   O57746735   3.875   0.481   2.493 -0.8338 -1.4149  0.3511
   50MOL   C57846736   3.854   0.609   2.446 -1.0442  0.2628 -0.4988
   50MOL   O57946737   3.879   0.712   2.507  0.3925  0.3847 -0.2520
   50MOL   C58046738   3.812   0.603   2.305 -0.4921  0.3121 -0.5060
   50MOL   C58146739   3.806   0.483   2.225  0.6288  0.4234 -0.7255
   50MOL   C58246740   3.761   0.492   2.093 -0.5942 -0.1450 -0.1677
   50MOL   C58346741   3.742   0.614   2.025  0.1009  0.0047 -0.4192
   50MOL   C58446742   3.722   0.615   1.870  0.0287  0.1001 -0.7651
   50MOL   O58546743   3.738   0.523   1.795 -0.2124  0.3392 -0.4153
   50MOL   O58646744   3.673   0.735   1.831 -0.6305  0.3204  0.3538
   50MOL   C58746745   3.745   0.728   2.104 -0.5706  0.1990  0.2557
   50MOL   C58846746   3.779   0.724   2.241 -0.2852 -0.4618 -0.5151
   50MOL   H58946747   4.590   0.660   2.666  0.2046 -0.3732  2.1439
   50MOL   H59046748   4.572   0.515   2.563  1.8742 -1.4212 -0.9801
   50MOL   H59146749   4.726   0.515   2.833 -1.4747  1.9966  0.0192
   50MOL   H59246750   4.715   0.378   2.727  0.0306  0.1577 -0.3700
   50MOL   H59346751   4.558   0.373   2.948 -0.2055 -0.6906 -0.1933
   50MOL   H59446752   4.484   0.509   2.885 -0.2014 -0.6850  1.8435
   50MOL   H59546753   4.502   0.226   2.768  0.6718  0.8757 -1.4978
   50MOL   H59646754   4.436   0.365   2.682  1.6504  2.1167  0.8767
   50MOL   H59746755   4.324   0.262   2.952 -0.3980 -0.9280 -0.3793
   50MOL   H59846756   4.243   0.377   2.857  0.0588  0.2268  1.2224
   50MOL   H59946757   4.233   0.199   2.670 -1.3954  0.5224 -0.3628
   50MOL   H60046758   4.291   0.091   2.790  0.0260  0.7002  1.0827
   50MOL   H60146759   4.038   0.095   2.790  1.2343 -0.5435  0.5876
   50MOL   H60246760   4.100   0.174   2.940 -0.3639 -1.8676  0.4613
   50MOL   H60346761   3.905   0.286   2.854 -0.5678 -0.2718 -2.8702
   50MOL   H60446762   4.023   0.394   2.854 -0.6254 -0.6410  0.7995
   50MOL   H60546763   3.949   0.251   2.606 -0.2328 -1.1178  1.3686
   50MOL   H60646764   4.083   0.356   2.613 -0.8255 -1.1014 -1.8730
   50MOL   H60746765   3.937   0.549   2.678 -1.8753 -0.5177  0.6510
   50MOL   H60846766   3.802   0.443   2.691 -0.1503  0.5109  0.3131
   50MOL   H60946767   3.827   0.389   2.273 -1.0644  0.8722  0.9428
   50MOL   H61046768   3.759   0.395   2.046  1.2513  0.1007 -0.8163
   50MOL   H61146769   3.742   0.826   2.059 -0.6920  0.3838  0.6648
   50MOL   H61246770   3.789   0.822   2.286  1.3587  0.1279 -2.0720
   50MOL   O61346771   3.659   0.759   1.680  0.5736  0.0568 -0.2219
   50MOL   C61446772   3.524   0.788   1.652 -0.3593  0.1834  0.1942
   50MOL   C61546773   3.511   0.936   1.688 -0.2017 -0.0269  0.8077
   50MOL   C61646774   3.369   0.980   1.696  0.5995  0.4567  0.1499
   50MOL   C61746775   3.302   0.996   1.552  0.0240 -0.1506  0.4397
   50MOL   C61846776   3.157   1.023   1.561 -0.1946 -0.0749 -0.1595
   50MOL   C61946777   3.113   1.071   1.420  0.0469 -0.0955  0.0203
   50MOL   C62046778   2.971   1.126   1.417  0.4351 -0.1669  0.6023
   50MOL   C62146779   2.944   1.258   1.497  0.3181  0.4605  0.4461
   50MOL   C62246780   2.809   1.318   1.452  0.5518  0.1919  0.0249
   50MOL   C62346781   2.770   1.446   1.535 -0.0352  0.7715 -0.9796
   50MOL   O62446782   2.728   1.422   1.665  0.1506 -0.2229 -0.2986
   50MOL   C62546783   2.609   1.363   1.692 -0.1015  0.0868  0.3349
   50MOL   O62646784   2.531   1.327   1.602 -0.2609 -0.0660 -0.1588
   50MOL   C62746785   2.571   1.347   1.837 -0.0364  0.2962 -0.2746
   50MOL   C62846786   2.643   1.418   1.932 -0.6776 -0.3107 -0.2701
   50MOL   C62946787   2.602   1.420   2.069  0.4244 -0.4595 -1.1148
   50MOL   C63046788   2.492   1.340   2.113  0.0992  0.0107 -0.3555
   50MOL   C63146789   2.456   1.304   2.253  0.3903 -0.7244 -0.2091
   50MOL   O63246790   2.359   1.236   2.289  0.3788 -0.4849  0.5535
   50MOL   O63346791   2.564   1.342   2.324 -0.0925 -0.4937  0.8976
   50MOL   C63446792   2.420   1.274   2.007  0.4227 -0.4208 -0.1696
   50MOL   C63546793   2.448   1.286   1.869 -1.4820 -0.1774 -0.0742
   50MOL   H63646794   3.500   0.766   1.548  0.2437 -3.7051  0.8282
   50MOL   H63746795   3.465   0.720   1.715 -1.3036  2.0898  1.4526
   50MOL   H63846796   3.567   0.994   1.615 -1.6218  0.6208  0.2088
   50MOL   H63946797   3.558   0.949   1.786  0.3947 -1.9606  0.7805
   50MOL   H64046798   3.310   0.915   1.759  0.7771  0.1357 -0.0126
   50MOL   H64146799   3.365   1.083   1.732 -2.3224  0.3165  0.3099
   50MOL   H64246800   3.317   0.904   1.495 -0.2589  0.4908 -0.6955
   50MOL   H64346801   3.353   1.078   1.501 -2.2718  1.3718  0.4861
   50MOL   H64446802   3.095   0.937   1.588  0.2160 -0.5119 -0.5986
   50MOL   H64546803   3.145   1.103   1.633 -1.4374 -1.1729  0.8791
   50MOL   H64646804   3.179   1.151   1.386 -0.1512  0.6642  1.3897
   50MOL   H64746805   3.117   0.984   1.354  0.6477 -1.3051  1.5883
   50MOL   H64846806   2.947   1.156   1.315  1.1142  0.2297  0.5613
   50MOL   H64946807   2.899   1.051   1.449  0.3016  0.3176  1.4565
   50MOL   H65046808   2.943   1.239   1.604  0.5956 -1.2298  0.1765
   50MOL   H65146809   3.023   1.328   1.469 -2.6731  4.4250  1.5555
   50MOL   H65246810   2.731   1.242   1.456  2.5685 -2.0839 -2.4244
   50MOL   H65346811   2.818   1.344   1.346  0.6673 -1.3666 -0.3590
   50MOL   H65446812   2.690   1.505   1.491 -1.3255 -1.1413 -1.2831
   50MOL   H65546813   2.860   1.507   1.543  0.9587 -0.8714  0.7811
   50MOL   H65646814   2.733   1.470   1.901  0.9182 -2.4021  0.6894
   50MOL   H65746815   2.657   1.490   2.130 -1.0008  1.5219 -2.0520
   50MOL   H65846816   2.337   1.210   2.034  0.5407 -1.0857 -1.3475
   50MOL   H65946817   2.376   1.239   1.805  0.3646 -1.4981 -1.2234
   50MOL   O66046818   2.545   1.366   2.467 -0.1434  0.2697  0.1300
   50MOL   C66146819   2.600   1.264   2.541  0.3570  0.2345  0.6622
   50MOL   C66246820   2.643   1.312   2.682  0.2325  0.2291  0.2848
   50MOL   C66346821   2.731   1.213   2.761  0.2323 -0.0226  0.2598
   50MOL   C66446822   2.734   1.239   2.911 -0.8546 -0.1743 -0.4624
   50MOL   C66546823   2.857   1.191   2.987  0.2346  0.3831 -0.5530
   50MOL   C66646824   2.847   1.046   3.032  0.2006 -0.2876  0.2553
   50MOL   C66746825   2.977   0.997   3.107  0.2155 -0.9013  0.0038
   50MOL   C66846826   2.981   0.848   3.141 -0.6169 -0.7606 -0.8560
   50MOL   C66946827   3.119   0.805   3.201  0.1655  0.5470 -0.0146
   50MOL   C67046828   3.163   0.666   3.161 -1.0511 -0.7835  0.6290
   50MOL   O67146829   3.088   0.572   3.230  0.0927 -0.2115  0.2498
   50MOL   C67246830   3.103   0.442   3.210 -0.0458 -0.0638 -0.2338
   50MOL   O67346831   3.185   0.385   3.136 -0.6739 -0.1707  0.2674
   50MOL   C67446832   3.020   0.355   3.295  0.3022  0.0052 -0.3043
   50MOL   C67546833   3.056   0.217   3.325  0.0682  0.2451  0.3297
   50MOL   C67646834   2.979   0.144   3.417 -0.7474 -0.2821  0.4927
   50MOL   C67746835   2.851   0.189   3.452  0.3165  0.1312 -0.2231
   50MOL   C67846836   2.760   0.105   3.527 -0.2713 -0.5621  0.1822
   50MOL   O67946837   2.759   7.959   3.520  0.2516 -0.4973  0.2690
   50MOL   O68046838   2.669   0.164   3.611  0.0671 -0.8246 -0.2358
   50MOL   C68146839   2.807   0.320   3.410 -0.2396  0.1454  0.5134
   50MOL   C68246840   2.899   0.404   3.340 -0.1154  0.0595  0.1479
   50MOL   H68346841   2.522   1.189   2.547  0.4475  0.3652  4.5624
   50MOL   H68446842   2.685   1.226   2.484  0.6220 -1.9046  2.4145
   50MOL   H68546843   2.554   1.326   2.743 -1.3184  0.3791 -1.9480
   50MOL   H68646844   2.688   1.411   2.676 -2.6303  1.4439 -2.1658
   50MOL   H68746845   2.695   1.113   2.738 -0.6908 -0.0843  1.8595
   50MOL   H68846846   2.828   1.229   2.715 -0.5831  1.3713 -1.0501
   50MOL   H68946847   2.642   1.195   2.951 -0.7695  0.3476  0.3173
   50MOL   H69046848   2.724   1.345   2.936 -0.2684 -0.5466  1.4745
   50MOL   H69146849   2.944   1.219   2.928 -0.1768  0.1345 -1.2985
   50MOL   H69246850   2.871   1.241   3.082  1.7084 -1.7723  0.3962
   50MOL   H69346851   2.766   1.042   3.105 -1.6350  2.9267 -1.5178
   50MOL   H69446852   2.820   0.980   2.950 -0.5124  0.5040 -0.1523
   50MOL   H69546853   3.064   1.018   3.045 -1.1348  2.0001 -0.9888
   50MOL   H69646854   2.988   1.056   3.198 -2.0813 -1.3258  0.5987
   50MOL   H69746855   2.900   0.824   3.210 -0.0358  0.6653  0.3506
   50MOL   H69846856   2.963   0.800   3.044  0.0232 -1.1587 -0.7773
   50MOL   H69946857   3.127   0.837   3.305  2.2677  2.0846 -0.6097
   50MOL   H70046858   3.194   0.864   3.148 -0.4659  0.6961 -0.7506
   50MOL   H70146859   3.269   0.651   3.180 -0.6113  1.4575  0.1602
   50MOL   H70246860   3.150   0.660   3.052  2.0363  0.7024  0.1172
   50MOL   H70346861   3.154   0.175   3.311 -0.1132 -0.7750  2.0196
   50MOL   H70446862   3.014   0.046   3.446  1.6866 -0.3357 -2.3896
   50MOL   H70546863   2.722   0.375   3.449 -1.5323 -0.5287 -1.2813
   50MOL   H70646864   2.880   0.508   3.316 -0.4115  0.3288  1.5046
   50MOL   O70746865   2.588   0.065   3.687  0.3941 -0.5037 -0.6576
   50MOL   C70846866   2.462   0.065   3.626 -0.2355 -0.4022  0.9303
   50MOL   C70946867   2.392   7.925   3.688 -0.0307 -0.3907  0.0130
   50MOL   C71046868   2.239   7.934   3.659 -0.4203 -0.0664  0.0911
   50MOL   C71146869   2.164   7.832   3.752 -0.6854 -0.3254 -0.0769
   50MOL   C71246870   2.015   7.844   3.761 -0.2155 -0.0916  0.1841
   50MOL   C71346871   1.944   7.810   3.621  0.0582 -0.0651  0.3358
   50MOL   C71446872   1.898   7.932   3.555 -0.0844  0.2943 -0.6254
   50MOL   C71546873   1.839   7.922   3.411 -0.1624  0.2354  0.0727
   50MOL   C71646874   1.830   0.080   3.345  0.2306 -0.3819  0.0032
   50MOL   C71746875   1.795   0.067   3.193  0.6624  0.1902 -0.2986
   50MOL   O71846876   1.893   7.963   3.125 -0.3650  0.1947 -0.3641
   50MOL   C71946877   1.889   7.932   2.986 -0.0276  0.0786 -0.3184
   50MOL   O72046878   1.828   0.023   2.902 -0.0037 -0.0814  0.1366
   50MOL   C72146879   1.977   7.814   2.955 -0.2976 -0.0744 -0.6151
   50MOL   C72246880   2.065   7.758   3.050  0.7840  0.2471 -0.0955
   50MOL   C72346881   2.147   7.649   3.018  0.1529  0.5077  0.5667
   50MOL   C72446882   2.141   7.596   2.890  0.1910  0.0968  0.4154
   50MOL   C72546883   2.221   7.471   2.859 -0.2296 -0.8723 -0.4227
   50MOL   O72646884   2.298   7.411   2.936 -0.4348 -0.5746 -0.4703
   50MOL   O72746885   2.198   7.432   2.730  0.1993 -0.0106 -0.0565
   50MOL   C72846886   2.043   7.652   2.794  0.2226  0.4841  0.6414
   50MOL   C72946887   1.965   7.758   2.829  0.1026  0.3551 -0.2679
   50MOL   H73046888   2.418   0.164   3.633  3.8769  1.9342 -3.4891
   50MOL   H73146889   2.469   0.042   3.520 -1.4717  2.1042  0.2824
   50MOL   H73246890   2.413   7.919   3.795 -0.8368 -1.9705  0.0927
   50MOL   H73346891   2.426   7.826   3.658  1.3618 -0.0581  0.4723
   50MOL   H73446892   2.222   0.062   3.678 -1.2211 -0.1318 -0.2533
   50MOL   H73546893   2.213   7.919   3.554  2.2393  2.1806 -0.9331
   50MOL   H73646894   2.197   7.842   3.855  1.4283 -3.7466 -0.3363
   50MOL   H73746895   2.190   7.731   3.719  1.0057  0.4741 -1.2791
   50MOL   H73846896   1.976   7.771   3.832 -0.5119 -0.3966 -0.2968
   50MOL   H73946897   1.988   7.939   3.808  0.2377  0.8480 -1.4400
   50MOL   H74046898   2.027   7.769   3.564  0.5224  1.5152 -0.1433
   50MOL   H74146899   1.856   7.747   3.636  0.1635  0.0152  1.3254
   50MOL   H74246900   1.825   0.002   3.621  1.4204  1.3435  0.3164
   50MOL   H74346901   1.986   0.018   3.564 -0.0755 -0.0475  2.4167
   50MOL   H74446902   1.891   7.846   3.354  0.3971  0.5484  0.1631
   50MOL   H74546903   1.738   7.883   3.423  0.0573 -0.6073 -0.8176
   50MOL   H74646904   1.926   0.130   3.360  0.8954 -1.5032 -0.4130
   50MOL   H74746905   1.755   0.145   3.389 -0.3925 -1.5494  0.6915
   50MOL   H74846906   1.775   0.161   3.143 -1.2948  0.1453  0.3622
   50MOL   H74946907   1.704   0.007   3.195  1.5261 -1.1148  1.1327
   50MOL   H75046908   2.071   7.798   3.150 -1.9355 -0.3119  0.3202
   50MOL   H75146909   2.226   7.615   3.084 -0.3692  0.8908  1.4003
   50MOL   H75246910   2.037   7.608   2.695  2.6701  1.2808  0.1038
   50MOL   H75346911   1.901   7.807   2.757 -2.9264 -1.2712  1.2488
   50MOL   O75446912   2.264   7.298   2.698 -0.3533  0.3826  0.4857
   50MOL   C75546913   2.394   7.321   2.635  0.2591  0.5589  0.3205
   50MOL   C75646914   2.372   7.402   2.500 -0.4541 -0.4175 -0.3179
   50MOL   C75746915   2.507   7.442   2.433  0.6255 -0.4515 -0.0558
   50MOL   C75846916   2.487   7.470   2.291  0.6731  0.3852  0.4850
   50MOL   C75946917   2.598   7.540   2.216 -0.0606  0.6645 -0.8744
   50MOL   C76046918   2.562   7.582   2.077  0.1464  0.2887 -0.5084
   50MOL   C76146919   2.678   7.606   1.981  0.1477 -0.6308 -0.5142
   50MOL   C76246920   2.635   7.712   1.873  0.0163  0.2395 -0.6018
   50MOL   C76346921   2.726   7.717   1.746  0.4664 -1.0436 -0.5601
   50MOL   C76446922   2.671   7.788   1.622 -0.6049  0.1244  0.1520
   50MOL   O76546923   2.652   7.926   1.643 -0.1061  0.2365  0.4309
   50MOL   C76646924   2.729   0.031   1.570  0.5586 -0.4764  0.1890
   50MOL   O76746925   2.815   7.969   1.489 -0.2363  0.9144  0.0333
   50MOL   C76846926   2.715   0.173   1.607 -0.0564 -0.2151 -0.8025
   50MOL   C76946927   2.623   0.207   1.717  0.1341 -0.2005  0.0495
   50MOL   C77046928   2.616   0.342   1.757  0.0649  0.7245 -0.4343
   50MOL   C77146929   2.674   0.443   1.676 -0.1655  0.9947  0.0214
   50MOL   C77246930   2.669   0.587   1.719  0.7296  0.2384  0.2069
   50MOL   O77346931   2.617   0.620   1.830 -0.4516 -0.0624 -0.5755
   50MOL   O77446932   2.699   0.675   1.616 -0.3560 -0.0985  0.6426
   50MOL   C77546933   2.752   0.410   1.568 -0.6102  0.0175  0.3458
   50MOL   C77646934   2.786   0.275   1.538 -0.2934 -0.1507  0.2129
   50MOL   H77746935   2.459   7.368   2.709 -0.1838  2.9462 -0.7607
   50MOL   H77846936   2.439   7.225   2.609  2.5914  0.9120  2.8021
   50MOL   H77946937   2.322   7.496   2.522  0.0014  0.2090 -1.9173
   50MOL   H78046938   2.312   7.341   2.433 -0.7995 -0.7135  0.2607
   50MOL   H78146939   2.545   7.529   2.487 -1.0702  1.9737 -2.6391
   50MOL   H78246940   2.580   7.363   2.448 -0.4864 -2.1097 -3.0694
   50MOL   H78346941   2.391   7.522   2.288 -0.5578 -1.8369 -0.6363
   50MOL   H78446942   2.450   7.386   2.232 -0.2872  1.9174 -1.1598
   50MOL   H78546943   2.633   7.623   2.277  0.2819 -0.2676  0.2028
   50MOL   H78646944   2.688   7.479   2.213  0.1604  0.8572  1.1765
   50MOL   H78746945   2.490   7.511   2.037  0.8046 -1.4640  1.3060
   50MOL   H78846946   2.496   7.669   2.079 -2.6467 -1.7538 -0.3589
   50MOL   H78946947   2.765   7.647   2.034  0.5869  0.1718 -1.8354
   50MOL   H79046948   2.721   7.521   1.928 -0.5939 -1.4973  0.2609
   50MOL   H79146949   2.534   7.684   1.845 -0.4170  0.0637  1.0699
   50MOL   H79246950   2.626   7.817   1.901  0.6804 -0.3286  1.9241
   50MOL   H79346951   2.749   7.615   1.717  0.7490 -1.1143 -0.0901
   50MOL   H79446952   2.821   7.762   1.774  1.3670 -2.3643 -1.4360
   50MOL   H79546953   2.582   7.730   1.598 -1.8938  1.7764  0.8558
   50MOL   H79646954   2.731   7.767   1.534 -1.1609  0.6434 -0.3563
   50MOL   H79746955   2.568   0.132   1.772 -1.1115 -0.0368 -0.9477
   50MOL   H79846956   2.568   0.369   1.849  0.5233  0.5177 -0.1356
   50MOL   H79946957   2.813   0.482   1.515 -1.2381  0.2741 -0.0364
   50MOL   H80046958   2.848   0.248   1.454  0.4409 -1.4234  1.1507
   50MOL   O80146959   2.654   0.817   1.642 -0.0511  0.4335 -0.3663
   50MOL   C80246960   2.743   0.874   1.734  0.4645  0.4620 -0.0086
   50MOL   C80346961   2.728   1.025   1.733 -0.1450  0.5905 -0.7395
   50MOL   C80446962   2.810   1.103   1.843  0.6735  0.0271 -0.5916
   50MOL   C80546963   2.790   1.087   1.996  0.7972  0.1423 -0.3744
   50MOL   C80646964   2.883   1.172   2.075 -0.0089  0.4096  0.5275
   50MOL   C80746965   2.863   1.137   2.223 -0.3245 -0.5342  0.1385
   50MOL   C80846966   2.938   1.222   2.325 -0.1332  0.0113 -0.0743
   50MOL   C80946967   2.906   1.376   2.314 -0.0600 -0.7930  0.2485
   50MOL   C81046968   2.975   1.452   2.434 -0.8016 -0.6538 -0.4340
   50MOL   C81146969   2.969   1.606   2.426 -0.2982  0.2546 -0.3213
   50MOL   O81246970   2.844   1.647   2.470 -0.0632  0.4231 -0.5688
   50MOL   C81346971   2.823   1.775   2.503  0.5111 -0.0868 -0.5653
   50MOL   O81446972   2.910   1.862   2.497  0.5764 -0.0424  0.0824
   50MOL   C81546973   2.689   1.800   2.548  0.0708 -0.0346  0.6574
   50MOL   C81646974   2.658   1.927   2.611 -0.9247 -0.4051 -0.0475
   50MOL   C81746975   2.524   1.954   2.660  0.3400 -0.5832  0.6374
   50MOL   C81846976   2.421   1.863   2.620  0.0468 -0.1208 -0.1042
   50MOL   C81946977   2.285   1.899   2.649 -0.3556  0.0459 -0.2847
   50MOL   O82046978   2.254   1.981   2.737  0.2175 -0.3112  0.1439
   50MOL   O82146979   2.200   1.837   2.562  0.1788 -0.3358  0.0746
   50MOL   C82246980   2.457   1.737   2.558  0.3566 -0.5725  0.1688
   50MOL   C82346981   2.588   1.707   2.519 -0.2596 -0.7427  0.2573
   50MOL   H82446982   2.720   0.845   1.837 -1.1932  0.1021 -0.4715
   50MOL   H82546983   2.846   0.840   1.720  0.1237 -1.3772  1.7019
   50MOL   H82646984   2.625   1.046   1.761 -0.5291  0.0652 -1.7455
   50MOL   H82746985   2.744   1.057   1.630  2.6651  0.9686 -0.2188
   50MOL   H82846986   2.914   1.088   1.816  0.3887  0.9563 -2.2660
   50MOL   H82946987   2.811   1.212   1.844 -0.4962  0.0716  2.1477
   50MOL   H83046988   2.812   0.981   2.008 -0.6271 -0.4623 -2.6562
   50MOL   H83146989   2.687   1.101   2.030  0.9510  0.4201 -0.0229
   50MOL   H83246990   2.985   1.168   2.035 -0.2641 -1.9442  0.0607
   50MOL   H83346991   2.858   1.276   2.054 -2.4360  0.0254  1.4546
   50MOL   H83446992   2.757   1.154   2.237 -0.4619 -1.4376  0.2196
   50MOL   H83546993   2.868   1.029   2.237  1.5138 -0.8237 -2.3323
   50MOL   H83646994   2.931   1.189   2.429 -0.1313 -0.4385 -0.2126
   50MOL   H83746995   3.046   1.214   2.309  0.2729 -0.4110  2.6086
   50MOL   H83846996   2.941   1.411   2.217  1.5462 -1.5408  0.5519
   50MOL   H83946997   2.801   1.404   2.321 -0.0517 -0.9376  1.0422
   50MOL   H84046998   3.077   1.418   2.446 -0.4478  1.1314  2.1480
   50MOL   H84146999   2.919   1.431   2.526  0.6289  3.2811  1.4558
   50MOL   H84247000   2.983   1.641   2.323 -0.5898  1.3161 -0.0113
   50MOL   H84347001   3.049   1.654   2.484 -2.0413  1.6495  0.9820
   50MOL   H84447002   2.739   1.998   2.622  0.2083 -1.7798  0.7806
   50MOL   H84547003   2.495   2.044   2.713  0.0695 -0.0792 -0.3550
   50MOL   H84647004   2.377   1.672   2.527 -1.6510  1.7647  0.3409
   50MOL   H84747005   2.605   1.611   2.472 -3.0049 -0.7921 -0.7157
   50MOL   O84847006   2.061   1.890   2.573  0.4660  0.0170  0.7223
   50MOL   C84947007   2.043   1.998   2.497 -0.1888 -0.1369 -0.2757
   50MOL   C85047008   1.895   2.019   2.470 -0.8358 -0.2136  0.0724
   50MOL   C85147009   1.876   2.128   2.359  0.0279 -0.1392 -0.2708
   50MOL   C85247010   1.721   2.144   2.334  0.5602 -0.4780  0.3659
   50MOL   C85347011   1.688   2.238   2.218  0.0091  0.3102  0.6800
   50MOL   C85447012   1.715   2.382   2.247  0.0917  0.0080  0.1764
   50MOL   C85547013   1.720   2.471   2.121 -0.0188  0.1150  0.6253
   50MOL   C85647014   1.738   2.618   2.159  0.3999  0.2461  1.2108
   50MOL   C85747015   1.612   2.686   2.221  0.3831 -0.8450 -0.3628
   50MOL   C85847016   1.630   2.829   2.256  0.1870 -0.6579  0.0295
   50MOL   O85947017   1.527   2.887   2.325  0.0793 -0.1304  0.6496
   50MOL   C86047018   1.547   3.014   2.377 -0.3721 -0.3801  0.1681
   50MOL   O86147019   1.637   3.085   2.335  0.1098 -0.4251  0.0170
   50MOL   C86247020   1.444   3.066   2.467  0.0468  0.2058  0.1559
   50MOL   C86347021   1.314   3.013   2.486  0.5942 -0.2969  0.4679
   50MOL   C86447022   1.222   3.083   2.568 -0.3627 -0.5541  0.4260
   50MOL   C86547023   1.250   3.203   2.637 -0.1252 -0.1688  0.2889
   50MOL   C86647024   1.150   3.275   2.716 -0.9085 -0.2316 -0.8284
   50MOL   O86747025   1.038   3.222   2.743 -0.4937 -0.3263  0.1234
   50MOL   O86847026   1.189   3.394   2.758 -0.2439 -0.1587 -0.4619
   50MOL   C86947027   1.386   3.249   2.627  0.4486  0.5311  0.9087
   50MOL   C87047028   1.470   3.187   2.531 -0.4759 -0.0994  0.0797
   50MOL   H87147029   2.084   2.087   2.545  3.1940 -1.3047 -0.8631
   50MOL   H87247030   2.083   1.975   2.398  1.3777  1.4101 -0.0302
   50MOL   H87347031   1.837   2.053   2.556 -0.3870  0.8124 -0.0233
   50MOL   H87447032   1.848   1.931   2.425 -0.3067  0.7503 -2.4554
   50MOL   H87547033   1.907   2.227   2.390  0.7558 -0.2968 -0.4871
   50MOL   H87647034   1.927   2.109   2.265 -1.0255 -1.4212 -0.6132
   50MOL   H87747035   1.687   2.183   2.431  1.7701 -0.2171  0.6952
   50MOL   H87847036   1.677   2.045   2.318  0.8980 -0.4362 -0.8371
   50MOL   H87947037   1.742   2.204   2.130 -2.0192  1.4220 -1.0380
   50MOL   H88047038   1.582   2.237   2.193  0.4300  1.1679 -1.2155
   50MOL   H88147039   1.639   2.422   2.313  0.1765  0.5909 -0.0789
   50MOL   H88247040   1.803   2.400   2.309 -1.2806 -0.6965  2.3532
   50MOL   H88347041   1.797   2.432   2.054 -2.6565 -1.9703 -1.3307
   50MOL   H88447042   1.629   2.475   2.061 -0.3969 -1.4004  1.0714
   50MOL   H88547043   1.819   2.638   2.230  0.6869 -1.0598  1.2833
   50MOL   H88647044   1.769   2.675   2.072  1.4068 -1.4265  0.4483
   50MOL   H88747045   1.582   2.639   2.314 -1.8625 -0.4576 -0.8609
   50MOL   H88847046   1.519   2.666   2.168  0.2276 -0.3926 -0.2643
   50MOL   H88947047   1.647   2.885   2.164 -1.0951  2.3349  1.5202
   50MOL   H89047048   1.722   2.842   2.313  0.8345  0.1775 -1.1808
   50MOL   H89147049   1.283   2.927   2.427 -3.3474  1.1854  0.2158
   50MOL   H89247050   1.121   3.045   2.572  0.2619 -2.5179 -1.5465
   50MOL   H89347051   1.413   3.338   2.683  3.0262  0.3524 -0.0197
   50MOL   H89447052   1.569   3.228   2.527  0.0780 -1.3690  0.5243
   50MOL   O89547053   1.087   3.462   2.845  0.0250 -0.1911  0.2808
   50MOL   C89647054   1.144   3.489   2.972 -0.3197  0.7966  0.3384
   50MOL   C89747055   1.056   3.591   3.050 -0.3361  0.3372  1.1981
   50MOL   C89847056   1.037   3.731   2.976  0.3603 -0.3869 -0.4576
   50MOL   C89947057   0.945   3.827   3.050 -0.3534  0.3068 -0.3663
   50MOL   C90047058   0.897   3.947   2.972  0.8709  0.1659  0.6593
   50MOL   C90147059   0.782   3.922   2.878 -0.0539 -0.3433 -0.0388
   50MOL   C90247060   0.830   3.897   2.730  0.4585  0.0240  0.0088
   50MOL   C90347061   0.844   4.023   2.643 -0.3020  0.1584  0.0914
   50MOL   C90447062   0.899   4.002   2.509  0.6499  0.9684  0.3488
   50MOL   C90547063   0.881   4.119   2.416  0.1782  0.7612 -0.0888
   50MOL   O90647064   0.968   4.225   2.451  0.1857 -0.4955 -0.1717
   50MOL   C90747065   1.093   4.234   2.382 -0.0599 -0.3932 -0.0751
   50MOL   O90847066   1.126   4.167   2.284  0.2844  0.0935  0.0983
   50MOL   C90947067   1.177   4.343   2.434  0.5124 -0.4930 -0.1094
   50MOL   C91047068   1.298   4.377   2.374 -0.2005  0.3749  0.1016
   50MOL   C91147069   1.387   4.473   2.433 -0.6017 -0.0726 -0.3965
   50MOL   C91247070   1.357   4.530   2.562  0.3232  0.1821  0.2396
   50MOL   C91347071   1.446   4.630   2.626  0.5280  0.0592 -0.3783
   50MOL   O91447072   1.429   4.678   2.739  0.0077  0.0686 -0.3388
   50MOL   O91547073   1.553   4.667   2.550 -0.4946 -0.5239  0.4100
   50MOL   C91647074   1.229   4.502   2.614 -0.6987 -0.2572  0.2104
   50MOL   C91747075   1.142   4.407   2.551 -0.0950 -0.1470 -0.5517
   50MOL   H91847076   1.158   3.398   3.029 -1.1680 -0.0722 -0.8260
   50MOL   H91947077   1.239   3.535   2.945  0.6998 -1.0081  0.7830
   50MOL   H92047078   1.097   3.621   3.146  0.8877 -2.1325  1.4871
   50MOL   H92147079   0.961   3.540   3.063 -0.5277  0.5183  0.5283
   50MOL   H92247080   1.139   3.768   2.969  1.2482 -2.9848 -2.1982
   50MOL   H92347081   1.005   3.701   2.876  3.2375 -2.4699 -0.8243
   50MOL   H92447082   1.001   3.858   3.138 -1.5374  0.0625  0.4856
   50MOL   H92547083   0.859   3.771   3.087  0.3633  0.0053  0.8507
   50MOL   H92647084   0.852   4.023   3.036  0.1911  0.2635  0.0792
   50MOL   H92747085   0.988   3.980   2.923  1.2725 -0.4240  1.0099
   50MOL   H92847086   0.718   3.841   2.913  1.0656 -0.2614  2.2852
   50MOL   H92947087   0.719   4.010   2.878  2.2195  1.3185  0.2731
   50MOL   H93047088   0.922   3.839   2.723  0.3451 -0.1566 -0.0080
   50MOL   H93147089   0.763   3.825   2.682  1.0407  0.8299 -2.0441
   50MOL   H93247090   0.743   4.063   2.649 -0.6373 -0.5683 -0.6820
   50MOL   H93347091   0.907   4.097   2.692  0.4825 -1.0553  0.9563
   50MOL   H93447092   0.855   3.918   2.455  0.4788  0.2950  1.5294
   50MOL   H93547093   1.005   3.979   2.511  0.7901  1.1555 -2.5870
   50MOL   H93647094   0.779   4.158   2.410 -0.0490  0.4720  1.4868
   50MOL   H93747095   0.910   4.084   2.317 -0.1620  1.3966 -0.4209
   50MOL   H93847096   1.317   4.334   2.277 -1.6708  2.8936 -1.3907
   50MOL   H93947097   1.482   4.488   2.384 -0.6976  1.4901 -0.1308
   50MOL   H94047098   1.199   4.546   2.708  0.6997 -1.8058  1.4154
   50MOL   H94147099   1.057   4.373   2.608  0.2446  1.0505  0.7025
   50MOL   H94247100   1.617   4.693   2.614 -1.0178  2.2822 -0.1343
   51MOL     O147101   1.093   5.326   0.353 -0.1943  0.8500  0.1036
   51MOL     C247102   1.030   5.252   0.250 -0.1782  0.2524 -0.6212
   51MOL     C347103   1.064   5.298   0.111  0.2253 -0.9840 -0.4900
   51MOL     C447104   0.985   5.418   0.060 -0.2179  0.2653  0.2802
   51MOL     C547105   1.037   5.449   7.897  0.1561 -0.0460 -0.1046
   51MOL     C647106   0.972   5.576   7.843 -0.5936 -0.3249  0.6739
   51MOL     C747107   1.008   5.603   7.691  0.6192  0.1331  1.0457
   51MOL     C847108   0.982   5.739   7.632 -0.2454 -0.3866  0.6933
   51MOL     C947109   1.053   5.750   7.496 -0.5293  0.1898  0.8197
   51MOL    C1047110   1.037   5.887   7.434  0.3193  0.8908 -1.2111
   51MOL    C1147111   0.888   5.937   7.411  0.4952  0.2762 -0.4111
   51MOL    O1247112   0.891   6.051   7.326  0.2115 -0.2677 -0.0099
   51MOL    C1347113   0.801   6.144   7.342 -0.1133  0.8264  0.0938
   51MOL    O1447114   0.712   6.130   7.430  0.3790 -0.2279 -0.3380
   51MOL    C1547115   0.814   6.260   7.251 -0.1583  0.6033 -0.2907
   51MOL    C1647116   0.707   6.350   7.247 -0.0960 -0.5145  0.3551
   51MOL    C1747117   0.714   6.460   7.163  1.0978 -0.0869 -0.7468
   51MOL    C1847118   0.832   6.482   7.088  0.1766 -0.1236  0.6590
   51MOL    C1947119   0.826   6.581   6.974  0.3433  0.7464 -0.3829
   51MOL    O2047120   0.927   6.623   6.915 -0.2465  0.5726  1.1770
   51MOL    O2147121   0.695   6.608   6.933 -0.2076 -0.3612 -0.6751
   51MOL    C2247122   0.938   6.395   7.093  0.4237  0.4046  0.7094
   51MOL    C2347123   0.927   6.274   7.170 -0.2117  0.0408  0.2828
   51MOL    H2447124   1.070   5.151   0.256 -1.6945 -0.3464 -0.4454
   51MOL    H2547125   0.921   5.248   0.254 -0.1367 -2.0609 -1.1710
   51MOL    H2647126   1.049   5.214   0.043 -0.5404 -1.4260  0.2136
   51MOL    H2747127   1.169   5.325   0.105  0.0444 -0.4029 -1.0749
   51MOL    H2847128   0.880   5.388   0.059 -0.0427 -0.3747  0.7682
   51MOL    H2947129   0.985   5.498   0.134  1.3287  0.3813  0.1694
   51MOL    H3047130   1.012   5.368   7.829 -0.8515 -0.1099  0.3356
   51MOL    H3147131   1.145   5.463   7.890  0.1838 -0.6798 -1.0292
   51MOL    H3247132   0.864   5.573   7.856 -0.6045 -1.2303  0.4258
   51MOL    H3347133   0.998   5.662   7.905 -0.3334 -1.4623  2.1672
   51MOL    H3447134   1.114   5.579   7.678 -0.2392 -2.5642 -1.5437
   51MOL    H3547135   0.956   5.525   7.635  0.2502  0.0369  1.5204
   51MOL    H3647136   0.874   5.751   7.620 -0.1083  0.4315  0.2438
   51MOL    H3747137   1.023   5.817   7.696  0.0227  1.0108 -1.1407
   51MOL    H3847138   1.159   5.726   7.500 -0.1523  1.6844  0.2120
   51MOL    H3947139   1.010   5.670   7.435  1.5694 -0.8269  0.6465
   51MOL    H4047140   1.079   5.874   7.334  0.3093 -0.8724 -0.9952
   51MOL    H4147141   1.083   5.962   7.499 -0.4323 -0.3528  0.7927
   51MOL    H4247142   0.843   5.957   7.508  1.0623 -3.0793  0.6212
   51MOL    H4347143   0.825   5.861   7.365  2.4157 -0.5618 -1.7456
   51MOL    H4447144   0.617   6.329   7.303 -0.6456  3.0888  0.9417
   51MOL    H4547145   0.630   6.524   7.139  0.7060 -1.0831 -2.0556
   51MOL    H4647146   1.017   6.404   7.020  1.0950  1.6311  1.5638
   51MOL    H4747147   0.996   6.191   7.176  0.7230  0.7571 -0.4715
   51MOL    H4847148   1.023   5.355   0.411 -0.9115 -1.2414  0.3163
   51MOL    O4947149   0.701   6.680   6.804 -0.3178 -0.2319  0.2164
   51MOL    C5047150   0.673   6.582   6.701  0.6011 -0.1859  0.3075
   51MOL    C5147151   0.529   6.534   6.693 -0.0371 -1.0083 -0.0113
   51MOL    C5247152   0.519   6.418   6.593 -0.3790 -0.0263 -0.8126
   51MOL    C5347153   0.386   6.342   6.602 -0.2861 -0.4454 -0.7218
   51MOL    C5447154   0.389   6.218   6.508 -0.0753  0.5548 -0.0600
   51MOL    C5547155   0.256   6.139   6.511 -0.3273  0.7571 -0.2476
   51MOL    C5647156   0.241   6.030   6.404 -0.3597 -0.4093 -0.2457
   51MOL    C5747157   0.115   5.948   6.421 -0.0613 -0.5459  0.0113
   51MOL    C5847158   0.098   5.861   6.299 -0.0839 -0.2725 -0.1286
   51MOL    C5947159   7.948   5.779   6.303 -0.4221  0.5627  0.1876
   51MOL    O6047160   7.947   5.694   6.412  0.2800 -0.1963  0.1244
   51MOL    C6147161   7.842   5.633   6.450 -0.9580  0.1089  0.0159
   51MOL    O6247162   7.728   5.640   6.398 -0.2900  0.1698  0.2743
   51MOL    C6347163   7.866   5.543   6.564 -0.0156 -0.7501 -0.7439
   51MOL    C6447164   0.011   5.536   6.629  0.2042 -0.5873 -0.1447
   51MOL    C6547165   0.041   5.446   6.733  0.2623  0.0242  0.6756
   51MOL    C6647166   7.923   5.346   6.766 -0.8178  0.0769  0.5576
   51MOL    C6747167   7.952   5.257   6.883 -0.2824  0.0790  0.0298
   51MOL    O6847168   0.056   5.289   6.970  0.3915  0.2045 -0.4195
   51MOL    O6947169   7.884   5.138   6.879 -0.9394  0.7402 -0.1542
   51MOL    C7047170   7.796   5.353   6.704 -0.5281  0.3567  0.7205
   51MOL    C7147171   7.773   5.454   6.608  0.1667  0.7674  0.3945
   51MOL    H7247172   0.704   6.626   6.606 -1.6150  1.5059  0.3217
   51MOL    H7347173   0.747   6.502   6.713  1.6175  0.6871 -0.0349
   51MOL    H7447174   0.452   6.610   6.681  0.4622 -0.4718  0.1276
   51MOL    H7547175   0.483   6.497   6.784 -1.3496 -2.4158 -1.2164
   51MOL    H7647176   0.548   6.443   6.491  1.7044  0.5571 -0.1077
   51MOL    H7747177   0.594   6.348   6.630  0.6381  1.3456 -0.2446
   51MOL    H7847178   0.302   6.409   6.582  1.4499  1.7636 -0.7509
   51MOL    H7947179   0.374   6.296   6.700  2.8332 -1.9739 -0.9879
   51MOL    H8047180   0.409   6.247   6.405 -1.5271 -1.3942 -0.9215
   51MOL    H8147181   0.476   6.158   6.534  1.0025  0.9140 -2.7382
   51MOL    H8247182   0.229   6.103   6.610 -0.2696  1.1960 -0.0721
   51MOL    H8347183   0.170   6.204   6.498 -0.6021  0.9476  2.3287
   51MOL    H8447184   0.252   6.070   6.303  2.6306 -1.6326 -0.4516
   51MOL    H8547185   0.327   5.964   6.416 -0.1262 -0.1072 -0.2499
   51MOL    H8647186   0.118   5.894   6.516 -0.7471  0.6492  0.7264
   51MOL    H8747187   0.031   6.017   6.425 -0.2368 -0.7378 -0.3816
   51MOL    H8847188   0.181   5.791   6.294 -1.1425 -1.6395  1.0897
   51MOL    H8947189   0.083   5.921   6.209  2.1165  1.3752  0.5566
   51MOL    H9047190   7.931   5.716   6.215  0.1987 -0.5919  0.8759
   51MOL    H9147191   7.863   5.843   6.326 -0.8229 -0.3126  1.1781
   51MOL    H9247192   0.086   5.600   6.585 -0.5604  0.6365  0.2876
   51MOL    H9347193   0.139   5.440   6.778  0.4471 -3.7612 -0.0366
   51MOL    H9447194   7.722   5.277   6.725  0.1393 -0.3187  0.6579
   51MOL    H9547195   7.674   5.458   6.564  1.4232 -0.0929 -2.6365
   51MOL    O9647196   7.910   5.039   6.990  0.2430 -0.6604 -0.1329
   51MOL    C9747197   0.036   4.955   6.950  0.4474 -0.3520 -0.0005
   51MOL    C9847198   7.953   4.854   6.852 -0.4499 -0.0738  0.1609
   51MOL    C9947199   7.804   4.813   6.884 -0.5210  0.3740  0.3396
   51MOL   C10047200   7.781   4.773   7.034  0.2151  0.6265 -0.1885
   51MOL   C10147201   7.880   4.665   7.092 -0.2571 -0.2288  0.5340
   51MOL   C10247202   7.870   4.639   7.242 -0.1855  0.6454  0.4010
   51MOL   C10347203   7.949   4.733   7.332 -0.0944 -0.0684 -0.4415
   51MOL   C10447204   0.122   4.701   7.336  0.0795 -0.1463  0.3007
   51MOL   C10547205   0.175   4.761   7.456 -0.0305  0.8398 -0.2900
   51MOL   C10647206   0.327   4.780   7.459 -0.2198 -0.0553 -0.3319
   51MOL   O10747207   0.383   4.847   7.354 -0.2156 -0.2160  0.4076
   51MOL   C10847208   0.437   4.968   7.378  0.2758 -0.0852  0.5533
   51MOL   O10947209   0.480   5.011   7.485  0.4665 -0.5394  0.2265
   51MOL   C11047210   0.448   5.045   7.245 -0.6242  0.5609 -0.1140
   51MOL   C11147211   0.387   5.000   7.129 -0.0137  0.4955  0.1241
   51MOL   C11247212   0.392   5.074   7.008 -0.1470 -0.1127 -0.4068
   51MOL   C11347213   0.445   5.206   7.014  0.4360 -0.0389  0.5325
   51MOL   C11447214   0.444   5.293   6.900 -0.1965 -0.3671 -0.2804
   51MOL   O11547215   0.514   5.392   6.897  0.0277  0.3250 -0.4254
   51MOL   O11647216   0.359   5.270   6.798 -0.7408  0.2858 -0.4818
   51MOL   C11747217   0.501   5.258   7.128 -0.4289 -0.1141  0.8712
   51MOL   C11847218   0.510   5.174   7.243  0.4450 -0.2655  0.3916
   51MOL   H11947219   0.121   5.012   6.911  0.8099  0.5376  2.0001
   51MOL   H12047220   0.081   4.909   7.038  1.0665 -0.5608 -0.4199
   51MOL   H12147221   0.023   4.756   6.852 -1.4077 -0.5642  2.2844
   51MOL   H12247222   7.962   4.890   6.749 -0.2710 -1.4899 -0.3393
   51MOL   H12347223   7.738   4.895   6.855  0.4067  1.3178  0.8867
   51MOL   H12447224   7.776   4.724   6.827 -1.4540  0.2118  1.0436
   51MOL   H12547225   7.676   4.750   7.051  0.4041 -0.1451 -0.0603
   51MOL   H12647226   7.797   4.860   7.098  0.7212 -0.0781  0.6534
   51MOL   H12747227   7.864   4.572   7.037  0.9370  0.1854 -0.5164
   51MOL   H12847228   7.974   4.713   7.068 -0.7219  1.3809  1.8129
   51MOL   H12947229   7.764   4.633   7.268 -0.4312 -0.8131 -0.8465
   51MOL   H13047230   7.910   4.541   7.268  1.0908  1.1685  0.4394
   51MOL   H13147231   7.930   4.835   7.299  1.7561 -0.6861 -3.5972
   51MOL   H13247232   7.914   4.709   7.433  2.1099  1.7865  0.8215
   51MOL   H13347233   0.136   4.593   7.340  0.1083 -0.3007 -2.8539
   51MOL   H13447234   0.174   4.722   7.243 -1.3494  2.1144 -0.0293
   51MOL   H13547235   0.140   4.692   7.532 -0.6507 -1.8228 -2.8891
   51MOL   H13647236   0.122   4.855   7.469  0.5880  0.8999  1.9017
   51MOL   H13747237   0.365   4.678   7.466 -1.1716 -0.4272 -0.5256
   51MOL   H13847238   0.357   4.815   7.558 -1.0245  1.1567 -0.5104
   51MOL   H13947239   0.326   4.911   7.122 -3.0121  2.4587  0.7890
   51MOL   H14047240   0.349   5.028   6.921  1.6133  0.1312 -1.4255
   51MOL   H14147241   0.541   5.358   7.135  1.4737 -0.6746 -1.2370
   51MOL   H14247242   0.553   5.213   7.335 -0.7938  1.6652  0.1706
   51MOL   O14347243   0.371   5.360   6.677 -0.2533  0.1118  0.3557
   51MOL   C14447244   0.451   5.290   6.583  0.1889  0.6895 -0.5911
   51MOL   C14547245   0.368   5.184   6.502 -0.4429 -0.9462 -0.1343
   51MOL   C14647246   0.307   5.249   6.376 -0.1107 -0.2602 -0.3799
   51MOL   C14747247   0.193   5.350   6.395 -0.1474  0.2069  0.1739
   51MOL   C14847248   0.107   5.376   6.270 -0.6413 -1.2859 -0.0963
   51MOL   C14947249   0.013   5.265   6.242  0.0244  0.1939  0.6691
   51MOL   C15047250   7.870   5.258   6.341  0.1872 -0.6720 -0.6765
   51MOL   C15147251   7.768   5.150   6.328 -0.0051 -0.6788  0.2718
   51MOL   C15247252   7.671   5.158   6.442 -0.3130 -0.2584  0.4016
   51MOL   C15347253   7.556   5.066   6.426  0.3465  0.1533  0.5667
   51MOL   O15447254   7.585   4.924   6.436  0.2414 -0.1656  0.1825
   51MOL   C15547255   7.591   4.847   6.319 -0.0688 -0.0549  0.5411
   51MOL   O15647256   7.575   4.896   6.206 -0.0392 -0.6761 -0.2798
   51MOL   C15747257   7.618   4.705   6.344  0.1317 -0.5772  0.8710
   51MOL   C15847258   7.604   4.656   6.476  0.1140  0.0577  0.2986
   51MOL   C15947259   7.621   4.515   6.501 -0.7109  0.0057  0.5014
   51MOL   C16047260   7.659   4.425   6.394 -0.1160  0.7331 -0.9689
   51MOL   C16147261   7.689   4.282   6.434  0.3707 -0.1472  0.3921
   51MOL   O16247262   7.701   4.238   6.547 -0.0306 -0.1730  1.3558
   51MOL   O16347263   7.685   4.197   6.322  0.3020  0.6174 -0.2764
   51MOL   C16447264   7.671   4.476   6.266  0.0829  0.3709  0.3577
   51MOL   C16547265   7.647   4.615   6.244  0.2253 -0.4381  0.0038
   51MOL   H16647266   0.499   5.357   6.511 -0.3582 -1.5860 -3.1712
   51MOL   H16747267   0.532   5.242   6.637  0.1466 -0.6922 -1.7201
   51MOL   H16847268   0.292   5.139   6.566 -1.0158  0.9841  0.5677
   51MOL   H16947269   0.436   5.104   6.472 -1.8810 -1.7511 -1.3225
   51MOL   H17047270   0.388   5.303   6.327  0.4267 -4.2162 -4.1111
   51MOL   H17147271   0.271   5.173   6.306  3.0408 -1.3042 -0.9661
   51MOL   H17247272   0.232   5.449   6.421  2.9864 -0.6658 -1.0017
   51MOL   H17347273   0.131   5.325   6.480  0.9373 -2.5974  0.1841
   51MOL   H17447274   0.053   5.470   6.280  1.1544 -0.2644  0.1934
   51MOL   H17547275   0.174   5.391   6.186  0.1642  0.5176  0.8545
   51MOL   H17647276   7.947   5.276   6.143 -1.1595 -0.9142  1.0631
   51MOL   H17747277   0.067   5.172   6.256  0.2281  0.1559 -0.3140
   51MOL   H17847278   7.905   5.237   6.443  2.6974 -2.4465 -1.8428
   51MOL   H17947279   7.824   5.356   6.346  0.4579 -0.6219  1.4919
   51MOL   H18047280   7.727   5.173   6.229  5.0614 -1.0231 -2.0503
   51MOL   H18147281   7.811   5.051   6.316  0.8045 -0.0368 -2.6223
   51MOL   H18247282   7.619   5.251   6.462 -0.2726  0.1518 -1.2757
   51MOL   H18347283   7.726   5.127   6.530  1.3966  0.1247 -0.5040
   51MOL   H18447284   7.493   5.079   6.337  0.4925 -0.6043  0.3460
   51MOL   H18547285   7.488   5.063   6.511  1.1601 -0.7732  1.1960
   51MOL   H18647286   7.572   4.720   6.558  1.2415 -0.1769  0.9258
   51MOL   H18747287   7.593   4.488   6.602  1.5035 -0.5943  0.9945
   51MOL   H18847288   7.698   4.414   6.182  0.5706  0.4719  0.4383
   51MOL   H18947289   7.657   4.662   6.147  1.3998  0.3247  0.4824
   51MOL   O19047290   7.697   4.051   6.358 -0.1815  0.1571 -0.3968
   51MOL   C19147291   7.580   3.990   6.309  0.1528 -0.1799 -0.6916
   51MOL   C19247292   7.572   3.835   6.335 -0.5613  0.0639 -0.4281
   51MOL   C19347293   7.443   3.763   6.310  0.2862 -0.2505  0.3547
   51MOL   C19447294   7.444   3.613   6.351 -0.0880  0.1830  0.0043
   51MOL   C19547295   7.305   3.555   6.326 -0.0268 -0.2422  0.2706
   51MOL   C19647296   7.295   3.401   6.334 -0.2448 -0.8254 -0.9217
   51MOL   C19747297   7.301   3.354   6.482 -0.2878  0.1822  0.2668
   51MOL   C19847298   7.307   3.199   6.503  0.2252 -0.0204 -0.0059
   51MOL   C19947299   7.193   3.112   6.458 -0.3744  0.3987  0.5437
   51MOL   C20047300   7.229   2.964   6.447  0.4090  0.1143  0.2569
   51MOL   O20147301   7.119   2.895   6.375  0.3368  0.2196 -0.1878
   51MOL   C20247302   7.010   2.830   6.433  0.1718  0.2895  0.5559
   51MOL   O20347303   6.985   2.840   6.550 -0.2689 -0.1347  0.4593
   51MOL   C20447304   6.925   2.756   6.331 -0.0546 -0.1086 -0.0609
   51MOL   C20547305   6.821   2.674   6.378 -1.0305 -0.6366 -0.0503
   51MOL   C20647306   6.746   2.596   6.294  0.5013  0.1628 -0.0116
   51MOL   C20747307   6.765   2.608   6.155 -0.6672 -0.6177  0.6469
   51MOL   C20847308   6.689   2.530   6.054  0.2373  0.2113 -0.3573
   51MOL   O20947309   6.722   2.533   5.935 -0.3670  0.7301  0.1916
   51MOL   O21047310   6.595   2.448   6.107  0.3857  0.0448 -0.3364
   51MOL   C21147311   6.857   2.702   6.106 -0.4888 -0.1040  0.0058
   51MOL   C21247312   6.937   2.787   6.193 -0.4213  0.6896  0.4226
   51MOL   H21347313   7.496   4.025   6.369  1.2373  2.6768 -0.7599
   51MOL   H21447314   7.577   4.006   6.202  0.8527 -1.2127 -0.8747
   51MOL   H21547315   7.597   3.829   6.441 -1.6317 -1.1135 -0.2274
   51MOL   H21647316   7.650   3.781   6.281  1.1692  0.3132  1.7283
   51MOL   H21747317   7.373   3.829   6.362  0.6907 -0.0652  0.6632
   51MOL   H21847318   7.421   3.770   6.203  4.0715  0.3450 -0.4285
   51MOL   H21947319   7.466   3.606   6.458 -0.5335 -0.9022  0.0366
   51MOL   H22047320   7.518   3.554   6.298  0.3535  0.7712 -0.0351
   51MOL   H22147321   7.235   3.603   6.395 -0.0002 -0.2571  0.3079
   51MOL   H22247322   7.262   3.583   6.230 -0.7648 -3.3039 -0.3605
   51MOL   H22347323   7.198   3.392   6.286  0.0478 -1.3701 -1.4127
   51MOL   H22447324   7.375   3.358   6.274 -0.7782 -0.4005 -1.9444
   51MOL   H22547325   7.386   3.403   6.528  0.1531 -1.1666  0.8990
   51MOL   H22647326   7.211   3.374   6.541 -1.2880 -2.0390 -0.4222
   51MOL   H22747327   7.400   3.159   6.463 -0.7174 -1.4881 -0.7648
   51MOL   H22847328   7.321   3.195   6.612  1.2861 -1.2062 -0.1695
   51MOL   H22947329   7.146   3.152   6.369 -1.3995 -0.5300  0.6533
   51MOL   H23047330   7.107   3.128   6.524 -0.3531 -1.1250  0.9536
   51MOL   H23147331   7.224   2.920   6.546 -1.7211  1.4299  0.7675
   51MOL   H23247332   7.321   2.943   6.392  0.8949  1.7586  0.4220
   51MOL   H23347333   6.796   2.662   6.483  0.7130  3.1294  0.9039
   51MOL   H23447334   6.669   2.531   6.334  1.3407 -1.6972 -1.3331
   51MOL   H23547335   6.872   2.709   5.999 -0.4556 -0.7067 -0.0272
   51MOL   H23647336   7.011   2.854   6.151  2.7500 -2.7029  0.3630
   51MOL   O23747337   6.540   2.353   6.003  0.8140  0.0269 -0.1573
   51MOL   C23847338   6.605   2.228   6.036  0.6617  0.6701  0.2650
   51MOL   C23947339   6.546   2.129   5.941  0.5012  0.0769  0.6408
   51MOL   C24047340   6.398   2.104   5.975 -0.2502  0.0926  0.3242
   51MOL   C24147341   6.353   1.973   5.924  0.0216  0.3287  0.0813
   51MOL   C24247342   6.391   1.844   5.999 -0.0633 -0.4962 -0.1604
   51MOL   C24347343   6.299   1.725   5.948  0.1722 -0.5080  0.0497
   51MOL   C24447344   6.336   1.687   5.806 -0.2187 -0.0739  0.3194
   51MOL   C24547345   6.253   1.565   5.767 -0.2906 -0.1520  0.0367
   51MOL   C24647346   6.241   1.526   5.617 -0.1612  0.0061 -0.6475
   51MOL   C24747347   6.379   1.470   5.576  0.8344 -0.1816 -0.4315
   51MOL   O24847348   6.370   1.428   5.443 -0.5260 -0.5130  0.1783
   51MOL   C24947349   6.345   1.295   5.420 -0.6724  0.6322 -0.3740
   51MOL   O25047350   6.331   1.215   5.509 -0.7537  0.0375 -1.1573
   51MOL   C25147351   6.342   1.258   5.281 -0.8818 -0.0501  0.4274
   51MOL   C25247352   6.329   1.120   5.258 -0.5258  0.3592  0.4567
   51MOL   C25347353   6.310   1.076   5.127 -0.0359  0.3977 -0.9284
   51MOL   C25447354   6.295   1.161   5.022  0.4534  0.1873  0.7694
   51MOL   C25547355   6.275   1.113   4.880  0.2400 -0.2657 -1.2504
   51MOL   O25647356   6.281   1.188   4.782  0.6825 -0.1029 -0.3836
   51MOL   O25747357   6.239   0.983   4.871 -0.2082  0.1788  0.7929
   51MOL   C25847358   6.315   1.302   5.046  0.9566 -0.0820 -0.3484
   51MOL   C25947359   6.339   1.348   5.176  0.4693 -0.1692 -0.1653
   51MOL   H26047360   6.712   2.237   6.023  1.0106  0.5000  2.8210
   51MOL   H26147361   6.579   2.208   6.140 -0.7370  2.1825  0.2249
   51MOL   H26247362   6.607   2.039   5.955  1.4774  0.4910 -0.8042
   51MOL   H26347363   6.573   2.142   5.836  1.5655 -2.1075  0.6109
   51MOL   H26447364   6.396   2.103   6.084  0.6540  0.1539  0.3520
   51MOL   H26547365   6.356   2.195   5.935 -1.2580  0.9018  3.1269
   51MOL   H26647366   6.374   1.982   5.817 -0.5215  1.4576  0.0641
   51MOL   H26747367   6.245   1.984   5.931  0.1469  1.3988  0.5347
   51MOL   H26847368   6.498   1.828   5.987  0.7248  2.1086  2.6775
   51MOL   H26947369   6.379   1.847   6.107  0.3468 -1.0379 -0.0998
   51MOL   H27047370   6.307   1.634   6.007 -0.3882 -1.3456 -1.1545
   51MOL   H27147371   6.195   1.753   5.932  0.1572 -0.4375  0.2652
   51MOL   H27247372   6.321   1.765   5.732  1.8980 -0.1630 -0.2233
   51MOL   H27347373   6.436   1.650   5.785 -0.4485 -0.0515 -0.8292
   51MOL   H27447374   6.290   1.479   5.824  0.4028 -1.0983 -1.7988
   51MOL   H27547375   6.147   1.578   5.789 -0.5539  0.3310 -1.4811
   51MOL   H27647376   6.213   1.620   5.570  1.0178 -0.2781 -1.9634
   51MOL   H27747377   6.158   1.460   5.593  0.2341 -0.5807 -0.4001
   51MOL   H27847378   6.421   1.391   5.638 -0.4474 -2.0441 -1.9016
   51MOL   H27947379   6.456   1.547   5.586  1.8473 -1.2916  0.4351
   51MOL   H28047380   6.331   1.047   5.337 -0.5054 -2.2585 -1.8819
   51MOL   H28147381   6.291   0.970   5.119  2.9125 -0.3427  1.0019
   51MOL   H28247382   6.298   1.373   4.966  0.1071 -0.9795 -0.9948
   51MOL   H28347383   6.347   1.453   5.198 -1.2902 -0.1340  0.3663
   51MOL   O28447384   6.210   0.943   4.730  0.4457 -0.2622  0.0783
   51MOL   C28547385   6.313   0.859   4.684 -0.1618  0.8731 -0.0997
   51MOL   C28647386   6.321   0.720   4.747 -0.4514 -0.0005  0.2520
   51MOL   C28747387   6.202   0.626   4.711 -0.7762 -1.0051  0.3658
   51MOL   C28847388   6.235   0.488   4.770  0.3639  0.2999  0.0183
   51MOL   C28947389   6.120   0.384   4.739 -0.1968 -0.3094  0.5532
   51MOL   C29047390   6.147   0.242   4.798 -0.1861 -0.5255  0.6487
   51MOL   C29147391   6.041   0.137   4.759  0.1220 -0.0331 -0.3389
   51MOL   C29247392   5.906   0.168   4.823  0.0845  0.5993 -0.0604
   51MOL   C29347393   5.795   0.073   4.766  0.3592  0.4631  0.0467
   51MOL   C29447394   5.654   0.121   4.798  0.6469 -0.2492  0.0987
   51MOL   O29547395   5.629   0.109   4.941  0.3611 -0.3592  0.1550
   51MOL   C29647396   5.556   0.194   5.005 -0.1269 -0.1418 -0.4864
   51MOL   O29747397   5.490   0.280   4.948 -0.4469  0.2850  0.3864
   51MOL   C29847398   5.565   0.177   5.155 -0.4182  0.3016  0.3527
   51MOL   C29947399   5.656   0.095   5.218  0.7277  0.3950 -0.4005
   51MOL   C30047400   5.680   0.114   5.355 -0.4801  0.6544  0.3061
   51MOL   C30147401   5.615   0.219   5.425  0.0375  0.2970 -0.4803
   51MOL   C30247402   5.626   0.235   5.580 -0.5290  0.2900  0.7748
   51MOL   O30347403   5.569   0.321   5.646 -0.3988 -0.2267 -0.1356
   51MOL   O30447404   5.712   0.141   5.633 -0.2752 -0.7731  0.1739
   51MOL   C30547405   5.520   0.300   5.364 -0.5944 -0.1831 -0.3300
   51MOL   C30647406   5.493   0.272   5.231 -0.1597  0.6852 -0.0350
   51MOL   H30747407   6.291   0.840   4.579  0.7889 -0.1528 -0.1223
   51MOL   H30847408   6.409   0.910   4.683 -0.1339  0.8498  1.1212
   51MOL   H30947409   6.323   0.727   4.856 -0.9496 -1.7128  0.3792
   51MOL   H31047410   6.417   0.682   4.711 -0.2836 -1.2449  1.9679
   51MOL   H31147411   6.115   0.648   4.773 -0.4899  0.4294  0.2901
   51MOL   H31247412   6.178   0.627   4.605 -1.0356  1.5742  0.4024
   51MOL   H31347413   6.247   0.500   4.878 -1.4727 -3.3284  0.6883
   51MOL   H31447414   6.331   0.451   4.734  0.5377 -1.2339  1.9411
   51MOL   H31547415   6.028   0.426   4.779 -0.6977  1.7164 -2.6258
   51MOL   H31647416   6.114   0.384   4.630  1.2023  1.2731  0.4486
   51MOL   H31747417   6.246   0.207   4.767  0.4683  0.8078  1.1798
   51MOL   H31847418   6.142   0.258   4.906  0.6074  0.9638  0.4872
   51MOL   H31947419   6.033   0.140   4.650 -0.5253  0.3574 -0.2867
   51MOL   H32047420   6.079   0.040   4.790 -0.4444 -0.4312 -0.8915
   51MOL   H32147421   5.904   0.165   4.932  0.0766  0.1336 -0.0726
   51MOL   H32247422   5.880   0.270   4.795 -0.5612 -0.0717 -2.0481
   51MOL   H32347423   5.805   7.950   4.806  2.9662  0.0104 -1.6412
   51MOL   H32447424   5.806   0.068   4.657  1.9300 -2.7090  0.2867
   51MOL   H32547425   5.589   0.050   4.747  0.1204  2.3570 -3.0138
   51MOL   H32647426   5.632   0.215   4.748  0.1373  1.2915  3.1159
   51MOL   H32747427   5.710   0.025   5.156 -0.3130 -0.0778 -0.7708
   51MOL   H32847428   5.746   0.044   5.404 -1.7967  0.1305  1.3557
   51MOL   H32947429   5.475   0.377   5.424 -0.9326 -0.3900 -0.3130
   51MOL   H33047430   5.424   0.335   5.177  1.4213  0.7265 -2.0964
   51MOL   O33147431   5.748   0.171   5.774  0.2395  0.4846  0.5404
   51MOL   C33247432   5.653   0.125   5.865  0.4309 -0.5110  0.5855
   51MOL   C33347433   5.700   0.183   5.998  0.2925  0.1424 -0.6336
   51MOL   C33447434   5.602   0.157   6.109 -0.0512  0.5379  0.1785
   51MOL   C33547435   5.663   0.232   6.234 -0.0181  0.3569  0.1046
   51MOL   C33647436   5.592   0.192   6.366  0.2528 -0.0841  0.4085
   51MOL   C33747437   5.671   0.257   6.483 -0.4362  0.6721  0.0732
   51MOL   C33847438   5.789   0.167   6.530 -0.6711  0.3249 -0.5796
   51MOL   C33947439   5.757   0.035   6.598  0.1692  0.2118  0.1243
   51MOL   C34047440   5.881   7.918   6.619  0.2863 -0.1875  0.2335
   51MOL   C34147441   5.847   7.796   6.709  0.0425 -0.0847  0.4835
   51MOL   O34247442   5.780   7.697   6.630 -0.4622  0.5320 -0.2054
   51MOL   C34347443   5.644   7.679   6.636 -0.4670 -0.0648  0.6626
   51MOL   O34447444   5.565   7.755   6.692  0.1003 -0.1065 -0.3309
   51MOL   C34547445   5.611   7.554   6.565  0.4330  0.1196  0.0875
   51MOL   C34647446   5.472   7.521   6.551  0.3725 -1.0078 -0.8265
   51MOL   C34747447   5.432   7.402   6.493  0.0157  0.0558  0.6347
   51MOL   C34847448   5.527   7.321   6.429  0.5345  0.7189 -0.8158
   51MOL   C34947449   5.482   7.194   6.364  0.5058  0.4143 -0.2340
   51MOL   O35047450   5.554   7.106   6.321 -0.2037 -0.7974 -0.1137
   51MOL   O35147451   5.343   7.175   6.376 -0.3551  0.2607 -0.1796
   51MOL   C35247452   5.661   7.359   6.433 -0.7938  0.0079 -0.2926
   51MOL   C35347453   5.705   7.470   6.498 -0.1850  0.1174 -0.2396
   51MOL   H35447454   5.558   0.176   5.847  1.1085  0.8868  0.8849
   51MOL   H35547455   5.650   0.016   5.862  0.8737 -0.5297  0.7101
   51MOL   H35647456   5.703   0.291   5.981 -0.6230  0.1625 -0.6731
   51MOL   H35747457   5.805   0.159   6.013  0.5530 -0.0967 -2.5959
   51MOL   H35847458   5.506   0.192   6.071  0.3890  1.7841  0.1960
   51MOL   H35947459   5.583   0.051   6.125  1.3556  0.2631  0.0457
   51MOL   H36047460   5.650   0.339   6.216  2.2374  0.4098 -1.3056
   51MOL   H36147461   5.768   0.204   6.236 -0.3556 -0.9353  0.0075
   51MOL   H36247462   5.489   0.226   6.366  0.0795 -0.5968  1.2117
   51MOL   H36347463   5.600   0.083   6.366 -1.7434 -0.2416 -0.1127
   51MOL   H36447464   5.699   0.359   6.456 -0.1811  0.7117  0.4794
   51MOL   H36547465   5.606   0.264   6.570 -0.2037  0.1807  0.2948
   51MOL   H36647466   5.844   0.143   6.439  0.9114  1.2605  0.1047
   51MOL   H36747467   5.858   0.222   6.594  0.4149 -0.8200 -0.7308
   51MOL   H36847468   5.717   0.060   6.696  0.2833  0.6582  0.0552
   51MOL   H36947469   5.685   7.960   6.535  0.4043 -0.3589  0.3348
   51MOL   H37047470   5.955   0.003   6.669  1.3196 -1.7642  0.7274
   51MOL   H37147471   5.917   7.891   6.520  2.2700 -2.3639  1.4957
   51MOL   H37247472   5.785   7.822   6.795 -0.1133  0.7727  0.1231
   51MOL   H37347473   5.938   7.760   6.757  0.9670 -0.0567 -1.2356
   51MOL   H37447474   5.395   7.583   6.595  1.1867 -1.9383  2.0125
   51MOL   H37547475   5.328   7.374   6.497  0.4053 -1.2587  2.0421
   51MOL   H37647476   5.736   7.296   6.388  1.0446  1.3709  0.7510
   51MOL   H37747477   5.810   7.495   6.504 -0.9417  3.1687  1.4449
   51MOL   O37847478   5.292   7.050   6.314 -0.1791 -0.5016 -0.6655
   51MOL   C37947479   5.259   7.072   6.181 -0.1310  0.1048 -0.4055
   51MOL   C38047480   5.163   6.962   6.138 -0.9713 -0.4304  0.5836
   51MOL   C38147481   5.009   6.990   6.145  0.6515 -0.1986  0.5536
   51MOL   C38247482   4.963   7.011   6.283 -0.1829  0.0978 -0.1940
   51MOL   C38347483   4.809   7.006   6.302  0.1109 -0.6896 -0.0503
   51MOL   C38447484   4.739   7.137   6.261 -0.5327 -0.2632 -0.0546
   51MOL   C38547485   4.796   7.264   6.316  0.3405  0.3425  0.1402
   51MOL   C38647486   4.785   7.267   6.467  0.8382 -0.8485  0.0491
   51MOL   C38747487   4.826   7.414   6.505 -0.6347 -0.2156  0.0022
   51MOL   C38847488   4.717   7.516   6.485 -0.2599 -0.2509 -0.6133
   51MOL   O38947489   4.754   7.637   6.549 -0.2908 -0.0164  0.2227
   51MOL   C39047490   4.652   7.733   6.561 -0.0875  0.1103 -0.3172
   51MOL   O39147491   4.541   7.717   6.510 -0.5550  0.4739 -0.1576
   51MOL   C39247492   4.701   7.847   6.643 -0.3847  0.0867 -0.4497
   51MOL   C39347493   4.788   7.836   6.747 -0.2133 -0.0201 -0.3362
   51MOL   C39447494   4.826   7.951   6.818  0.2996 -0.2551 -0.4624
   51MOL   C39547495   4.762   0.094   6.799  0.0929  0.6881 -0.1681
   51MOL   C39647496   4.822   0.210   6.874  0.2356  0.4168 -0.5202
   51MOL   O39747497   4.934   0.204   6.930  0.6056 -0.0490  0.2082
   51MOL   O39847498   4.737   0.312   6.879 -0.1472 -0.0457 -0.2697
   51MOL   C39947499   4.670   0.107   6.695  0.7448  0.4647 -0.2372
   51MOL   C40047500   4.640   7.974   6.615  0.2555  0.0803  0.1760
   51MOL   H40147501   5.211   7.170   6.170 -0.8991 -0.1478  0.6460
   51MOL   H40247502   5.348   7.064   6.117  1.2464 -0.2677  1.5169
   51MOL   H40347503   5.177   6.866   6.187  2.6254  0.3361  1.1549
   51MOL   H40447504   5.181   6.940   6.033 -0.7270  2.7015 -0.0897
   51MOL   H40547505   4.991   7.075   6.080  2.6329 -0.6072 -0.5710
   51MOL   H40647506   4.952   6.914   6.091 -1.5745  0.4479  1.9076
   51MOL   H40747507   5.010   7.102   6.321  0.0034  0.0466 -0.3038
   51MOL   H40847508   5.011   6.938   6.347  0.5554  2.1686  1.6917
   51MOL   H40947509   4.758   6.924   6.251 -1.3085  0.2517 -0.1789
   51MOL   H41047510   4.787   7.005   6.408 -0.5995  1.1903 -0.1702
   51MOL   H41147511   4.745   7.144   6.152  0.1117  0.8486  0.0497
   51MOL   H41247512   4.634   7.130   6.290 -0.4800 -0.6916  0.0390
   51MOL   H41347513   4.901   7.277   6.287  0.2820  1.1088  0.2701
   51MOL   H41447514   4.735   7.338   6.265 -0.0973 -0.3493 -0.3640
   51MOL   H41547515   4.689   7.239   6.511  0.1657 -1.3262 -1.7130
   51MOL   H41647516   4.866   7.211   6.514  1.9120  1.5018  1.0921
   51MOL   H41747517   4.916   7.448   6.453  1.1084 -2.4589  1.4486
   51MOL   H41847518   4.856   7.420   6.610  1.1777  0.1263 -0.5240
   51MOL   H41947519   4.628   7.465   6.523 -1.0709  0.0784 -2.0359
   51MOL   H42047520   4.700   7.544   6.381 -1.9178 -2.3072 -0.9352
   51MOL   H42147521   4.832   7.740   6.771 -0.9112  0.0442  1.2218
   51MOL   H42247522   4.905   7.948   6.892  1.6646  0.6956 -1.8476
   51MOL   H42347523   4.618   0.200   6.676 -1.2304 -0.5983 -0.1725
   51MOL   H42447524   4.567   0.018   6.539  0.5409  2.4928  0.5565
   51MOL   O42547525   4.792   0.434   6.954  0.0422  0.1422  0.5361
   51MOL   C42647526   4.720   0.444   7.078  1.2280  0.1732 -0.5005
   51MOL   C42747527   4.767   0.578   7.137  0.1122 -0.2916 -0.1797
   51MOL   C42847528   4.718   0.705   7.067  0.4166 -0.6525  0.3738
   51MOL   C42947529   4.713   0.833   7.156 -0.0651  0.2514  0.3541
   51MOL   C43047530   4.838   0.910   7.149 -0.5702  1.1471 -1.2328
   51MOL   C43147531   4.846   1.026   7.249  0.0551 -0.4805  0.3687
   51MOL   C43247532   4.883   0.994   7.397 -0.3695  0.7374 -0.3652
   51MOL   C43347533   4.872   1.112   7.494 -0.0929  0.4590  0.5713
   51MOL   C43447534   4.957   1.101   7.621 -0.5850  0.1257 -0.2686
   51MOL   C43547535   4.966   1.232   7.712  0.5684 -0.3515  0.1747
   51MOL   O43647536   5.040   1.198   7.827  0.2600  0.4536  0.5552
   51MOL   C43747537   5.041   1.278   7.932  0.1841 -0.6300 -0.3039
   51MOL   O43847538   4.974   1.376   7.942 -0.2325 -0.0444  0.2039
   51MOL   C43947539   5.138   1.240   0.067  0.0655 -0.7993 -0.0802
   51MOL   C44047540   5.179   1.330   0.167  0.2142 -0.1906 -0.0738
   51MOL   C44147541   5.268   1.287   0.262  0.2275  0.0845 -0.7265
   51MOL   C44247542   5.308   1.154   0.269 -0.1526 -0.1586 -0.4764
   51MOL   C44347543   5.393   1.104   0.379 -0.1861 -0.0686 -0.6479
   51MOL   O44447544   5.408   1.166   0.484 -0.8000  0.0312 -0.4666
   51MOL   O44547545   5.444   0.979   0.354 -0.0058  0.0778 -0.1633
   51MOL   C44647546   5.263   1.066   0.172  0.0714 -0.7894  0.3853
   51MOL   C44747547   5.183   1.109   0.073 -0.1318  0.0341 -0.6248
   51MOL   H44847548   4.611   0.438   7.069  1.3690 -1.8465 -1.0785
   51MOL   H44947549   4.746   0.363   7.146  0.3103 -0.6948 -1.1759
   51MOL   H45047550   4.875   0.578   7.143  0.0953  0.1840  0.0865
   51MOL   H45147551   4.720   0.581   7.236 -0.5167 -2.7650 -0.3713
   51MOL   H45247552   4.766   0.726   6.972 -2.6654  1.6653 -0.7538
   51MOL   H45347553   4.616   0.682   7.037  0.1230  1.3256 -0.2314
   51MOL   H45447554   4.693   0.808   7.260  0.4548 -0.1992  0.3481
   51MOL   H45547555   4.628   0.892   7.120 -1.9159 -2.6597 -0.2424
   51MOL   H45647556   4.927   0.848   7.157 -1.1571  0.5818  1.2208
   51MOL   H45747557   4.848   0.957   7.051  0.4128  1.0272 -1.1864
   51MOL   H45847558   4.928   1.088   7.213  0.0109 -0.2698  0.6271
   51MOL   H45947559   4.758   1.091   7.246  0.0081 -0.5130  0.9338
   51MOL   H46047560   4.836   0.908   7.443  0.6683 -0.4896 -1.5451
   51MOL   H46147561   4.991   0.980   7.393 -0.5162 -0.3750 -0.6507
   51MOL   H46247562   4.896   1.202   7.437  0.5308 -0.4306 -0.5649
   51MOL   H46347563   4.767   1.119   7.525 -0.2861 -0.4381  0.1219
   51MOL   H46447564   5.060   1.071   7.602 -0.9809 -0.4183 -1.5652
   51MOL   H46547565   4.927   1.019   7.686  1.2709 -0.2109  0.2152
   51MOL   H46647566   4.872   1.283   7.733  0.1937 -0.1104 -1.9785
   51MOL   H46747567   5.038   1.285   7.649 -0.6227  2.1539  0.8592
   51MOL   H46847568   5.133   1.428   0.167  0.6035  0.0104 -2.2404
   51MOL   H46947569   5.297   1.354   0.342  2.7999  0.1529 -1.6907
   51MOL   H47047570   5.276   0.959   0.179 -0.4782 -0.8268  0.8631
   51MOL   H47147571   5.149   1.048   7.968  0.3513  0.2314 -0.9680
   51MOL   O47247572   5.534   0.928   0.467  0.0675 -0.3081 -0.0047
   51MOL   C47347573   5.464   0.850   0.555  0.1216  0.0811 -0.9383
   51MOL   C47447574   5.556   0.834   0.673 -0.3388  0.2750 -1.0828
   51MOL   C47547575   5.506   0.758   0.796 -0.3431 -0.0822  0.0032
   51MOL   C47647576   5.595   0.743   0.910 -0.8608  0.1168 -0.3660
   51MOL   C47747577   5.730   0.682   0.891 -0.0188  0.1350 -0.6158
   51MOL   C47847578   5.792   0.626   1.021  0.4539  0.3381 -0.2421
   51MOL   C47947579   5.909   0.521   1.009 -0.0099  0.1150 -0.5529
   51MOL   C48047580   6.015   0.530   1.117 -0.3090 -0.3300 -0.3879
   51MOL   C48147581   6.103   0.400   1.135  0.4606  0.0973 -0.3148
   51MOL   C48247582   6.196   0.421   1.260 -0.6977 -0.4425  0.3892
   51MOL   O48347583   6.260   0.300   1.296 -0.4019  0.0676 -0.6141
   51MOL   C48447584   6.396   0.304   1.314 -0.1038 -0.1078  0.0588
   51MOL   O48547585   6.463   0.409   1.301 -0.4097  0.1579  0.0632
   51MOL   C48647586   6.454   0.173   1.346  0.6243  0.4587 -0.0389
   51MOL   C48747587   6.572   0.126   1.286  0.8945 -0.0006 -0.6726
   51MOL   C48847588   6.624   7.977   1.324 -0.5209  0.0744  0.2832
   51MOL   C48947589   6.556   7.904   1.422 -0.1644  0.1623 -0.4115
   51MOL   C49047590   6.600   7.767   1.462  0.4090 -0.0114 -0.0533
   51MOL   O49147591   6.553   7.697   1.553  0.3467 -0.1385  0.0174
   51MOL   O49247592   6.692   7.725   1.380 -0.2489  0.4468  0.1389
   51MOL   C49347593   6.435   7.948   1.482 -0.4932  0.2695 -0.1782
   51MOL   C49447594   6.387   0.097   1.442  0.2616  0.4445  0.1159
   51MOL   H49547595   5.371   0.900   0.581  0.6751  1.0509 -0.7925
   51MOL   H49647596   5.429   0.756   0.512  1.1534 -1.0929  0.7495
   51MOL   H49747597   5.588   0.931   0.712  1.0635 -1.1479  1.3999
   51MOL   H49847598   5.649   0.801   0.628  1.3259 -1.0589  3.1448
   51MOL   H49947599   5.411   0.808   0.816  0.8874  1.5793  1.7825
   51MOL   H50047600   5.474   0.658   0.767  2.2414 -0.6491 -0.9716
   51MOL   H50147601   5.537   0.678   0.975 -0.3584 -1.1687 -1.1954
   51MOL   H50247602   5.608   0.842   0.956 -2.8686  1.7858 -3.2487
   51MOL   H50347603   5.714   0.596   0.827 -2.0431  0.5254 -0.6845
   51MOL   H50447604   5.798   0.755   0.848  2.9538 -0.8035  2.2789
   51MOL   H50547605   5.831   0.714   1.072 -1.5308  0.6716  0.7131
   51MOL   H50647606   5.721   0.593   1.096 -0.3182  0.6554 -0.8247
   51MOL   H50747607   5.861   0.422   1.006  1.0657 -0.4814  1.4425
   51MOL   H50847608   5.963   0.540   0.916  1.8243 -0.2190  0.4229
   51MOL   H50947609   6.064   0.626   1.109 -0.2335 -0.0775  2.5691
   51MOL   H51047610   5.958   0.544   1.208  0.4634  2.4734 -0.3181
   51MOL   H51147611   6.158   0.368   1.046  1.5509  2.5535 -0.5603
   51MOL   H51247612   6.034   0.318   1.153  1.7522 -1.3681 -1.9227
   51MOL   H51347613   6.126   0.429   1.343 -0.1773 -1.8813  0.9846
   51MOL   H51447614   6.264   0.505   1.273 -0.2787 -0.9807  1.7078
   51MOL   H51547615   6.633   0.193   1.227  1.4285  0.4139  0.3347
   51MOL   H51647616   6.720   7.946   1.286 -0.8268 -0.8601  0.2744
   51MOL   H51747617   6.390   7.878   1.550  0.9080  0.3579  0.8554
   51MOL   H51847618   6.298   0.140   1.487 -1.3502 -1.6324 -1.0054
   51MOL   O51947619   6.770   7.613   1.434 -0.0302  0.1857  0.4877
   51MOL   C52047620   6.735   7.497   1.355  0.4078 -0.7670  1.0906
   51MOL   C52147621   6.787   7.520   1.210  0.6088 -0.3413 -0.2158
   51MOL   C52247622   6.935   7.500   1.199  0.2829 -0.0378  0.5608
   51MOL   C52347623   6.978   7.490   1.050  0.2951  0.1405  0.3965
   51MOL   C52447624   7.131   7.447   1.047  0.0110  0.2387 -0.0733
   51MOL   C52547625   7.191   7.441   0.910 -0.7145  0.0402 -0.0351
   51MOL   C52647626   7.107   7.357   0.804  0.5101  0.3746  0.6570
   51MOL   C52747627   7.113   7.204   0.835 -0.1332  0.7350  0.5603
   51MOL   C52847628   7.044   7.106   0.738  0.6043  0.8556  0.2253
   51MOL   C52947629   7.059   6.965   0.785  0.2271  0.1170 -0.5605
   51MOL   O53047630   6.976   6.877   0.713 -0.5557 -0.4185 -0.2487
   51MOL   C53147631   7.017   6.790   0.617  0.1902  0.7042  0.4446
   51MOL   O53247632   7.130   6.778   0.572 -0.4616  0.4457  0.2481
   51MOL   C53347633   6.904   6.706   0.559 -0.4405  0.3134  1.0281
   51MOL   C53447634   6.767   6.721   0.594 -0.1335  0.2414  0.0998
   51MOL   C53547635   6.671   6.642   0.524 -0.0556 -0.0110 -0.1525
   51MOL   C53647636   6.705   6.550   0.422  0.0123  0.0046  1.3512
   51MOL   C53747637   6.606   6.471   0.353 -0.3155  0.2938 -0.1783
   51MOL   O53847638   6.496   6.450   0.402  0.2317  0.2545 -0.2998
   51MOL   O53947639   6.654   6.429   0.236  0.4094 -0.0347  0.6751
   51MOL   C54047640   6.841   6.530   0.391  0.0495  0.4439  0.2088
   51MOL   C54147641   6.939   6.608   0.455  0.1810 -0.4050 -0.0868
   51MOL   H54247642   6.777   7.410   1.405  0.1694 -0.7004  1.4109
   51MOL   H54347643   6.628   7.476   1.351 -0.0106  1.4281  0.1049
   51MOL   H54447644   6.743   7.609   1.166  2.0128  0.6598  0.3830
   51MOL   H54547645   6.739   7.446   1.145  0.3653 -0.2281 -0.1657
   51MOL   H54647646   7.002   7.576   1.238  1.9824 -1.9930  1.5578
   51MOL   H54747647   6.963   7.409   1.253  1.4868 -0.5758 -0.9083
   51MOL   H54847648   6.976   7.584   0.995  2.8538  0.0598  0.0748
   51MOL   H54947649   6.920   7.418   0.992  3.3813 -0.6325 -1.9175
   51MOL   H55047650   7.205   7.516   1.088 -0.3936  0.4690  0.2695
   51MOL   H55147651   7.153   7.352   1.095 -0.8756  0.1112  0.0832
   51MOL   H55247652   7.212   7.543   0.879 -0.9591 -0.0680 -0.5622
   51MOL   H55347653   7.289   7.393   0.913 -1.2365 -1.2108 -2.1016
   51MOL   H55447654   7.006   7.397   0.797  1.0124  1.7404  1.0926
   51MOL   H55547655   7.144   7.374   0.703 -1.1067  1.5527  0.2538
   51MOL   H55647656   7.216   7.171   0.843 -0.7894 -1.0070  2.3147
   51MOL   H55747657   7.064   7.186   0.931  0.1331  2.2642  0.9977
   51MOL   H55847658   7.080   7.108   0.635 -2.0599  3.1577 -0.7128
   51MOL   H55947659   6.938   7.130   0.730  0.9509  2.0533 -0.9001
   51MOL   H56047660   7.033   6.953   0.890  3.1973  2.1049  0.4519
   51MOL   H56147661   7.159   6.933   0.757  0.0678 -1.6748  0.8540
   51MOL   H56247662   6.744   6.800   0.665  0.4191 -0.2901  0.8682
   51MOL   H56347663   6.565   6.647   0.546  0.2909  0.7999  1.3486
   51MOL   H56447664   6.877   6.469   0.309 -2.7690 -1.5155  0.3881
   51MOL   H56547665   7.044   6.587   0.442  0.5025 -1.0125  3.0434
   51MOL   O56647666   6.545   6.363   0.148  0.2396 -0.1169  0.0133
   51MOL   C56747667   6.463   6.462   0.080  0.1655 -0.2773 -0.3958
   51MOL   C56847668   6.347   6.397   7.975  0.6347  0.2568  0.5393
   51MOL   C56947669   6.252   6.493   7.902  0.2505  0.7137 -0.0849
   51MOL   C57047670   6.116   6.427   7.859 -0.3667  0.4667 -0.3846
   51MOL   C57147671   6.019   6.525   7.781  0.4111  0.0567  0.1087
   51MOL   C57247672   5.899   6.449   7.723  0.2778  0.2877 -0.1196
   51MOL   C57347673   5.776   6.541   7.691  0.0998  0.3155  0.5021
   51MOL   C57447674   5.698   6.596   7.811  0.0673 -0.0456 -0.1108
   51MOL   C57547675   5.552   6.642   7.776  0.2518  0.1061 -0.5238
   51MOL   C57647676   5.481   6.688   7.906  0.4007 -0.2353 -0.5990
   51MOL   O57747677   5.490   6.827   7.914 -0.1572 -0.9724 -0.2045
   51MOL   C57847678   5.468   6.889   0.050 -0.2260  1.0175  0.1684
   51MOL   O57947679   5.452   6.826   0.157  0.3247  0.0011 -0.5679
   51MOL   C58047680   5.452   7.033   0.033  0.2094  0.1298  0.3032
   51MOL   C58147681   5.446   7.093   7.877  0.0582 -0.3736  0.4376
   51MOL   C58247682   5.428   7.233   7.869  0.0601  0.8982  0.5170
   51MOL   C58347683   5.418   7.310   0.006  0.3566 -0.2259 -0.7987
   51MOL   C58447684   5.395   7.459   7.966  0.1291  0.2609  0.5411
   51MOL   O58547685   5.412   7.511   7.855  0.3028  0.1802  0.4957
   51MOL   O58647686   5.337   7.521   0.103  0.3626 -0.1532  0.3988
   51MOL   C58747687   5.429   7.254   0.136  0.0260  0.6273  0.7226
   51MOL   C58847688   5.442   7.113   0.146  0.1920 -0.3800 -0.2884
   51MOL   H58947689   6.411   6.524   0.154 -2.0136  2.2214 -3.8973
   51MOL   H59047690   6.528   6.519   0.014 -1.7706  0.8258 -1.3747
   51MOL   H59147691   6.286   6.335   0.063  1.4641 -1.0227  0.1221
   51MOL   H59247692   6.386   6.331   7.898 -1.8953  1.7540 -2.1335
   51MOL   H59347693   6.220   6.568   7.974  0.8534 -0.6617  1.6483
   51MOL   H59447694   6.304   6.532   7.814  2.2308 -1.8759 -0.1351
   51MOL   H59547695   6.073   6.374   7.945 -0.6467 -0.4528 -1.0846
   51MOL   H59647696   6.141   6.346   7.791 -0.1911  0.8923 -0.8291
   51MOL   H59747697   5.971   6.592   7.853 -1.0099 -0.0037 -0.7734
   51MOL   H59847698   6.075   6.586   7.710 -0.8914  0.6400 -0.4431
   51MOL   H59947699   5.933   6.406   7.628 -1.6226  2.4442 -1.8135
   51MOL   H60047700   5.873   6.368   7.791  0.8164 -0.2377 -0.5241
   51MOL   H60147701   5.800   6.615   7.614 -3.7528 -0.0407 -1.1921
   51MOL   H60247702   5.704   6.488   7.628  0.9403  1.3834 -1.3952
   51MOL   H60347703   5.683   6.516   7.884  0.0561 -0.2175 -0.2993
   51MOL   H60447704   5.746   6.682   7.856  1.6421 -0.4841 -0.9369
   51MOL   H60547705   5.497   6.551   7.749  0.4815  0.1818 -1.2566
   51MOL   H60647706   5.548   6.720   7.700  2.2282  0.9276  0.1816
   51MOL   H60747707   5.504   6.622   0.011  0.2198  1.4725  0.8333
   51MOL   H60847708   5.376   6.662   7.893  0.0927  0.3308  0.6343
   51MOL   H60947709   5.467   7.037   7.788 -0.5792 -0.6406  0.4487
   51MOL   H61047710   5.436   7.281   7.772  1.1251  2.5944  1.4236
   51MOL   H61147711   5.418   7.311   0.227 -1.5968 -0.7772  1.4392
   51MOL   H61247712   5.440   7.074   0.247  1.2043  0.8775  0.2371
   51MOL   O61347713   5.291   7.664   0.086  0.3697 -0.8081  0.0730
   51MOL   C61447714   5.152   7.661   0.054 -0.3535 -0.6706 -0.0309
   51MOL   C61547715   5.089   7.803   0.046 -0.2465 -1.0119 -0.4374
   51MOL   C61647716   4.955   7.810   7.955  0.3060 -0.0143 -0.4960
   51MOL   C61747717   4.870   7.930   0.022  0.9064 -0.4247 -0.1167
   51MOL   C61847718   4.724   7.911   7.946 -0.3609 -0.0872  0.3543
   51MOL   C61947719   4.621   0.035   0.028 -0.6762  0.0708  0.1923
   51MOL   C62047720   4.485   0.001   7.956  0.0366 -0.0414 -0.3607
   51MOL   C62147721   4.377   0.072   0.062  0.0920 -0.1246  0.9939
   51MOL   C62247722   4.242   0.051   0.006 -0.3046  0.0066 -0.0691
   51MOL   C62347723   4.214   0.109   7.851 -0.0493 -0.1966  0.1505
   51MOL   O62447724   4.238   0.246   7.856 -0.1299 -0.2347 -0.0716
   51MOL   C62547725   4.187   0.319   7.755  0.2682  0.1366  0.0778
   51MOL   O62647726   4.132   0.268   7.659 -0.4194 -0.6614 -0.1872
   51MOL   C62747727   4.214   0.463   7.773 -0.2466  0.1282  0.9953
   51MOL   C62847728   4.283   0.508   7.889  0.1062  0.5535 -1.0341
   51MOL   C62947729   4.314   0.643   7.893 -0.7493  0.3046 -0.2583
   51MOL   C63047730   4.278   0.734   7.793 -0.6781  0.2733 -0.0731
   51MOL   C63147731   4.294   0.884   7.806 -0.0172  0.3297 -0.5975
   51MOL   O63247732   4.274   0.963   7.715 -0.4266 -0.3323  0.5232
   51MOL   O63347733   4.313   0.925   7.931 -0.4790  0.0047 -0.4100
   51MOL   C63447734   4.216   0.693   7.680 -0.1742 -0.1512 -0.0476
   51MOL   C63547735   4.187   0.555   7.671  0.0916  0.4834  0.0449
   51MOL   H63647736   5.126   7.620   7.934 -0.6082  0.2184 -0.3406
   51MOL   H63747737   5.098   7.610   0.134 -1.3869  0.7673  0.2139
   51MOL   H63847738   5.156   7.862   7.962 -0.4087  0.8402  1.1211
   51MOL   H63947739   5.096   7.840   0.148 -0.6872  1.7037 -1.3644
   51MOL   H64047740   4.970   7.801   7.848  0.0868  1.3340 -0.6513
   51MOL   H64147741   4.901   7.723   0.017  1.8635 -0.3089  1.0099
   51MOL   H64247742   4.906   0.050   7.967  0.6883  0.1660  1.3420
   51MOL   H64347743   4.871   7.928   0.131  0.8765  1.1108 -0.0747
   51MOL   H64447744   4.715   7.928   7.839 -1.4157 -3.0893 -0.0797
   51MOL   H64547745   4.687   7.811   7.969  0.5105 -0.2241  1.1955
   51MOL   H64647746   4.632   0.020   0.135 -0.9274  0.9568  0.3390
   51MOL   H64747747   4.630   0.139   7.977 -1.6996 -0.2494 -1.3681
   51MOL   H64847748   4.467   0.027   7.852  0.0654  2.9080  0.3228
   51MOL   H64947749   4.456   7.875   7.968 -0.1820 -0.0693 -1.1378
   51MOL   H65047750   4.372   0.033   0.164  2.0461  2.2898  2.0572
   51MOL   H65147751   4.404   0.177   0.070  1.1103 -0.0788 -2.3601
   51MOL   H65247752   4.162   0.082   0.073  0.9069  1.1198  0.8794
   51MOL   H65347753   4.221   7.922   0.004 -0.0546 -0.0305 -2.5622
   51MOL   H65447754   4.106   0.097   7.836 -0.3555  0.8158  1.4697
   51MOL   H65547755   4.275   0.067   7.771  0.4827 -0.5729  0.7432
   51MOL   H65647756   4.313   0.447   7.973 -1.2759  2.5731  0.9909
   51MOL   H65747757   4.356   0.672   0.011  0.3135  1.4407 -1.0572
   51MOL   H65847758   4.205   0.756   7.593 -1.6404  1.1167  1.0283
   51MOL   H65947759   4.142   0.524   7.577  1.4257 -0.3448 -0.3318
   51MOL   O66047760   4.301   1.077   7.946 -0.5173 -0.5486  0.0591
   51MOL   C66147761   4.184   1.099   0.051  0.6641  0.3935 -0.3896
   51MOL   C66247762   4.170   1.242   0.091 -0.0086  0.1940 -0.1917
   51MOL   C66347763   4.272   1.302   0.187  0.0536 -0.7602 -0.2617
   51MOL   C66447764   4.257   1.452   0.209 -0.2243  0.0786  0.4255
   51MOL   C66547765   4.318   1.494   0.346  0.6609  0.2826  0.9607
   51MOL   C66647766   4.335   1.651   0.347 -0.2088  0.0707  1.0414
   51MOL   C66747767   4.352   1.714   0.485 -0.1834 -0.0956 -0.5604
   51MOL   C66847768   4.224   1.696   0.571 -0.0606 -0.1837  0.0834
   51MOL   C66947769   4.221   1.800   0.685  0.1861 -0.4917  0.2935
   51MOL   C67047770   4.102   1.808   0.778 -0.3677  0.5238  0.0389
   51MOL   O67147771   3.993   1.849   0.704 -0.3346 -0.2893  0.0077
   51MOL   C67247772   3.866   1.837   0.744 -0.4958  0.5885 -0.4958
   51MOL   O67347773   3.841   1.806   0.863 -0.6729  0.5621 -0.4967
   51MOL   C67447774   3.768   1.881   0.646  0.2452 -0.3996 -0.2022
   51MOL   C67547775   3.652   1.958   0.679  0.7810 -0.3180 -0.2192
   51MOL   C67647776   3.563   2.011   0.583  0.6723 -0.4034  0.2938
   51MOL   C67747777   3.595   1.996   0.447 -0.1083 -0.1009  0.4646
   51MOL   C67847778   3.501   2.049   0.347 -0.0983  0.5757 -0.2594
   51MOL   O67947779   3.421   2.144   0.359  0.0964 -0.2045  0.3349
   51MOL   O68047780   3.513   1.984   0.231  0.1794  0.3251  0.4710
   51MOL   C68147781   3.718   1.929   0.419  0.4633  0.2921 -0.1859
   51MOL   C68247782   3.803   1.873   0.511 -0.1411  0.2775 -0.1593
   51MOL   H68347783   4.109   1.047   7.970 -0.4044  1.2029  0.2399
   51MOL   H68447784   4.191   1.030   0.135 -0.9230 -1.3224 -1.6188
   51MOL   H68547785   4.068   1.258   0.126 -0.3141 -1.7545 -0.1487
   51MOL   H68647786   4.164   1.296   7.974 -0.6258  0.1370 -0.1852
   51MOL   H68747787   4.254   1.257   0.284  0.4897  1.2032  0.7514
   51MOL   H68847788   4.370   1.268   0.153 -0.1521 -0.9196 -0.7032
   51MOL   H68947789   4.154   1.484   0.226 -0.4646  0.4335 -1.6673
   51MOL   H69047790   4.296   1.492   0.116 -2.8077 -0.4394 -0.8960
   51MOL   H69147791   4.251   1.472   0.429  2.4902  1.9097  2.9108
   51MOL   H69247792   4.412   1.439   0.353  1.2630  1.1857  0.0609
   51MOL   H69347793   4.420   1.679   0.285 -1.3681 -0.6071 -0.8925
   51MOL   H69447794   4.244   1.696   0.308  0.7984  0.8861 -0.3734
   51MOL   H69547795   4.429   1.659   0.539 -1.1110 -0.2600  0.6120
   51MOL   H69647796   4.369   1.821   0.480 -1.3643  0.2124  1.5701
   51MOL   H69747797   4.135   1.716   0.511 -1.7107  1.2186  2.9360
   51MOL   H69847798   4.205   1.595   0.608 -0.9283  0.2275  0.7577
   51MOL   H69947799   4.243   1.902   0.653 -0.0455 -0.5003  0.1078
   51MOL   H70047800   4.300   1.776   0.756  0.2037  0.1828  0.5084
   51MOL   H70147801   4.113   1.867   0.870 -0.9187 -0.0378  0.4765
   51MOL   H70247802   4.076   1.711   0.820 -0.7078  0.5178 -0.1870
   51MOL   H70347803   3.622   1.979   0.781 -0.4381  1.9050 -0.9943
   51MOL   H70447804   3.467   2.050   0.613  1.0071  1.3803 -0.8821
   51MOL   H70547805   3.740   1.920   0.313 -1.6003  2.9767 -0.9079
   51MOL   H70647806   3.898   1.829   0.484  0.3873 -0.0195  2.0703
   51MOL   O70747807   3.393   2.002   0.134 -0.3176  0.7164  0.4580
   51MOL   C70847808   3.449   2.006   0.003 -0.6838  0.5706  0.2726
   51MOL   C70947809   3.333   2.014   7.884  0.3422  0.5379 -0.0181
   51MOL   C71047810   3.366   1.962   7.748 -0.2555 -0.0223  0.3370
   51MOL   C71147811   3.490   2.019   7.686  0.1588 -0.2415 -0.4900
   51MOL   C71247812   3.515   1.952   7.551  0.3623 -0.1629  0.2940
   51MOL   C71347813   3.655   1.982   7.488  0.2169 -0.5848  0.7045
   51MOL   C71447814   3.779   1.927   7.564  0.1132 -0.5881  0.5199
   51MOL   C71547815   3.787   1.779   7.567  0.3658  0.4042  0.1345
   51MOL   C71647816   3.929   1.723   7.578 -0.3161  0.6368 -0.3349
   51MOL   C71747817   4.022   1.788   7.683 -0.4109  1.0031 -0.0867
   51MOL   O71847818   4.136   1.698   7.708  0.1883 -0.2321 -0.2591
   51MOL   C71947819   4.222   1.714   7.808 -0.5555 -0.0278 -0.8187
   51MOL   O72047820   4.207   1.816   7.882 -0.5566 -0.7064 -0.6201
   51MOL   C72147821   4.330   1.612   7.819 -0.2093 -0.0156  0.0647
   51MOL   C72247822   4.318   1.487   7.758  0.7201 -0.2644  0.4535
   51MOL   C72347823   4.412   1.385   7.777 -0.6599  0.6604  0.0710
   51MOL   C72447824   4.520   1.403   7.863  0.0184 -0.0834  0.3958
   51MOL   C72547825   4.622   1.292   7.886  0.4721 -0.1326  0.4306
   51MOL   O72647826   4.710   1.287   7.971 -0.0455  0.4234  0.0595
   51MOL   O72747827   4.622   1.198   7.785 -0.1741  0.0620  0.0180
   51MOL   C72847828   4.538   1.526   7.923  0.0656 -0.0919  0.0174
   51MOL   C72947829   4.442   1.633   7.907  0.4838  0.6308 -0.1407
   51MOL   H73047830   3.511   2.094   7.968 -1.4618  0.8951 -1.3943
   51MOL   H73147831   3.498   1.909   7.977 -1.7999 -0.0819  1.7771
   51MOL   H73247832   3.299   2.117   7.883 -0.8872  0.2209  2.6351
   51MOL   H73347833   3.248   1.959   7.925  0.4135  1.5761  1.5953
   51MOL   H73447834   3.375   1.853   7.751 -1.9784 -0.2371 -1.4121
   51MOL   H73547835   3.285   1.976   7.676 -0.3323 -1.6151  0.0806
   51MOL   H73647836   3.578   2.008   7.748 -0.4938 -0.4346  0.4098
   51MOL   H73747837   3.484   2.126   7.666  1.6614 -0.1381 -0.3781
   51MOL   H73847838   3.489   1.846   7.553  0.0627 -0.0854  0.5918
   51MOL   H73947839   3.438   1.992   7.486  1.2948 -0.9902 -1.3448
   51MOL   H74047840   3.667   1.925   7.396 -2.0510 -0.6824  0.4386
   51MOL   H74147841   3.670   2.087   7.463  0.7998 -1.2665 -2.0446
   51MOL   H74247842   3.868   1.964   7.513 -0.2694 -1.3854 -0.7373
   51MOL   H74347843   3.789   1.960   7.668 -1.3277  1.8118 -0.0622
   51MOL   H74447844   3.717   1.743   7.643  0.5618  0.3377  0.2825
   51MOL   H74547845   3.749   1.737   7.474  3.1554 -0.6920 -0.5359
   51MOL   H74647846   3.981   1.724   7.482 -1.1815  0.1743 -0.8142
   51MOL   H74747847   3.905   1.620   7.604 -1.3792  0.4428 -1.9849
   51MOL   H74847848   3.966   1.803   7.775  0.6821 -0.4448  0.8416
   51MOL   H74947849   4.050   1.889   7.655 -1.8835  1.8392  1.3795
   51MOL   H75047850   4.237   1.466   7.689  1.0056  1.4761 -0.4540
   51MOL   H75147851   4.404   1.300   7.711  2.1292  0.3452  0.0616
   51MOL   H75247852   4.618   1.534   0.017  1.9606  0.7780 -2.1219
   51MOL   H75347853   4.466   1.726   7.956  1.0633  0.5817 -0.3251
   51MOL   O75447854   4.702   1.070   7.805 -0.3375 -0.3833 -0.5452
   51MOL   C75547855   4.627   0.971   7.874 -0.3919 -0.8243 -0.9979
   51MOL   C75647856   4.715   0.875   7.944 -0.0483 -0.2902 -0.2821
   51MOL   C75747857   4.820   0.930   0.072 -0.4965 -0.2153  0.0357
   51MOL   C75847858   4.741   0.973   0.199 -0.4951 -0.1086  0.7792
   51MOL   C75947859   4.818   1.020   0.322 -0.1453  0.0412 -0.2189
   51MOL   C76047860   4.735   1.077   0.438  0.5209  0.7541  0.4534
   51MOL   C76147861   4.656   1.212   0.411 -0.0685 -0.0390 -0.3379
   51MOL   C76247862   4.754   1.320   0.367  0.1937 -0.0536  0.5727
   51MOL   C76347863   4.860   1.353   0.473 -0.3440  0.3325 -0.6585
   51MOL   C76447864   4.922   1.491   0.437 -0.4118  0.3313 -0.2590
   51MOL   O76547865   4.828   1.595   0.425 -0.2631 -0.4436  0.1825
   51MOL   C76647866   4.781   1.663   0.530  0.1737  0.4465  0.2420
   51MOL   O76747867   4.810   1.630   0.646 -0.0285  0.0155  0.1684
   51MOL   C76847868   4.706   1.786   0.495  0.2651 -0.1043 -0.1121
   51MOL   C76947869   4.679   1.879   0.592  0.0632 -0.1723  0.4351
   51MOL   C77047870   4.615   1.998   0.573 -0.1749  0.1149 -0.3435
   51MOL   C77147871   4.564   2.032   0.449  0.5330  0.9383  0.3711
   51MOL   C77247872   4.487   2.156   0.422 -0.7797 -0.4897  0.3406
   51MOL   O77347873   4.422   2.168   0.318  0.7717  0.8519 -0.7020
   51MOL   O77447874   4.508   2.256   0.512  0.2773 -0.1626 -0.2008
   51MOL   C77547875   4.587   1.935   0.342 -0.2410  0.3664 -0.0532
   51MOL   C77647876   4.664   1.819   0.365 -0.5536  0.1876  0.5099
   51MOL   H77747877   4.566   1.018   7.952 -0.1862  0.1955 -1.4394
   51MOL   H77847878   4.560   0.914   7.809 -0.9784  1.6076 -2.5944
   51MOL   H77947879   4.765   0.818   7.866  1.0883  0.5694 -0.2094
   51MOL   H78047880   4.657   0.796   0.013  1.3263 -0.8362  0.5444
   51MOL   H78147881   4.902   0.860   0.087  1.7093  1.7352 -2.5011
   51MOL   H78247882   4.877   1.016   0.037  0.8269 -0.3928  1.7187
   51MOL   H78347883   4.662   0.902   0.224 -2.2555  1.1325 -1.0866
   51MOL   H78447884   4.673   1.052   0.167  0.7489  0.4542 -0.5443
   51MOL   H78547885   4.887   0.941   0.352  1.8870  1.6198 -0.6206
   51MOL   H78647886   4.890   1.089   0.279 -0.5836 -0.0044 -1.0189
   51MOL   H78747887   4.666   0.996   0.464 -0.7961  1.1185 -1.7507
   51MOL   H78847888   4.801   1.098   0.523 -0.1684  0.6147  1.0345
   51MOL   H78947889   4.576   1.200   0.339  0.5876 -0.2255 -1.0393
   51MOL   H79047890   4.612   1.243   0.506 -0.4526  0.4176 -0.6677
   51MOL   H79147891   4.797   1.286   0.272 -1.3620  1.6158 -0.7668
   51MOL   H79247892   4.703   1.415   0.349  1.5896  0.2454 -1.9893
   51MOL   H79347893   4.949   1.289   0.478  0.1657  1.0595 -0.3492
   51MOL   H79447894   4.829   1.351   0.577 -0.4176  2.7036 -0.6170
   51MOL   H79547895   4.976   1.489   0.342  1.1182  0.5904  0.5934
   51MOL   H79647896   5.006   1.517   0.501 -1.1216 -1.5157  1.4677
   51MOL   H79747897   4.711   1.851   0.691  0.3508 -0.9690  0.1161
   51MOL   H79847898   4.598   2.060   0.660 -0.9661 -1.7091  0.8340
   51MOL   H79947899   4.555   1.955   0.241  0.4963 -0.3226 -0.4293
   51MOL   H80047900   4.687   1.754   0.282 -0.1098  1.3241 -0.2678
   51MOL   O80147901   4.454   2.385   0.454 -0.2929  0.6583 -0.2156
   51MOL   C80247902   4.569   2.466   0.415 -0.1334  0.6100  0.5805
   51MOL   C80347903   4.527   2.582   0.322  0.1097 -0.9143  0.5748
   51MOL   C80447904   4.638   2.682   0.299  0.0323  0.5962 -0.5687
   51MOL   C80547905   4.601   2.797   0.206 -0.8150 -0.1446  0.5033
   51MOL   C80647906   4.716   2.900   0.203 -0.8524 -0.2138 -0.8054
   51MOL   C80747907   4.826   2.862   0.111  0.0866 -0.3001 -0.9045
   51MOL   C80847908   4.935   2.971   0.097 -0.7265  0.2025  0.2270
   51MOL   C80947909   5.058   2.914   0.020 -0.2963  0.1166 -0.4858
   51MOL   C81047910   5.135   3.033   7.934 -0.5333 -0.0901  0.2776
   51MOL   C81147911   5.063   3.114   7.822 -0.2000 -0.7529 -0.7328
   51MOL   O81247912   5.158   3.196   7.769  0.2207  0.8219  0.6005
   51MOL   C81347913   5.127   3.279   7.665 -0.3590  0.0635 -0.3279
   51MOL   O81447914   5.017   3.311   7.629  0.9065 -0.0578  0.1397
   51MOL   C81547915   5.246   3.333   7.597 -0.0826  0.4028  0.1384
   51MOL   C81647916   5.377   3.286   7.621 -0.2694  0.2961 -0.2936
   51MOL   C81747917   5.481   3.336   7.540 -0.2597  0.2847  0.3299
   51MOL   C81847918   5.465   3.443   7.455  0.9094 -0.2734 -0.0792
   51MOL   C81947919   5.582   3.500   7.382 -0.1846 -0.1119  0.2227
   51MOL   O82047920   5.574   3.611   7.331 -0.3342  0.0896  0.1698
   51MOL   O82147921   5.701   3.438   7.406  0.4328 -0.2426  0.5362
   51MOL   C82247922   5.337   3.486   7.428  0.3011 -0.1009  0.0013
   51MOL   C82347923   5.223   3.429   7.491  0.2380 -0.4989 -0.0440
   51MOL   H82447924   4.614   2.503   0.507 -3.0409 -0.2992  2.4196
   51MOL   H82547925   4.644   2.409   0.360 -0.5033 -1.1375  1.8681
   51MOL   H82647926   4.444   2.625   0.378  0.6372 -0.0128  0.6709
   51MOL   H82747927   4.490   2.544   0.227 -1.1970  0.7772  0.3871
   51MOL   H82847928   4.679   2.719   0.392 -1.4933  0.8432  0.0202
   51MOL   H82947929   4.721   2.633   0.248 -0.1985  0.5763 -0.9328
   51MOL   H83047930   4.518   2.849   0.253 -0.6045  0.6025  0.0508
   51MOL   H83147931   4.579   2.758   0.107 -0.0844  0.4728  0.0968
   51MOL   H83247932   4.682   2.996   0.164  0.3675  1.5659  2.3269
   51MOL   H83347933   4.757   2.916   0.303 -1.5574 -0.6406 -0.4427
   51MOL   H83447934   4.883   2.775   0.143 -0.4057 -0.2274  0.1848
   51MOL   H83547935   4.780   2.835   0.016  0.0792 -0.8046 -0.7575
   51MOL   H83647936   4.894   3.064   0.059 -2.2201 -1.3188 -1.9811
   51MOL   H83747937   4.966   2.997   0.199 -0.7495  1.9541 -0.1930
   51MOL   H83847938   5.112   2.848   0.088  1.8338  0.7709 -1.4846
   51MOL   H83947939   5.021   2.852   7.917 -1.8032  0.7732 -0.3142
   51MOL   H84047940   5.227   3.003   7.882 -1.0700  1.8589 -1.9087
   51MOL   H84147941   5.170   3.101   0.034  1.9521 -1.7822  0.6938
   51MOL   H84247942   4.975   3.165   7.860 -1.2415 -1.6486 -1.8902
   51MOL   H84347943   5.027   3.039   7.752  0.4208 -2.3362  0.5881
   51MOL   H84447944   5.395   3.204   7.688 -0.1205  3.0951  3.2467
   51MOL   H84547945   5.578   3.293   7.559 -0.6730 -0.7423  0.1312
   51MOL   H84647946   5.322   3.568   7.359 -1.5000 -2.3634 -2.3980
   51MOL   H84747947   5.131   3.467   7.450  0.4847  0.4706  0.2833
   51MOL   O84847948   5.807   3.474   7.302 -0.0653 -0.3332  0.3326
   51MOL   C84947949   5.802   3.370   7.207 -0.2503 -0.2180  0.3084
   51MOL   C85047950   5.880   3.399   7.079 -0.5091  0.0786 -0.4226
   51MOL   C85147951   5.846   3.536   7.016  0.0516  0.1620  0.3040
   51MOL   C85247952   5.905   3.569   6.880 -0.4758  0.1547 -0.2314
   51MOL   C85347953   5.832   3.482   6.778  0.7223  0.3840 -0.4247
   51MOL   C85447954   5.677   3.515   6.772 -0.3997 -0.0538 -0.6165
   51MOL   C85547955   5.627   3.453   6.641  0.8811  0.4421  0.2334
   51MOL   C85647956   5.496   3.513   6.600  0.3509  0.1487 -0.0012
   51MOL   C85747957   5.452   3.492   6.449 -0.4444  0.9225  0.1175
   51MOL   C85847958   5.320   3.564   6.415  0.9283  1.0831  0.6982
   51MOL   O85947959   5.301   3.573   6.277 -0.9296  0.0020 -0.6792
   51MOL   C86047960   5.203   3.646   6.218 -0.3662  0.3328 -0.3930
   51MOL   O86147961   5.125   3.718   6.281  0.3191 -0.3229 -0.1125
   51MOL   C86247962   5.197   3.622   6.072  0.6627 -0.5372 -0.4014
   51MOL   C86347963   5.093   3.682   5.991 -0.0878 -0.6482 -0.1315
   51MOL   C86447964   5.079   3.660   5.857  0.3448  0.7233  0.5969
   51MOL   C86547965   5.175   3.567   5.796  0.4161 -0.5524 -0.1716
   51MOL   C86647966   5.158   3.522   5.658  0.3950 -0.1514  0.0860
   51MOL   O86747967   5.209   3.418   5.617 -0.7240  0.1297 -0.2327
   51MOL   O86847968   5.087   3.601   5.586  0.2869 -0.6379 -0.5877
   51MOL   C86947969   5.277   3.510   5.872 -0.5892  0.1703 -0.4588
   51MOL   C87047970   5.295   3.540   6.008 -0.5367  0.7824 -0.5902
   51MOL   H87147971   5.818   3.272   7.251  1.6000 -0.7967 -1.5878
   51MOL   H87247972   5.697   3.359   7.178 -0.8570 -2.5581  3.1118
   51MOL   H87347973   5.842   3.319   7.015  0.0040 -0.5358  0.0276
   51MOL   H87447974   5.984   3.377   7.101 -0.6372 -1.1225 -0.9412
   51MOL   H87547975   5.738   3.543   7.026  0.0082  0.0480 -0.0814
   51MOL   H87647976   5.889   3.612   7.082  0.6844 -0.1657  0.2710
   51MOL   H87747977   6.004   3.523   6.887 -0.2464  0.9865  2.3338
   51MOL   H87847978   5.898   3.674   6.851  1.9005  0.0022 -1.4948
   51MOL   H87947979   5.880   3.484   6.680 -1.1831 -0.2110 -1.3983
   51MOL   H88047980   5.847   3.377   6.803 -1.2806 -0.1443 -1.3820
   51MOL   H88147981   5.634   3.467   6.861  0.3256 -1.8213 -1.1815
   51MOL   H88247982   5.659   3.622   6.773 -0.9022 -0.1277  0.7778
   51MOL   H88347983   5.697   3.488   6.566  1.8588 -1.1081  0.4072
   51MOL   H88447984   5.633   3.345   6.630 -1.0654  0.3652 -0.3317
   51MOL   H88547985   5.427   3.467   6.671  0.7434 -1.2488 -0.4999
   51MOL   H88647986   5.497   3.620   6.619  0.6194  0.5257 -2.0156
   51MOL   H88747987   5.443   3.388   6.419  2.0146  0.8484 -0.4586
   51MOL   H88847988   5.535   3.529   6.389  1.7071 -1.6495  1.4464
   51MOL   H88947989   5.320   3.660   6.467 -0.0261  1.7790 -0.5589
   51MOL   H89047990   5.241   3.508   6.464  2.7046 -0.8827  1.4162
   51MOL   H89147991   5.032   3.759   6.036 -1.6731 -1.6729 -0.4907
   51MOL   H89247992   5.005   3.719   5.805 -0.2403  1.1789  1.8991
   51MOL   H89347993   5.353   3.446   5.830  0.8448  0.1761  2.0150
   51MOL   H89447994   5.376   3.501   6.067  0.1259  0.8712 -1.4279
   51MOL   O89547995   5.038   3.532   5.459  0.4379  0.2946  0.0334
   51MOL   C89647996   4.899   3.504   5.461  0.5683 -0.3549 -0.2136
   51MOL   C89747997   4.807   3.632   5.463 -0.1737  0.0462  0.1880
   51MOL   C89847998   4.815   3.685   5.325  0.3914  0.1191 -0.2600
   51MOL   C89947999   4.772   3.599   5.195  0.3926 -0.4212  0.0965
   51MOL   C90048000   4.623   3.595   5.169  0.0690 -0.3584 -0.8201
   51MOL   C90148001   4.543   3.481   5.239  0.2880 -0.3395  0.2445
   51MOL   C90248002   4.591   3.340   5.196 -0.2497 -0.0585 -0.4243
   51MOL   C90348003   4.482   3.239   5.235 -0.3895 -0.8515  0.2079
   51MOL   C90448004   4.503   3.093   5.180  0.2456  0.2302 -0.3989
   51MOL   C90548005   4.399   2.996   5.234  0.0390 -0.1747  0.8214
   51MOL   O90648006   4.269   3.028   5.184  0.4617  0.9335 -0.1640
   51MOL   C90748007   4.175   3.064   5.270 -0.0859 -0.8438  0.2736
   51MOL   O90848008   4.181   3.048   5.394  0.2076  0.4644 -0.3155
   51MOL   C90948009   4.057   3.126   5.209  0.0375  0.1903  0.0649
   51MOL   C91048010   3.978   3.209   5.294  0.3294  0.5907 -0.1826
   51MOL   C91148011   3.858   3.262   5.244 -0.0440  0.1744 -0.2625
   51MOL   C91248012   3.811   3.244   5.111  0.3580 -0.2527 -0.5005
   51MOL   C91348013   3.680   3.310   5.060 -0.4443  0.3880 -0.1668
   51MOL   O91448014   3.656   3.322   4.939 -0.1965  0.4236  0.5973
   51MOL   O91548015   3.600   3.361   5.162 -0.5569  0.0447  0.0645
   51MOL   C91648016   3.896   3.159   5.024 -0.4825 -0.5010 -1.0608
   51MOL   C91748017   4.016   3.100   5.074 -0.0874 -0.7837  0.0026
   51MOL   H91848018   4.856   3.428   5.396 -1.2357  1.6377 -1.4071
   51MOL   H91948019   4.891   3.453   5.557 -4.7056  1.3083  0.4263
   51MOL   H92048020   4.847   3.709   5.529  2.0012  0.1988 -1.2605
   51MOL   H92148021   4.707   3.597   5.490 -0.8530  1.6054 -0.2607
   51MOL   H92248022   4.771   3.784   5.313  1.3237  0.3855 -1.5134
   51MOL   H92348023   4.920   3.702   5.306  0.5148 -2.0127 -1.6713
   51MOL   H92448024   4.816   3.500   5.201 -1.2568 -1.0301  2.8183
   51MOL   H92548025   4.817   3.643   5.106  0.6751  1.3454  1.0774
   51MOL   H92648026   4.581   3.690   5.204  0.6523 -0.2931 -0.2920
   51MOL   H92748027   4.598   3.587   5.063  1.1350 -0.1435 -1.0867
   51MOL   H92848028   4.550   3.489   5.348 -1.0918  2.2805  0.1601
   51MOL   H92948029   4.438   3.498   5.216  1.1350  1.8838 -2.1500
   51MOL   H93048030   4.603   3.339   5.088 -0.6229  5.0159 -0.6481
   51MOL   H93148031   4.681   3.312   5.251 -1.7534 -1.3870  1.4477
   51MOL   H93248032   4.472   3.230   5.343 -0.8446 -1.0470  0.1525
   51MOL   H93348033   4.385   3.265   5.191  1.3120  0.9843 -2.6568
   51MOL   H93448034   4.600   3.055   5.214 -0.7461 -0.3571  1.8687
   51MOL   H93548035   4.508   3.076   5.072 -0.2114 -0.4978 -0.3025
   51MOL   H93648036   4.412   2.995   5.343  1.1452  0.0619  0.6982
   51MOL   H93748037   4.427   2.896   5.202 -1.2517 -0.0792 -0.6232
   51MOL   H93848038   4.009   3.233   5.394  1.0811 -1.0094 -0.0241
   51MOL   H93948039   3.790   3.318   5.306 -1.8377 -2.6608  0.4178
   51MOL   H94048040   3.877   3.154   4.918 -0.2453  2.5718 -1.2956
   51MOL   H94148041   4.082   3.043   5.010 -0.0698  0.0461 -0.7317
   51MOL   H94248042   3.540   3.427   5.131 -2.1507 -1.8592 -0.9842
   52MOL     O148043   6.512   6.531   3.866  0.8803 -0.0267 -0.0316
   52MOL     C248044   6.455   6.626   3.781  0.7554 -0.4427  0.1950
   52MOL     C348045   6.500   6.768   3.818  0.0132  0.4322 -0.4390
   52MOL     C448046   6.404   6.880   3.777 -0.7955  0.3358 -0.4343
   52MOL     C548047   6.378   6.983   3.887 -0.4787 -0.1114  0.2597
   52MOL     C648048   6.486   7.092   3.894 -0.6459  0.2266  0.3699
   52MOL     C748049   6.433   7.221   3.959  0.1388 -0.3097 -0.3424
   52MOL     C848050   6.529   7.342   3.977 -0.1738  0.8476 -0.2170
   52MOL     C948051   6.611   7.377   3.847  0.1408 -0.6714  0.4079
   52MOL    C1048052   6.524   7.441   3.734  0.3745 -0.3560  0.2487
   52MOL    C1148053   6.599   7.483   3.608 -0.3827  0.0889 -0.2907
   52MOL    O1248054   6.714   7.558   3.639  0.0349  0.4944  0.9578
   52MOL    C1348055   6.719   7.692   3.623  0.5351 -0.6186  0.1325
   52MOL    O1448056   6.623   7.760   3.590 -0.0399 -0.0882 -0.3778
   52MOL    C1548057   6.854   7.744   3.650  0.3674  0.3953  0.0128
   52MOL    C1648058   6.959   7.667   3.706 -0.1996  0.4932 -0.7692
   52MOL    C1748059   7.090   7.718   3.717 -0.1832 -0.0979 -0.2509
   52MOL    C1848060   7.114   7.847   3.669 -0.2854 -0.0666 -0.5736
   52MOL    C1948061   7.256   7.896   3.663  0.1994  0.2129  0.0887
   52MOL    O2048062   7.349   7.829   3.704  0.2915 -0.2784  0.3581
   52MOL    O2148063   7.278   0.046   3.604 -0.1581  0.0402 -0.5655
   52MOL    C2248064   7.011   7.924   3.619 -0.0229 -1.0583 -0.1718
   52MOL    C2348065   6.883   7.878   3.606  0.2940  0.1029 -0.0666
   52MOL    H2448066   6.478   6.616   3.675  0.1180 -1.5499  0.1536
   52MOL    H2548067   6.347   6.614   3.788  0.3988  1.1953 -1.9682
   52MOL    H2648068   6.597   6.788   3.772  0.6711  0.6347  0.9938
   52MOL    H2748069   6.507   6.769   3.927 -1.4041 -0.3002 -0.3284
   52MOL    H2848070   6.433   6.915   3.678  0.6366  2.5537  0.7119
   52MOL    H2948071   6.309   6.829   3.766 -0.6274 -0.4496  1.4951
   52MOL    H3048072   6.348   6.937   3.980 -0.0275  1.5405  1.2437
   52MOL    H3148073   6.288   7.033   3.850 -1.2417 -0.7164  1.2826
   52MOL    H3248074   6.580   7.062   3.938  0.2231 -0.3193 -1.7844
   52MOL    H3348075   6.515   7.113   3.791  0.8064  1.8570  1.1065
   52MOL    H3448076   6.354   7.263   3.897 -0.1086  0.4817  0.4967
   52MOL    H3548077   6.400   7.188   4.057  2.4222 -2.3837 -0.2162
   52MOL    H3648078   6.464   7.424   4.008 -1.2436  0.3036 -0.9954
   52MOL    H3748079   6.601   7.324   4.057  0.1669  2.5193 -0.1420
   52MOL    H3848080   6.690   7.446   3.877 -1.1576  1.3096 -0.5664
   52MOL    H3948081   6.652   7.284   3.809 -1.5369 -1.1912 -0.1914
   52MOL    H4048082   6.480   7.530   3.778 -1.5564 -1.3584  0.4354
   52MOL    H4148083   6.444   7.368   3.716 -0.7163  1.1625 -1.2330
   52MOL    H4248084   6.530   7.530   3.537 -1.2716  1.3693  1.3820
   52MOL    H4348085   6.630   7.397   3.549  0.0475  0.2669 -0.3289
   52MOL    H4448086   6.942   7.570   3.750 -0.3389  1.2198  0.7842
   52MOL    H4548087   7.173   7.659   3.751 -0.7839 -0.2667  0.9652
   52MOL    H4648088   7.034   0.039   3.568 -0.8863 -0.9835 -0.4245
   52MOL    H4748089   6.808   7.940   3.559  0.7047  1.1891  0.6794
   52MOL    H4848090   6.536   6.452   3.820  0.5780 -0.8676  1.2294
   52MOL    O4948091   7.413   0.097   3.619 -0.3596 -0.4208 -0.4722
   52MOL    C5048092   7.408   0.198   3.722  0.7065 -0.2336  0.5386
   52MOL    C5148093   7.546   0.273   3.734  0.8263  0.0001  0.0055
   52MOL    C5248094   7.656   0.169   3.770 -0.1547 -0.6896 -0.0509
   52MOL    C5348095   7.794   0.242   3.771  0.3661  0.2716  0.3528
   52MOL    C5448096   7.827   0.320   3.893  0.3303 -0.0708  0.5360
   52MOL    C5548097   7.959   0.384   3.882  0.8029 -0.1118 -1.1816
   52MOL    C5648098   0.041   0.437   4.015  0.3500  0.4870 -0.4315
   52MOL    C5748099   0.170   0.520   4.001 -0.3773 -0.3558  0.3358
   52MOL    C5848100   0.296   0.454   3.947  0.4192  0.4076  0.3195
   52MOL    C5948101   0.415   0.556   3.951 -0.2600  0.1952  0.1592
   52MOL    O6048102   0.543   0.507   3.908 -0.4134  0.6243 -0.9223
   52MOL    C6148103   0.624   0.440   3.989  0.2687 -0.0526 -0.0505
   52MOL    O6248104   0.589   0.415   4.105 -0.0801 -0.4106 -0.3377
   52MOL    C6348105   0.748   0.394   3.923  0.4976 -0.1813  0.2118
   52MOL    C6448106   0.839   0.314   4.000  0.8616  0.3205  0.2523
   52MOL    C6548107   0.960   0.276   3.952  0.1291 -0.4312 -0.2045
   52MOL    C6648108   0.997   0.313   3.819  0.4282  0.0669  0.5288
   52MOL    C6748109   1.118   0.250   3.764 -0.5348  0.3013  0.7827
   52MOL    O6848110   1.166   0.153   3.816  0.0324  0.1018  0.6812
   52MOL    O6948111   1.186   0.328   3.677  0.2032 -0.3062 -0.7178
   52MOL    C7048112   0.909   0.389   3.739 -1.6929  0.2691  0.0159
   52MOL    C7148113   0.787   0.434   3.791 -0.2846  0.1407 -0.8189
   52MOL    H7248114   7.346   0.279   3.682  0.4801  0.3961  2.1551
   52MOL    H7348115   7.370   0.170   3.820  1.0540  1.4463  1.1710
   52MOL    H7448116   7.543   0.360   3.800 -1.4349  0.8955 -1.1936
   52MOL    H7548117   7.577   0.310   3.636  0.8867 -3.4738 -1.3779
   52MOL    H7648118   7.623   0.112   3.857 -2.4521  0.4825 -0.1212
   52MOL    H7748119   7.663   0.098   3.688 -0.3770 -0.5883 -0.1582
   52MOL    H7848120   7.804   0.298   3.678 -1.2969  1.1174  0.6446
   52MOL    H7948121   7.870   0.165   3.774 -1.5449 -1.8144 -1.7425
   52MOL    H8048122   7.752   0.396   3.916 -1.2897 -1.1335 -1.1214
   52MOL    H8148123   7.821   0.253   3.979  1.0918  1.1722  1.5787
   52MOL    H8248124   0.053   0.325   3.825  3.0253  1.3464  0.0502
   52MOL    H8348125   7.950   0.461   3.806  0.3075 -1.5097 -2.5831
   52MOL    H8448126   7.934   0.485   4.064  0.7298  0.3019  0.4265
   52MOL    H8548127   0.054   0.349   4.078 -0.3869 -0.7304 -1.9370
   52MOL    H8648128   0.154   0.603   3.932  1.2875 -0.0088  0.3409
   52MOL    H8748129   0.186   0.576   4.093 -0.4511  0.8727 -0.3871
   52MOL    H8848130   0.276   0.409   3.849  0.0957  0.9180  0.1462
   52MOL    H8948131   0.316   0.371   4.015 -2.7595 -1.2787 -0.6954
   52MOL    H9048132   0.423   0.586   4.056  2.0223 -0.3466  0.1675
   52MOL    H9148133   0.387   0.639   3.887 -2.4341 -0.1704  0.6017
   52MOL    H9248134   0.811   0.286   4.100 -2.1076  2.6334  0.1556
   52MOL    H9348135   1.032   0.226   4.015  1.8772  2.0779 -0.1555
   52MOL    H9448136   0.948   0.408   3.640 -0.2995 -1.0235  0.2986
   52MOL    H9548137   0.724   0.502   3.736 -2.3383 -0.6024  0.5478
   52MOL    O9648138   1.319   0.282   3.631  0.5011 -0.0243  0.3985
   52MOL    C9748139   1.305   0.204   3.510  0.4047  0.3861 -0.3042
   52MOL    C9848140   1.303   0.051   3.547  0.3905 -0.2138 -0.5799
   52MOL    C9948141   1.421   0.010   3.637 -0.5889 -0.6859  0.1583
   52MOL   C10048142   1.439   7.841   3.668 -0.6153 -0.4115  0.2848
   52MOL   C10148143   1.562   7.803   3.749 -0.3469  0.7421 -0.5157
   52MOL   C10248144   1.554   7.829   3.895  0.3080 -0.2492  0.3338
   52MOL   C10348145   1.691   7.812   3.965 -0.4958  0.2525  0.4941
   52MOL   C10448146   1.687   7.856   4.106 -0.4727 -0.3378 -0.6206
   52MOL   C10548147   1.820   7.834   4.189 -0.5354  0.0968  0.4959
   52MOL   C10648148   1.934   7.932   4.159 -0.0765  0.5383  0.0857
   52MOL   O10748149   2.050   7.900   4.228  0.2995  0.2847 -0.1133
   52MOL   C10848150   2.162   7.961   4.203 -0.7353  0.4275 -0.2425
   52MOL   O10948151   2.180   0.046   4.100  0.1164  0.0232 -0.1608
   52MOL   C11048152   2.262   7.949   4.299  0.1376 -0.3868  0.4996
   52MOL   C11148153   2.390   0.034   4.280 -0.0354 -0.1266  0.1227
   52MOL   C11248154   2.500   0.011   4.363  0.8178  0.3800  0.7140
   52MOL   C11348155   2.482   7.916   4.487  0.9879  0.3436 -0.0344
   52MOL   C11448156   2.592   7.891   4.596  0.0868 -0.4683  0.1066
   52MOL   O11548157   2.574   7.825   4.698  0.3789 -0.1404 -0.4550
   52MOL   O11648158   2.703   7.966   4.574  0.6549  0.2307  0.1913
   52MOL   C11748159   2.356   7.845   4.501 -0.4190 -0.2034  0.6014
   52MOL   C11848160   2.252   7.860   4.406 -0.5550  0.4011  0.3287
   52MOL   H11948161   1.211   0.228   3.462 -0.7641 -1.5034  0.9897
   52MOL   H12048162   1.395   0.246   3.464 -0.0793 -2.1800 -3.7495
   52MOL   H12148163   1.308   7.970   3.456 -0.6696 -0.4216 -0.5151
   52MOL   H12248164   1.209   0.013   3.588  1.1510 -1.4825  0.0120
   52MOL   H12348165   1.512   0.035   3.583 -0.1408 -0.0607  1.1887
   52MOL   H12448166   1.418   0.067   3.730  1.0226 -0.9964  0.4112
   52MOL   H12548167   1.445   7.780   3.577  0.0671  0.8091 -0.5044
   52MOL   H12648168   1.346   7.814   3.718 -0.4268 -0.6013  0.5336
   52MOL   H12748169   1.589   7.701   3.720 -1.2975  0.6305 -1.0469
   52MOL   H12848170   1.641   7.848   3.691 -0.6167  3.0910  0.8766
   52MOL   H12948171   1.515   7.930   3.907  2.3920  0.5450  0.5716
   52MOL   H13048172   1.484   7.761   3.945 -1.9823 -0.0099 -2.3946
   52MOL   H13148173   1.724   7.709   3.968 -0.0575  0.3899  0.3967
   52MOL   H13248174   1.774   7.859   3.912  2.0958 -1.4679  2.9107
   52MOL   H13348175   1.673   7.964   4.116  1.4364 -0.1904  0.8299
   52MOL   H13448176   1.603   7.815   4.162  0.3778 -2.3300 -0.7716
   52MOL   H13548177   1.863   7.736   4.169 -1.0487  0.1487 -0.9124
   52MOL   H13648178   1.793   7.839   4.295 -0.2551 -2.1336  0.6933
   52MOL   H13748179   1.905   0.058   4.173  0.5545  1.3188 -3.6739
   52MOL   H13848180   1.946   7.928   4.051 -0.9048 -0.1861  0.0111
   52MOL   H13948181   2.405   0.104   4.200 -1.2815 -1.6824 -1.4848
   52MOL   H14048182   2.595   0.057   4.339  0.9773 -0.4825 -0.3178
   52MOL   H14148183   2.348   7.791   4.594 -0.8335  1.0431  1.3040
   52MOL   H14248184   2.155   7.818   4.432 -0.7993  0.4732 -0.4382
   52MOL   O14348185   2.801   7.963   4.689  0.4463  0.3971  0.8942
   52MOL   C14448186   2.763   0.085   4.782 -0.3542  0.6979  0.5285
   52MOL   C14548187   2.796   0.028   4.919 -0.1487  0.0616  0.0373
   52MOL   C14648188   2.716   0.095   5.037 -0.4652  0.2441 -0.1659
   52MOL   C14748189   2.754   0.031   5.177 -0.1831 -0.6239  1.2596
   52MOL   C14848190   2.754   0.126   5.297 -0.2183 -0.2208  0.0620
   52MOL   C14948191   2.745   0.053   5.431  0.7412  0.5972  0.2248
   52MOL   C15048192   2.790   0.138   5.547 -0.4128 -0.7048  0.1958
   52MOL   C15148193   2.695   0.257   5.576 -0.0532  0.5131 -0.9902
   52MOL   C15248194   2.552   0.206   5.613 -0.5445 -0.2220 -0.5999
   52MOL   C15348195   2.467   0.309   5.684  0.1931  0.6976  0.3352
   52MOL   O15448196   2.331   0.264   5.674  0.0753  0.4198  0.3963
   52MOL   C15548197   2.235   0.334   5.746 -1.0137  0.3627 -0.0493
   52MOL   O15648198   2.275   0.430   5.811 -0.3362 -0.0565  0.0517
   52MOL   C15748199   2.090   0.279   5.742 -0.0859  0.2266  0.0726
   52MOL   C15848200   1.984   0.357   5.792 -0.8189  0.6954 -0.2299
   52MOL   C15948201   1.853   0.299   5.791  0.0026 -0.9199  0.1223
   52MOL   C16048202   1.832   0.167   5.744 -0.1127 -0.2863  0.3887
   52MOL   C16148203   1.690   0.119   5.739  0.2694 -0.1186 -0.0703
   52MOL   O16248204   1.595   0.177   5.790  0.1603  0.2311  0.0465
   52MOL   O16348205   1.669   0.009   5.665 -0.2423  0.6166  0.7220
   52MOL   C16448206   1.937   0.094   5.683  0.1774 -0.0546  0.5436
   52MOL   C16548207   2.067   0.149   5.688 -0.3273 -0.1847 -0.0202
   52MOL   H16648208   2.817   0.177   4.762 -2.8198  1.8549 -1.1646
   52MOL   H16748209   2.658   0.112   4.774 -0.9622 -1.7905 -0.7074
   52MOL   H16848210   2.905   0.032   4.925 -0.2651  2.1302  1.2476
   52MOL   H16948211   2.764   7.902   4.920 -0.5058  0.1744  0.5085
   52MOL   H17048212   2.746   0.200   5.037 -0.7942  0.3363 -0.2055
   52MOL   H17148213   2.609   0.079   5.026 -0.3830 -0.0089 -0.5957
   52MOL   H17248214   2.857   7.973   5.176  0.2472  0.5954  0.2085
   52MOL   H17348215   2.701   7.916   5.199 -2.5848  0.6410  0.9912
   52MOL   H17448216   2.849   0.179   5.290 -0.0601 -0.5182 -0.0362
   52MOL   H17548217   2.681   0.206   5.285  0.5155  0.4165 -0.1461
   52MOL   H17648218   2.643   0.029   5.461  1.8131 -2.4492  1.6659
   52MOL   H17748219   2.812   7.944   5.428 -0.5700 -0.5278  2.2820
   52MOL   H17848220   2.792   0.079   5.638  2.5523  0.6956  1.1086
   52MOL   H17948221   2.895   0.165   5.532 -0.3576  0.0910  1.9531
   52MOL   H18048222   2.732   0.320   5.657  0.1752  1.9713 -2.2152
   52MOL   H18148223   2.696   0.322   5.489  2.0338  0.3263 -1.1222
   52MOL   H18248224   2.552   0.109   5.661 -1.0059 -0.1534 -0.4547
   52MOL   H18348225   2.512   0.187   5.513 -1.5317 -1.6794  0.0539
   52MOL   H18448226   2.471   0.408   5.637  2.6996  0.1502 -0.7246
   52MOL   H18548227   2.495   0.318   5.789  0.3793  2.7765  0.1455
   52MOL   H18648228   2.008   0.460   5.814 -1.9831  0.8196  0.4881
   52MOL   H18748229   1.773   0.358   5.833  0.2824 -0.5836  0.1905
   52MOL   H18848230   1.915   0.005   5.627 -0.3192  0.4569 -0.0764
   52MOL   H18948231   2.147   0.091   5.643 -2.0216 -0.3912 -2.8497
   52MOL   O19048232   1.532   7.965   5.615  0.2950  0.4861 -0.2754
   52MOL   C19148233   1.521   0.021   5.483 -0.2268 -0.5231  0.4507
   52MOL   C19248234   1.583   7.881   5.406  0.1808  0.8038  0.2007
   52MOL   C19348235   1.557   7.862   5.253 -0.0064  0.3640  0.1673
   52MOL   C19448236   1.413   7.832   5.204  0.4820  0.4038 -0.1284
   52MOL   C19548237   1.416   7.809   5.050  0.4964  0.7932 -0.0237
   52MOL   C19648238   1.274   7.764   4.992  1.0526 -0.5237 -0.5242
   52MOL   C19748239   1.274   7.745   4.841  0.2710 -0.3290 -0.4828
   52MOL   C19848240   1.140   7.691   4.802 -0.0167 -0.0279  0.5278
   52MOL   C19948241   1.128   7.700   4.648 -0.6843 -0.0198  0.8843
   52MOL   C20048242   0.993   7.665   4.585  0.2197  0.2418  0.1296
   52MOL   O20148243   0.967   7.528   4.596 -0.2212  0.1941 -0.0632
   52MOL   C20248244   0.880   7.485   4.694 -0.0531 -0.1400 -0.7733
   52MOL   O20348245   0.843   7.544   4.794 -0.1811  0.1280  0.3124
   52MOL   C20448246   0.833   7.344   4.676  0.0270  0.0941  0.4625
   52MOL   C20548247   0.829   7.288   4.553 -0.0357  0.9346  0.2365
   52MOL   C20648248   0.784   7.155   4.536  0.0853  0.3982  0.5921
   52MOL   C20748249   0.739   7.080   4.644  0.3896 -0.4742  0.6329
   52MOL   C20848250   0.690   6.941   4.615  0.4315 -0.8281 -0.2261
   52MOL   O20948251   0.650   6.904   4.503  0.2643 -0.5082 -0.3925
   52MOL   O21048252   0.682   6.865   4.728  0.7092  0.0485  0.7600
   52MOL   C21148253   0.743   7.135   4.774  0.1738 -0.4896  0.4078
   52MOL   C21248254   0.788   7.268   4.787 -0.0843  0.0860 -0.1455
   52MOL   H21348255   1.418   0.052   5.461 -0.5485 -0.5997  1.7995
   52MOL   H21448256   1.577   0.112   5.462 -1.1766  0.1221  0.6891
   52MOL   H21548257   1.564   7.787   5.459  2.0457  0.5948  0.5442
   52MOL   H21648258   1.691   7.895   5.407  0.0891  1.6338 -1.0036
   52MOL   H21748259   1.585   7.959   5.211  2.2392  0.7621  2.4074
   52MOL   H21848260   1.620   7.779   5.222  1.9533  1.4997  0.9556
   52MOL   H21948261   1.358   7.912   5.252 -0.2694 -0.6878  0.8658
   52MOL   H22048262   1.379   7.740   5.252 -0.1944  0.6069 -0.2095
   52MOL   H22148263   1.443   7.904   5.004  2.2080  0.7195  0.8194
   52MOL   H22248264   1.487   7.735   5.014 -0.9345 -0.9472  0.6709
   52MOL   H22348265   1.260   7.670   5.045  1.4299 -1.4656 -2.0468
   52MOL   H22448266   1.193   7.831   5.022  1.3163 -0.7656  0.7621
   52MOL   H22548267   1.290   7.841   4.791  2.2961 -0.0524  0.6093
   52MOL   H22648268   1.359   7.682   4.813  0.3264 -0.8667  0.8522
   52MOL   H22748269   1.142   7.587   4.835 -1.7254 -0.0131  0.7179
   52MOL   H22848270   1.051   7.738   4.844 -0.9824 -0.4474 -1.0063
   52MOL   H22948271   1.202   7.634   4.602 -1.3450  0.3057 -0.6790
   52MOL   H23048272   1.148   7.803   4.618  0.2423 -0.3168  0.4671
   52MOL   H23148273   1.001   7.681   4.477  0.5597 -1.0875 -0.0601
   52MOL   H23248274   0.923   7.740   4.620  0.4551  0.4310  0.1945
   52MOL   H23348275   0.868   7.347   4.471  2.7851 -1.5685 -0.2820
   52MOL   H23448276   0.778   7.111   4.438  0.9150  2.4853 -0.4184
   52MOL   H23548277   0.702   7.087   4.862  1.0212  0.0359  1.1009
   52MOL   H23648278   0.778   7.302   4.889  1.9720 -0.5761  0.2991
   52MOL   O23748279   0.628   6.717   4.710  0.2774  0.5555 -0.3152
   52MOL   C23848280   0.742   6.631   4.689  0.3214  0.1402 -0.3392
   52MOL   C23948281   0.696   6.492   4.730 -0.9672  0.4844  0.2598
   52MOL   C24048282   0.808   6.393   4.698 -0.4772  0.4625 -0.0972
   52MOL   C24148283   0.798   6.259   4.771 -0.4310 -0.3203 -0.4220
   52MOL   C24248284   0.917   6.167   4.750  0.5365 -0.0539 -0.2853
   52MOL   C24348285   0.908   6.044   4.839 -0.3895 -0.6838 -0.2659
   52MOL   C24448286   1.002   5.924   4.809 -0.4273  0.5100 -0.1539
   52MOL   C24548287   1.148   5.962   4.822 -0.5447  0.6832 -0.2287
   52MOL   C24648288   1.218   5.968   4.956 -0.0941 -0.1667  0.2256
   52MOL   C24748289   1.327   6.084   4.968  0.2477 -0.4220  0.1677
   52MOL   O24848290   1.272   6.210   4.988  0.9623 -0.2846  0.3456
   52MOL   C24948291   1.329   6.300   5.075 -0.0672 -0.2873  0.0437
   52MOL   O25048292   1.431   6.274   5.136  0.2586 -0.2366 -0.6736
   52MOL   C25148293   1.261   6.435   5.084  0.1482 -0.3892 -0.1480
   52MOL   C25248294   1.136   6.464   5.030  0.6065 -0.1913  0.6720
   52MOL   C25348295   1.081   6.596   5.039  0.2057  0.1670 -0.1849
   52MOL   C25448296   1.148   6.698   5.112  0.2669 -0.0358 -0.5889
   52MOL   C25548297   1.087   6.836   5.136 -0.1721 -0.3926 -0.1461
   52MOL   O25648298   1.136   6.922   5.206 -0.4447 -0.2630  0.2236
   52MOL   O25748299   0.979   6.857   5.063  0.1055  0.7757  0.7914
   52MOL   C25848300   1.269   6.666   5.172 -0.1039  0.6349  0.3913
   52MOL   C25948301   1.322   6.538   5.160  0.3929 -0.1304  0.4260
   52MOL   H26048302   0.777   6.652   4.588  2.0679  2.5093  0.6934
   52MOL   H26148303   0.818   6.658   4.763 -1.0408 -1.5440  1.7426
   52MOL   H26248304   0.603   6.455   4.687 -2.0130  0.8527  2.1470
   52MOL   H26348305   0.682   6.479   4.838  1.8489 -0.4694  0.5489
   52MOL   H26448306   0.827   6.382   4.591  1.4457  0.2063  0.2444
   52MOL   H26548307   0.902   6.443   4.723 -0.8919  1.1017  0.1794
   52MOL   H26648308   0.700   6.218   4.746 -0.8352 -0.0360  0.6940
   52MOL   H26748309   0.792   6.277   4.878 -0.6292 -0.2429 -0.4453
   52MOL   H26848310   0.936   6.144   4.645 -0.2536 -1.3169 -0.1642
   52MOL   H26948311   1.004   6.227   4.776  0.1505 -0.0728  1.0862
   52MOL   H27048312   0.892   6.066   4.945  1.7834 -0.2066  0.0005
   52MOL   H27148313   0.806   6.013   4.816 -0.8395  0.9254 -0.5041
   52MOL   H27248314   0.970   5.850   4.883 -1.3478  1.8291  0.7944
   52MOL   H27348315   0.993   5.889   4.706 -0.8230  0.0879  0.0210
   52MOL   H27448316   1.205   5.891   4.762 -1.0754 -0.0184  0.0977
   52MOL   H27548317   1.159   6.059   4.774 -2.7991  1.5565  0.9200
   52MOL   H27648318   1.269   5.873   4.973  1.9091  0.7533 -0.5361
   52MOL   H27748319   1.147   5.973   5.038 -0.7857  1.9016 -0.4661
   52MOL   H27848320   1.390   6.090   4.879 -2.0219  1.6271 -1.3369
   52MOL   H27948321   1.382   6.044   5.053  0.4655 -0.7030 -0.1030
   52MOL   H28048322   1.083   6.384   4.981 -0.8729 -1.7302  4.6058
   52MOL   H28148323   0.998   6.620   4.974 -2.8942 -0.5055  3.3485
   52MOL   H28248324   1.315   6.746   5.228 -0.5670  2.3346 -1.6148
   52MOL   H28348325   1.422   6.523   5.199 -0.1044 -0.3526  1.6230
   52MOL   O28448326   0.935   6.998   5.070 -0.2582  0.1368  0.0483
   52MOL   C28548327   0.811   7.000   5.139  0.5415 -0.5887  0.7278
   52MOL   C28648328   0.776   7.139   5.156  0.4763 -0.8386 -0.1132
   52MOL   C28748329   0.886   7.252   5.169 -0.5084  0.2215  0.6034
   52MOL   C28848330   0.836   7.398   5.181  0.7191  0.6272 -0.3601
   52MOL   C28948331   0.951   7.497   5.173 -0.0339  0.2430  0.6077
   52MOL   C29048332   0.927   7.644   5.178 -0.2757  0.0467 -0.2798
   52MOL   C29148333   0.930   7.709   5.319  0.1699 -0.4302  0.1331
   52MOL   C29248334   1.073   7.719   5.370 -0.2533  0.4107 -0.7146
   52MOL   C29348335   1.079   7.787   5.500 -0.3413  0.3013 -0.2923
   52MOL   C29448336   1.212   7.788   5.573 -0.0907  0.2893  0.4910
   52MOL   O29548337   1.240   7.654   5.612 -0.0704  0.1061 -0.5136
   52MOL   C29648338   1.332   7.624   5.698 -0.7768  0.1741 -0.0081
   52MOL   O29748339   1.394   7.715   5.752 -0.3074  0.1781 -0.5732
   52MOL   C29848340   1.350   7.480   5.727 -0.1167 -0.2100  0.6512
   52MOL   C29948341   1.441   7.432   5.820  0.2634 -0.4167  0.5196
   52MOL   C30048342   1.448   7.295   5.851 -0.6271 -0.1470  0.6009
   52MOL   C30148343   1.371   7.204   5.778  0.0079 -0.1939  0.0548
   52MOL   C30248344   1.380   7.056   5.799 -0.3923  0.7505  0.3321
   52MOL   O30348345   1.345   6.978   5.710  0.6593 -0.1997  0.1512
   52MOL   O30448346   1.421   7.015   5.922 -0.2302  0.1822 -0.7420
   52MOL   C30548347   1.282   7.253   5.677  0.0754  0.0763  0.3408
   52MOL   C30648348   1.272   7.392   5.657  0.7795 -0.0354 -0.0446
   52MOL   H30748349   0.734   6.936   5.095 -0.2303  0.6004  0.3278
   52MOL   H30848350   0.836   6.967   5.240  0.7142  1.1956  1.2791
   52MOL   H30948351   0.730   7.150   5.254 -1.2764  0.1718 -1.0067
   52MOL   H31048352   0.708   7.168   5.075  0.4227 -4.2050 -1.3234
   52MOL   H31148353   0.961   7.224   5.243  0.6848  0.0189 -0.6480
   52MOL   H31248354   0.940   7.257   5.074 -0.2683 -0.2657  0.7127
   52MOL   H31348355   0.798   7.398   5.283  1.2440  1.6150 -0.1608
   52MOL   H31448356   0.758   7.435   5.114 -1.8277  1.2313  2.8219
   52MOL   H31548357   1.027   7.486   5.250 -0.3442  0.7709  0.9820
   52MOL   H31648358   1.003   7.483   5.078  0.7676 -0.9155  1.1965
   52MOL   H31748359   1.005   7.696   5.123 -0.0419 -0.2175 -0.1944
   52MOL   H31848360   0.831   7.658   5.128  0.1325  1.6501 -0.6230
   52MOL   H31948361   0.884   7.808   5.330 -0.6903 -0.7096 -0.8193
   52MOL   H32048362   0.886   7.645   5.395 -0.0557 -0.1404  0.2507
   52MOL   H32148363   1.114   7.622   5.397 -0.3241  0.7764  0.7683
   52MOL   H32248364   1.136   7.779   5.304 -0.2200 -0.3338 -1.3614
   52MOL   H32348365   1.016   7.730   5.568 -0.2007 -1.1501 -1.3392
   52MOL   H32448366   1.037   7.886   5.484  1.6416  1.1963 -0.1727
   52MOL   H32548367   1.215   7.859   5.656  4.2573  0.9737 -0.1328
   52MOL   H32648368   1.291   7.818   5.503  1.8175 -0.8879  2.0838
   52MOL   H32748369   1.502   7.507   5.868 -0.2617  0.6600 -0.4684
   52MOL   H32848370   1.522   7.254   5.919  0.1759 -1.8324 -1.2421
   52MOL   H32948371   1.218   7.194   5.613  0.6559  0.3737 -0.5071
   52MOL   H33048372   1.192   7.422   5.591  0.3910 -1.6076 -0.3265
   52MOL   O33148373   1.472   6.878   5.927 -0.4037 -0.1502  0.2826
   52MOL   C33248374   1.607   6.891   5.913 -0.2874 -0.2330  0.6388
   52MOL   C33348375   1.668   6.940   6.042 -0.4107 -0.2826 -0.8285
   52MOL   C33448376   1.820   6.982   6.027 -0.2373  0.7846  0.7628
   52MOL   C33548377   1.884   7.012   6.158 -0.1853  0.3392  0.5395
   52MOL   C33648378   2.025   7.080   6.153  0.9059  0.2180  0.1725
   52MOL   C33748379   2.086   7.105   6.292  0.0905 -0.3333 -0.3745
   52MOL   C33848380   2.216   7.181   6.285  0.1324 -0.8890  0.0831
   52MOL   C33948381   2.340   7.101   6.239 -0.5180 -0.4084 -0.1314
   52MOL   C34048382   2.457   7.192   6.215 -0.1814 -0.4265  0.0576
   52MOL   C34148383   2.579   7.107   6.168  0.1474  0.5170  0.1727
   52MOL   O34248384   2.621   7.028   6.274  0.2520  0.4818 -0.4180
   52MOL   C34348385   2.745   6.983   6.265  0.3915  0.1166 -0.4614
   52MOL   O34448386   2.815   6.982   6.168 -0.0560  0.0426  0.4123
   52MOL   C34548387   2.790   6.913   6.388 -0.3150 -0.1123  0.0918
   52MOL   C34648388   2.891   6.820   6.386  0.0490 -0.1328 -0.3270
   52MOL   C34748389   2.918   6.735   6.493  0.7267 -0.0507 -0.3998
   52MOL   C34848390   2.841   6.744   6.614  0.5284  0.4316 -0.4164
   52MOL   C34948391   2.865   6.657   6.733 -0.1353 -0.5563 -0.5312
   52MOL   O35048392   2.840   6.693   6.847 -0.1998  0.1581  0.6059
   52MOL   O35148393   2.913   6.539   6.707  0.0982  0.1803  0.0248
   52MOL   C35248394   2.751   6.850   6.620  0.2855 -0.5138  0.1338
   52MOL   C35348395   2.724   6.932   6.509 -0.1239  0.4841 -0.1649
   52MOL   H35448396   1.639   6.791   5.882 -1.7386 -0.4352 -0.2246
   52MOL   H35548397   1.639   6.959   5.835  0.5609  0.3110  1.4449
   52MOL   H35648398   1.652   6.854   6.108  2.1459  0.3025  0.6468
   52MOL   H35748399   1.618   7.025   6.086  1.8948  0.7708 -0.1408
   52MOL   H35848400   1.874   6.897   5.983 -0.8386  0.3586  0.8417
   52MOL   H35948401   1.844   7.062   5.957  0.6541 -0.4752 -0.4256
   52MOL   H36048402   1.882   6.923   6.221 -1.4771 -0.6918 -0.9285
   52MOL   H36148403   1.822   7.083   6.212  0.0431  0.7521  0.2548
   52MOL   H36248404   2.084   7.020   6.083 -0.1505 -0.4595 -0.1576
   52MOL   H36348405   2.011   7.173   6.097  3.1146  1.5274  1.7219
   52MOL   H36448406   2.020   7.165   6.355  0.0230  0.6397 -1.3576
   52MOL   H36548407   2.102   7.009   6.342  2.9309  1.1444  1.7635
   52MOL   H36648408   2.194   7.269   6.225 -0.0089 -1.2793 -0.4448
   52MOL   H36748409   2.240   7.214   6.386 -0.2081 -0.3251 -0.0133
   52MOL   H36848410   2.359   7.031   6.320 -2.9839 -1.5823 -0.5331
   52MOL   H36948411   2.318   7.037   6.154  1.1601  0.8299 -1.5259
   52MOL   H37048412   2.483   7.250   6.304 -0.3398 -0.9201  0.4300
   52MOL   H37148413   2.437   7.259   6.132 -0.2608 -1.8959 -1.1460
   52MOL   H37248414   2.657   7.170   6.126  0.1685  0.1624 -0.3316
   52MOL   H37348415   2.561   7.045   6.081  2.3006 -1.9215  1.3960
   52MOL   H37448416   2.950   6.806   6.297 -2.0793  0.0933 -1.8146
   52MOL   H37548417   2.989   6.654   6.482 -1.3653 -2.3056  1.9837
   52MOL   H37648418   2.695   6.869   6.711  0.6541  3.8212 -0.3959
   52MOL   H37748419   2.648   7.009   6.515 -1.5344 -0.8707 -0.3965
   52MOL   O37848420   2.932   6.442   6.823 -0.2557  0.4729 -0.4344
   52MOL   C37948421   3.062   6.383   6.814  0.6145  0.2979 -0.2826
   52MOL   C38048422   3.059   6.269   6.711  0.9365 -0.0650 -0.3097
   52MOL   C38148423   3.188   6.199   6.662 -0.2781 -0.3118 -0.5686
   52MOL   C38248424   3.162   6.075   6.571  0.0411  0.3960  0.3653
   52MOL   C38348425   3.290   6.005   6.528  0.3298  0.0851 -0.2586
   52MOL   C38448426   3.272   5.898   6.419  0.2900 -0.8510 -0.1759
   52MOL   C38548427   3.396   5.818   6.373 -0.5413  0.6776 -0.1045
   52MOL   C38648428   3.376   5.695   6.282 -0.0075  0.3860  0.1804
   52MOL   C38748429   3.493   5.608   6.274 -0.3863  0.5624  0.8375
   52MOL   C38848430   3.465   5.458   6.216 -0.3604 -0.1787  0.6559
   52MOL   O38948431   3.419   5.460   6.083  0.3100  0.0885  0.0452
   52MOL   C39048432   3.502   5.460   5.978 -0.0010 -0.7092 -0.1504
   52MOL   O39148433   3.623   5.453   5.997 -0.6805 -0.3172  0.2106
   52MOL   C39248434   3.433   5.467   5.848  0.5463 -0.7646 -0.6826
   52MOL   C39348435   3.293   5.461   5.829  0.0017 -0.2756  0.3869
   52MOL   C39448436   3.240   5.455   5.702 -0.1754 -0.0225 -0.2937
   52MOL   C39548437   3.320   5.474   5.587 -0.0460  0.1992  0.1315
   52MOL   C39648438   3.268   5.468   5.447 -0.1633 -0.0873 -0.1059
   52MOL   O39748439   3.338   5.499   5.349  0.7268 -0.4939 -0.0153
   52MOL   O39848440   3.144   5.423   5.445  0.3034  0.1546  0.7209
   52MOL   C39948441   3.460   5.481   5.608  0.0434  0.0868 -0.2103
   52MOL   C40048442   3.516   5.487   5.733  0.0375  0.1962 -0.0776
   52MOL   H40148443   3.139   6.459   6.798 -0.1874  1.3547  0.8277
   52MOL   H40248444   3.077   6.334   6.910 -0.7825 -1.0139 -0.7186
   52MOL   H40348445   3.001   6.297   6.623 -1.6135 -2.9179  0.3747
   52MOL   H40448446   2.997   6.187   6.745 -0.8492  0.3003 -2.5243
   52MOL   H40548447   3.265   6.267   6.625  0.6932 -0.1438  1.7062
   52MOL   H40648448   3.235   6.164   6.754  0.3092  1.4592 -0.1747
   52MOL   H40748449   3.103   6.114   6.488 -2.0576 -1.5885  0.8755
   52MOL   H40848450   3.095   6.008   6.625 -1.3510  2.2272  0.9718
   52MOL   H40948451   3.355   6.079   6.482 -0.5316 -0.3223 -2.1827
   52MOL   H41048452   3.351   5.962   6.608  1.2389  0.1699 -0.8955
   52MOL   H41148453   3.190   5.828   6.436 -1.0754  0.7456  0.0045
   52MOL   H41248454   3.226   5.955   6.338  1.3365  0.5632  0.2147
   52MOL   H41348455   3.478   5.882   6.341 -0.0591  0.2659  0.3094
   52MOL   H41448456   3.435   5.770   6.462 -0.3870  1.6695  0.3698
   52MOL   H41548457   3.297   5.638   6.331 -0.5459  0.3570 -0.7200
   52MOL   H41648458   3.346   5.735   6.185 -0.3074  0.9019  0.4845
   52MOL   H41748459   3.530   5.590   6.375  0.0693 -1.1093  0.3799
   52MOL   H41848460   3.578   5.658   6.227 -2.1404  2.0683 -0.7951
   52MOL   H41948461   3.384   5.421   6.280  1.3221 -1.6238  1.9939
   52MOL   H42048462   3.552   5.393   6.224 -0.0235  0.3174  0.9830
   52MOL   H42148463   3.229   5.450   5.915 -2.6225  2.8007 -1.0546
   52MOL   H42248464   3.135   5.429   5.700  0.0459 -1.2715  2.6168
   52MOL   H42348465   3.528   5.489   5.524 -0.2533 -1.7689 -0.6486
   52MOL   H42448466   3.622   5.503   5.741  0.1915  0.5202 -2.4779
   52MOL   O42548467   3.092   5.407   5.308 -0.0974 -0.1031 -0.6175
   52MOL   C42648468   2.994   5.512   5.290  0.0995  0.4393  0.1491
   52MOL   C42748469   2.858   5.467   5.343  0.8582 -0.0356 -0.1830
   52MOL   C42848470   2.762   5.580   5.341  0.0724 -0.2518  0.1875
   52MOL   C42948471   2.787   5.683   5.452  0.4673 -0.9463 -0.3479
   52MOL   C43048472   2.733   5.618   5.579 -0.0250 -0.6123 -0.3122
   52MOL   C43148473   2.765   5.700   5.707  0.2949  0.1353 -0.2649
   52MOL   C43248474   2.906   5.673   5.754 -0.5786 -0.2772 -0.9588
   52MOL   C43348475   2.929   5.763   5.883 -0.1984  0.2159 -0.5341
   52MOL   C43448476   3.057   5.740   5.961  0.0099 -0.9725 -0.6617
   52MOL   C43548477   3.055   5.811   6.094 -0.5870 -0.4833  0.2374
   52MOL   O43648478   2.979   5.731   6.185 -0.7273 -0.2098  0.7722
   52MOL   C43748479   2.936   5.791   6.295  0.4783  0.0487 -0.0333
   52MOL   O43848480   2.933   5.911   6.304 -0.1469 -0.1783  0.1799
   52MOL   C43948481   2.898   5.697   6.404  0.1305  0.1924 -0.0994
   52MOL   C44048482   2.879   5.561   6.383  0.1972 -0.1471  0.4318
   52MOL   C44148483   2.840   5.477   6.487  0.7506  0.9462  0.6758
   52MOL   C44248484   2.821   5.529   6.614 -0.3964 -0.3055  0.5773
   52MOL   C44348485   2.772   5.439   6.725  0.5645  0.3539  0.3033
   52MOL   O44448486   2.769   5.316   6.718  0.0376  0.3095 -0.6099
   52MOL   O44548487   2.753   5.515   6.835  0.4245  0.1662  0.1769
   52MOL   C44648488   2.842   5.670   6.637 -0.1533 -0.1656  0.4199
   52MOL   C44748489   2.885   5.752   6.532 -0.2228  0.6569 -0.2668
   52MOL   H44848490   3.024   5.606   5.338 -1.5504 -0.5235  3.1669
   52MOL   H44948491   2.974   5.532   5.185 -1.6241  0.2088  0.4269
   52MOL   H45048492   2.867   5.416   5.439 -2.1862  0.8249  0.6029
   52MOL   H45148493   2.815   5.389   5.280 -0.2852  0.4927 -0.0746
   52MOL   H45248494   2.760   5.626   5.242 -0.1323 -3.3838 -1.3185
   52MOL   H45348495   2.667   5.530   5.358 -0.0402 -0.4608 -1.0143
   52MOL   H45448496   2.722   5.769   5.437 -0.7457 -1.6889  0.5277
   52MOL   H45548497   2.891   5.717   5.458  0.8948 -2.4583  1.1357
   52MOL   H45648498   2.624   5.609   5.567  0.0278 -0.2720 -1.1038
   52MOL   H45748499   2.763   5.517   5.608  0.4384 -0.4187 -0.1303
   52MOL   H45848500   2.766   5.807   5.689  1.8675  0.0690 -0.6443
   52MOL   H45948501   2.697   5.690   5.791 -0.2221  0.0325 -0.6934
   52MOL   H46048502   2.916   5.569   5.785 -0.1038  0.3637  1.0937
   52MOL   H46148503   2.983   5.699   5.682  2.1262 -2.2313  1.1404
   52MOL   H46248504   2.907   5.862   5.844  0.0198  0.5016  0.0561
   52MOL   H46348505   2.849   5.754   5.957  0.5371  1.5545  0.4613
   52MOL   H46448506   3.132   5.784   5.895 -1.4343 -0.0472 -1.7268
   52MOL   H46548507   3.079   5.635   5.979  0.5019 -0.5356  1.3858
   52MOL   H46648508   3.007   5.907   6.079  0.7829 -0.0148 -1.3081
   52MOL   H46748509   3.154   5.829   6.135  0.0549 -2.5105 -0.3681
   52MOL   H46848510   2.892   5.530   6.281 -2.4066  1.8334 -0.5626
   52MOL   H46948511   2.839   5.370   6.470 -0.4144  1.2404 -1.2686
   52MOL   H47048512   2.847   5.713   6.735  1.7918  1.8148 -0.4974
   52MOL   H47148513   2.909   5.857   6.537  0.5588  0.5273 -1.2831
   52MOL   O47248514   2.709   5.424   6.948  0.6995 -0.0677  0.7517
   52MOL   C47348515   2.565   5.413   6.945 -0.1075 -0.1518  0.3462
   52MOL   C47448516   2.532   5.320   7.065  0.3752 -0.0169  0.4065
   52MOL   C47548517   2.571   5.180   7.026  0.2865 -0.4264 -0.1275
   52MOL   C47648518   2.539   5.065   7.118  0.9369  0.9963  0.0584
   52MOL   C47748519   2.616   5.057   7.251  0.5936  0.5743  0.8286
   52MOL   C47848520   2.749   4.982   7.244  0.3804  0.5739 -0.1658
   52MOL   C47948521   2.855   5.026   7.146 -0.1319 -0.4072  0.1568
   52MOL   C48048522   2.970   4.928   7.138  0.7382  0.8652 -0.0679
   52MOL   C48148523   3.090   4.972   7.055 -0.0390 -0.0240  0.0033
   52MOL   C48248524   3.181   5.075   7.130 -0.6194  0.0293 -0.0719
   52MOL   O48348525   3.106   5.192   7.161  0.0641 -0.2859  0.3678
   52MOL   C48448526   3.112   5.304   7.084 -0.3830 -0.2644 -0.1694
   52MOL   O48548527   3.181   5.310   6.984 -0.1977 -0.7128  0.1362
   52MOL   C48648528   3.029   5.414   7.139 -0.2628  0.4177  0.5566
   52MOL   C48748529   2.941   5.400   7.247  0.1015  0.0754  0.0681
   52MOL   C48848530   2.852   5.501   7.290 -0.6111 -0.3215 -0.4824
   52MOL   C48948531   2.853   5.619   7.219 -0.0089 -0.1963  0.7437
   52MOL   C49048532   2.756   5.723   7.273  0.8031 -0.2346  0.9988
   52MOL   O49148533   2.671   5.695   7.357  0.0293 -0.5435 -0.0334
   52MOL   O49248534   2.764   5.842   7.205 -0.4581  0.3278 -0.0161
   52MOL   C49348535   2.938   5.638   7.107  0.5142 -0.7337  0.3215
   52MOL   C49448536   3.030   5.540   7.070 -0.3482  0.2402  0.7362
   52MOL   H49548537   2.525   5.514   6.951 -0.3524 -0.2761  0.8588
   52MOL   H49648538   2.533   5.360   6.855 -1.1604 -0.8379  1.1024
   52MOL   H49748539   2.428   5.336   7.093  0.4173  1.5686 -0.2824
   52MOL   H49848540   2.588   5.347   7.154  1.5031  1.0072 -0.5871
   52MOL   H49948541   2.528   5.150   6.931 -2.8820 -0.1233  1.1568
   52MOL   H50048542   2.676   5.194   6.998 -0.0318  3.2250  0.2423
   52MOL   H50148543   2.570   4.970   7.074  0.0529  0.8329 -0.2147
   52MOL   H50248544   2.434   5.047   7.138  0.7567  1.3918 -0.5090
   52MOL   H50348545   2.635   5.158   7.288  0.3209  0.5239  1.1099
   52MOL   H50448546   2.560   5.000   7.324 -1.3768 -2.2161 -2.6937
   52MOL   H50548547   2.798   4.996   7.341  1.8151 -2.4984 -0.4015
   52MOL   H50648548   2.724   4.878   7.228  1.5901  0.1826  0.3979
   52MOL   H50748549   2.819   5.029   7.043  3.0111 -0.9442 -0.9951
   52MOL   H50848550   2.880   5.132   7.151  0.6092 -0.4392 -2.1942
   52MOL   H50948551   3.006   4.913   7.240 -0.6570 -0.9167  0.1993
   52MOL   H51048552   2.938   4.834   7.092 -0.5548  1.0568  0.4030
   52MOL   H51148553   3.065   5.021   6.961 -1.0014 -1.4741 -0.5170
   52MOL   H51248554   3.146   4.883   7.026  1.1706  1.2941 -1.8470
   52MOL   H51348555   3.271   5.105   7.077 -0.9034  0.0319 -0.5535
   52MOL   H51448556   3.212   5.042   7.229 -1.5098 -1.2067 -0.1985
   52MOL   H51548557   2.946   5.312   7.310 -0.6712  0.0002  0.0278
   52MOL   H51648558   2.779   5.479   7.367  0.5098 -0.6024  0.5107
   52MOL   H51748559   2.942   5.727   7.047  3.2086 -0.5444  0.7396
   52MOL   H51848560   3.088   5.556   6.981  0.4603 -2.5162  0.7163
   52MOL   O51948561   2.636   5.914   7.215  0.2009  0.1905  0.2776
   52MOL   C52048562   2.564   5.890   7.095  0.3412 -0.3852  0.0696
   52MOL   C52148563   2.410   5.906   7.125 -0.4520 -0.5313 -0.2054
   52MOL   C52248564   2.332   5.849   7.009  0.0764  0.2543 -0.3225
   52MOL   C52348565   2.193   5.913   7.002  0.9349 -0.2688 -0.5265
   52MOL   C52448566   2.110   5.862   6.883  0.2216 -0.2293  0.2301
   52MOL   C52548567   1.975   5.938   6.872 -0.0365 -0.1469  0.1276
   52MOL   C52648568   1.915   5.913   6.737  0.3522 -0.0037  0.2429
   52MOL   C52748569   1.992   5.983   6.620 -0.2403 -0.6110  0.7156
   52MOL   C52848570   1.917   5.946   6.495  0.3855 -0.2671  0.5218
   52MOL   C52948571   1.940   6.044   6.377 -0.2547 -0.4496  0.9221
   52MOL   O53048572   1.862   6.015   6.260 -0.2959  0.7058  0.4035
   52MOL   C53148573   1.897   6.062   6.129  0.6735 -0.2994 -0.0090
   52MOL   O53248574   1.964   6.166   6.110 -0.2025 -0.0143  0.1442
   52MOL   C53348575   1.824   5.979   6.018 -0.1090 -0.4695 -0.8575
   52MOL   C53448576   1.724   5.888   6.060  0.5075  0.4572  0.3544
   52MOL   C53548577   1.653   5.808   5.963 -0.4303 -0.3626  0.5423
   52MOL   C53648578   1.691   5.817   5.828  0.0722  0.1952 -0.2212
   52MOL   C53748579   1.636   5.727   5.729  0.3922 -0.5181  0.0772
   52MOL   O53848580   1.663   5.738   5.611 -0.3363  0.6057  0.2409
   52MOL   O53948581   1.548   5.637   5.772  0.1180 -0.2604  0.0957
   52MOL   C54048582   1.793   5.912   5.788 -0.0296 -0.1489 -0.8782
   52MOL   C54148583   1.859   5.995   5.884 -0.3678  0.7967  0.5079
   52MOL   H54248584   2.611   5.955   7.020  0.0360  0.3921  0.5429
   52MOL   H54348585   2.578   5.793   7.048  1.5456 -0.9935  1.6544
   52MOL   H54448586   2.388   6.013   7.128  2.4008  0.1023 -0.3576
   52MOL   H54548587   2.387   5.859   7.221  0.8375  0.0154  0.3780
   52MOL   H54648588   2.385   5.876   6.917  2.6322  0.8602  1.2830
   52MOL   H54748589   2.324   5.741   7.006 -1.2158  0.3534 -1.2936
   52MOL   H54848590   2.215   6.019   6.990 -2.7469  0.6532  0.2270
   52MOL   H54948591   2.129   5.907   7.091  2.2264 -0.0916  0.4267
   52MOL   H55048592   2.168   5.852   6.791 -0.3208 -1.6750  0.0322
   52MOL   H55148593   2.082   5.759   6.903 -0.0374  0.1946  2.1252
   52MOL   H55248594   1.919   5.913   6.962 -0.4772  3.4738  0.9561
   52MOL   H55348595   2.008   6.042   6.879  3.2489 -0.9872 -2.0095
   52MOL   H55448596   1.902   5.806   6.722  0.9182  0.0012 -0.3266
   52MOL   H55548597   1.814   5.955   6.740 -0.0298 -0.7684 -1.3337
   52MOL   H55648598   1.976   6.091   6.621  0.2912 -0.5143 -0.7446
   52MOL   H55748599   2.097   5.957   6.614 -0.0212  0.7527 -1.7641
   52MOL   H55848600   1.811   5.926   6.513  0.1834 -0.6955 -1.0868
   52MOL   H55948601   1.949   5.848   6.458  1.0982 -0.4135  1.4899
   52MOL   H56048602   2.046   6.055   6.351 -0.6232  1.6606  0.2217
   52MOL   H56148603   1.906   6.143   6.406  2.4221  0.6337  0.5541
   52MOL   H56248604   1.702   5.878   6.165  2.0787  1.5276  0.8019
   52MOL   H56348605   1.579   5.737   5.998 -1.3674  0.9498  1.2840
   52MOL   H56448606   1.828   5.921   5.686 -0.6999 -0.8513 -1.1780
   52MOL   H56548607   1.935   6.067   5.856 -0.6959  0.9389 -0.0329
   52MOL   O56648608   1.495   5.557   5.658 -0.0612  0.0645 -0.7570
   52MOL   C56748609   1.471   5.431   5.710  1.0822  0.6636  0.1556
   52MOL   C56848610   1.371   5.379   5.610 -0.0968 -0.5415  0.2576
   52MOL   C56948611   1.319   5.248   5.654  0.2686 -0.3122  0.6539
   52MOL   C57048612   1.244   5.168   5.545 -0.3557 -0.3248 -0.2461
   52MOL   C57148613   1.180   5.041   5.591  0.5159  1.1144  0.1004
   52MOL   C57248614   1.066   5.050   5.693  0.1102  0.0682  0.5385
   52MOL   C57348615   0.959   5.159   5.664  0.5006  0.5567 -0.2229
   52MOL   C57448616   0.855   5.167   5.769 -0.4678  0.5476 -0.1822
   52MOL   C57548617   0.762   5.294   5.766  0.0008  0.2061 -0.4997
   52MOL   C57648618   0.636   5.280   5.859  0.6672 -0.9451  0.4340
   52MOL   O57748619   0.557   5.398   5.842  1.2388 -0.3032  0.0660
   52MOL   C57848620   0.456   5.422   5.934 -0.3866  0.3316  0.1420
   52MOL   O57948621   0.433   5.346   6.027  0.1318  0.2399  0.0745
   52MOL   C58048622   0.371   5.541   5.904 -0.1365 -0.9594  0.3263
   52MOL   C58148623   0.382   5.604   5.779 -0.0404  0.2439  0.1305
   52MOL   C58248624   0.296   5.710   5.745 -0.4900 -0.3983  0.0085
   52MOL   C58348625   0.192   5.758   5.831 -0.3065  0.0107 -0.1621
   52MOL   C58448626   0.084   5.853   5.786  0.3372  0.6653  0.0977
   52MOL   O58548627   0.088   5.918   5.681 -0.0122  0.7414 -0.2982
   52MOL   O58648628   7.959   5.859   5.874  0.2284 -0.7895  0.1642
   52MOL   C58748629   0.187   5.690   5.956 -0.6906  0.3144 -0.1234
   52MOL   C58848630   0.272   5.587   5.995 -0.1482 -0.5369 -0.4614
   52MOL   H58948631   1.552   5.358   5.714  0.0921 -0.3928  1.2868
   52MOL   H59048632   1.437   5.443   5.813 -3.0384 -0.3236 -0.9858
   52MOL   H59148633   1.410   5.376   5.509 -0.1336  1.4705  0.1610
   52MOL   H59248634   1.274   5.430   5.612  0.4848  0.5669  0.0797
   52MOL   H59348635   1.397   5.181   5.692  0.1863  0.4325  2.1419
   52MOL   H59448636   1.260   5.266   5.744 -1.8817  0.9108 -0.9665
   52MOL   H59548637   1.317   5.154   5.465 -0.0559  1.9605 -0.4108
   52MOL   H59648638   1.170   5.229   5.491 -1.7086 -1.2463  0.5467
   52MOL   H59748639   1.144   5.004   5.494 -0.7449  1.1755  0.5422
   52MOL   H59848640   1.254   4.966   5.619  1.2410  1.4228 -0.9431
   52MOL   H59948641   1.013   4.956   5.711 -0.1473 -0.1290 -1.2342
   52MOL   H60048642   1.124   5.078   5.781 -0.4271 -0.2659  1.0120
   52MOL   H60148643   1.013   5.253   5.667  0.7613  0.3649  1.3368
   52MOL   H60248644   0.902   5.150   5.571  0.7709  1.0122 -0.4351
   52MOL   H60348645   0.796   5.076   5.773  1.7744 -0.8730  1.9598
   52MOL   H60448646   0.907   5.170   5.865 -1.2457  0.1397  0.2563
   52MOL   H60548647   0.730   5.308   5.662  0.2137  3.8207 -0.1461
   52MOL   H60648648   0.811   5.386   5.797 -2.6362  1.2799  0.6220
   52MOL   H60748649   0.672   5.284   5.962 -0.8592 -1.8390  1.0138
   52MOL   H60848650   0.581   5.190   5.833 -0.1206  0.3050 -2.3751
   52MOL   H60948651   0.456   5.562   5.711  0.8455 -0.1781  1.3365
   52MOL   H61048652   0.307   5.750   5.646 -1.1252 -0.2823 -0.0161
   52MOL   H61148653   0.111   5.722   6.027  0.5243  2.1204  0.4148
   52MOL   H61248654   0.265   5.547   6.095  0.5609  0.5947  0.0502
   52MOL   O61348655   7.835   5.928   5.822 -0.2791  0.8563 -0.2763
   52MOL   C61448656   7.734   5.821   5.816 -0.0763 -0.0552  0.3964
   52MOL   C61548657   7.595   5.875   5.764  0.2831  0.3401 -0.0442
   52MOL   C61648658   7.494   5.762   5.717 -0.0528 -0.3055 -0.7502
   52MOL   C61748659   7.357   5.808   5.660  0.4896  0.9666  0.2204
   52MOL   C61848660   7.364   5.878   5.516 -0.4381  0.6301 -0.0033
   52MOL   C61948661   7.235   5.952   5.470  0.1659  0.0583  0.5986
   52MOL   C62048662   7.113   5.868   5.433  0.4956 -0.3024 -0.1423
   52MOL   C62148663   7.003   5.834   5.533 -0.3643  0.0561  0.1579
   52MOL   C62248664   6.886   5.756   5.475 -1.0625  0.2755  0.0863
   52MOL   C62348665   6.771   5.714   5.565  0.2009  0.2136  0.4105
   52MOL   O62448666   6.704   5.826   5.615  0.4251  0.2030 -0.1046
   52MOL   C62548667   6.642   5.814   5.730  0.2143 -0.6685 -0.1057
   52MOL   O62648668   6.583   5.710   5.756  0.1110  0.2479 -0.1424
   52MOL   C62748669   6.648   5.928   5.823  0.6319 -0.8722  0.4408
   52MOL   C62848670   6.599   5.924   5.955 -0.2500  0.1412  0.2150
   52MOL   C62948671   6.614   6.034   6.041 -0.1678 -0.7196 -0.1497
   52MOL   C63048672   6.691   6.151   6.000  0.2725 -0.7472  0.3357
   52MOL   C63148673   6.724   6.260   6.095 -0.0616 -0.0249  0.1243
   52MOL   O63248674   6.676   6.276   6.206  0.2211  0.0440  0.3418
   52MOL   O63348675   6.829   6.334   6.059  0.3023 -0.4725  0.4751
   52MOL   C63448676   6.740   6.152   5.866 -0.4652 -0.8855 -0.4755
   52MOL   C63548677   6.713   6.049   5.778 -0.5893  0.6677  0.0232
   52MOL   H63648678   7.756   5.733   5.756  0.1009 -0.1885  0.6563
   52MOL   H63748679   7.730   5.777   5.916 -0.1282 -0.5633  0.1731
   52MOL   H63848680   7.621   5.936   5.677 -2.1165  1.6808  0.1157
   52MOL   H63948681   7.552   5.943   5.838  1.5525 -0.1294  1.1296
   52MOL   H64048682   7.553   5.702   5.647  0.8299  1.6847 -1.7597
   52MOL   H64148683   7.467   5.699   5.801  2.0590 -0.0040  0.1729
   52MOL   H64248684   7.314   5.886   5.722  0.6185  1.8074 -0.7292
   52MOL   H64348685   7.285   5.726   5.655 -2.1116  3.1153  1.2360
   52MOL   H64448686   7.456   5.936   5.517  0.1880 -0.3607  1.1747
   52MOL   H64548687   7.376   5.797   5.444 -0.6184 -0.3581  1.0717
   52MOL   H64648688   7.214   6.040   5.530  0.2510  0.5039 -0.0263
   52MOL   H64748689   7.276   5.991   5.377 -0.4599  2.0823  1.1508
   52MOL   H64848690   7.060   5.926   5.357 -0.8859 -3.3350 -1.5586
   52MOL   H64948691   7.150   5.777   5.386 -2.2352 -0.4578 -2.1139
   52MOL   H65048692   7.051   5.788   5.619  1.9067  0.0100 -1.1145
   52MOL   H65148693   6.956   5.926   5.568 -1.0709 -1.3477  3.0047
   52MOL   H65248694   6.928   5.662   5.437 -0.1213  0.0803  1.5564
   52MOL   H65348695   6.851   5.811   5.388 -0.8911  0.2779  0.0173
   52MOL   H65448696   6.812   5.653   5.645  0.9808 -0.4288 -0.4546
   52MOL   H65548697   6.700   5.656   5.505 -0.9612 -0.3695  2.3027
   52MOL   H65648698   6.569   5.825   5.986 -0.7161  0.3408  0.4058
   52MOL   H65748699   6.575   6.027   6.142 -0.4230  0.1354 -0.1777
   52MOL   H65848700   6.813   6.226   5.834 -1.8003  0.9119  0.5567
   52MOL   H65948701   6.766   6.051   5.684  1.9752  1.0111  1.4180
   52MOL   O66048702   6.857   6.463   6.141 -0.5120 -0.1373  0.4470
   52MOL   C66148703   6.990   6.446   6.205  0.2184 -0.3680  0.2208
   52MOL   C66248704   7.020   6.569   6.289 -0.1989  0.2243  0.3813
   52MOL   C66348705   6.945   6.569   6.422 -0.4118 -0.6614 -0.1667
   52MOL   C66448706   6.962   6.690   6.516  0.3649 -0.7070  0.0759
   52MOL   C66548707   6.825   6.755   6.554 -0.1206  0.3258 -0.2914
   52MOL   C66648708   6.727   6.657   6.633  0.0870 -0.5900 -0.4284
   52MOL   C66748709   6.785   6.626   6.769 -0.3079 -0.1397  0.1580
   52MOL   C66848710   6.719   6.507   6.843  0.4322  0.1238 -0.1481
   52MOL   C66948711   6.784   6.476   6.986 -0.2386 -0.0059 -0.5034
   52MOL   C67048712   6.733   6.357   7.060  0.2893 -0.2167  0.8106
   52MOL   O67148713   6.601   6.377   7.118  0.7826  0.0891 -0.3163
   52MOL   C67248714   6.493   6.317   7.072  0.4457 -0.3227 -0.3354
   52MOL   O67348715   6.493   6.223   7.000 -0.5544  0.2002  0.3833
   52MOL   C67448716   6.367   6.388   7.121 -0.5342 -0.8731 -0.3180
   52MOL   C67548717   6.367   6.476   7.233  0.1874  0.1400 -0.5318
   52MOL   C67648718   6.245   6.527   7.292 -0.7765 -0.1082  0.0477
   52MOL   C67748719   6.125   6.489   7.229 -0.5435  0.6084 -0.7651
   52MOL   C67848720   5.997   6.534   7.297 -0.2788  0.7730  0.5208
   52MOL   O67948721   5.993   6.548   7.418 -0.0104 -0.4450 -0.0301
   52MOL   O68048722   5.885   6.542   7.215  0.0061  0.3697  0.0197
   52MOL   C68148723   6.120   6.409   7.113 -0.1423 -0.1784  0.2939
   52MOL   C68248724   6.241   6.358   7.054 -1.0812 -0.3409 -0.6464
   52MOL   H68348725   7.000   6.350   6.256  0.1903  0.2002  1.2972
   52MOL   H68448726   7.058   6.449   6.119  0.9763  0.1185  0.8341
   52MOL   H68548727   6.995   6.656   6.229 -1.4614  0.0339  0.6210
   52MOL   H68648728   7.125   6.560   6.319  0.0000  2.5012  0.4755
   52MOL   H68748729   6.841   6.545   6.397 -0.3427 -1.5308  0.3799
   52MOL   H68848730   6.964   6.480   6.482 -0.4583 -1.4141 -1.2447
   52MOL   H68948731   7.019   6.770   6.469  0.0988 -0.7708 -0.3568
   52MOL   H69048732   7.019   6.660   6.604  1.6957  1.5168 -0.0051
   52MOL   H69148733   6.846   6.848   6.607  0.7406  0.7109 -1.2933
   52MOL   H69248734   6.774   6.792   6.465  1.3004 -0.2312 -1.3676
   52MOL   H69348735   6.624   6.694   6.635 -0.5687 -2.3215 -1.1693
   52MOL   H69448736   6.717   6.568   6.571 -1.1811 -1.1722  0.5657
   52MOL   H69548737   6.890   6.598   6.760  0.1954  1.9332 -0.6701
   52MOL   H69648738   6.783   6.714   6.833 -0.6144 -0.2166  0.2523
   52MOL   H69748739   6.612   6.526   6.852  0.0916 -0.9448 -1.7367
   52MOL   H69848740   6.728   6.421   6.777  0.4536  1.2731 -1.6663
   52MOL   H69948741   6.774   6.568   7.044 -1.4560 -0.4086 -0.0491
   52MOL   H70048742   6.889   6.454   6.969 -0.8411 -2.5913 -1.2149
   52MOL   H70148743   6.796   6.316   7.139  1.5154 -3.7305 -1.8340
   52MOL   H70248744   6.728   6.275   6.987  0.4906  1.1412 -0.7565
   52MOL   H70348745   6.461   6.501   7.280  0.1515 -0.8116  0.0701
   52MOL   H70448746   6.240   6.596   7.375  1.3312 -0.3962  0.4441
   52MOL   H70548747   6.029   6.387   7.060  0.0058 -0.2151  0.0546
   52MOL   H70648748   6.241   6.288   6.972 -0.1709 -1.4589  0.2969
   52MOL   O70748749   5.756   6.526   7.295  0.1233  0.1952 -0.0688
   52MOL   C70848750   5.709   6.657   7.328  0.2923  0.1036  0.7247
   52MOL   C70948751   5.634   6.716   7.202 -0.1616 -0.0272 -0.3813
   52MOL   C71048752   5.576   6.855   7.239  0.5746 -0.0165  0.2263
   52MOL   C71148753   5.507   6.918   7.119  0.5140 -0.3333  0.0350
   52MOL   C71248754   5.388   6.850   7.061 -0.1959  0.2703  0.3732
   52MOL   C71348755   5.425   6.749   6.946 -0.0083  0.1891 -0.3732
   52MOL   C71448756   5.315   6.648   6.925  0.4168  0.0589  0.3531
   52MOL   C71548757   5.337   6.559   6.804  0.3797 -0.3002  0.5140
   52MOL   C71648758   5.237   6.453   6.790 -0.2630  0.2521  0.3992
   52MOL   C71748759   5.271   6.360   6.669  0.1208  0.1613 -0.7240
   52MOL   O71848760   5.154   6.288   6.637  0.1120  0.0144  0.2278
   52MOL   C71948761   5.142   6.203   6.537 -0.4368 -0.9892 -0.3196
   52MOL   O72048762   5.235   6.161   6.462  0.3759 -0.4568 -0.0215
   52MOL   C72148763   5.000   6.169   6.502 -0.4099  0.2114  0.4624
   52MOL   C72248764   4.964   6.121   6.377  0.3616 -0.0781 -0.3519
   52MOL   C72348765   4.829   6.094   6.353 -0.7134  0.9263 -0.2425
   52MOL   C72448766   4.723   6.122   6.447  0.4973 -0.5245  0.1030
   52MOL   C72548767   4.585   6.073   6.425  0.9299  0.5257 -0.3325
   52MOL   O72648768   4.544   6.009   6.327  0.8029 -0.1280  0.5180
   52MOL   O72748769   4.502   6.128   6.515  0.3564 -0.5818  0.0780
   52MOL   C72848770   4.766   6.155   6.576  0.2836 -0.0084  0.6041
   52MOL   C72948771   4.904   6.184   6.604  0.1825  0.3313 -0.2749
   52MOL   H73048772   5.638   6.647   7.410 -0.0355  0.5899  0.5060
   52MOL   H73148773   5.787   6.717   7.374  1.6303  0.2838 -1.6870
   52MOL   H73248774   5.538   6.667   7.185 -0.0625 -0.3578 -0.0005
   52MOL   H73348775   5.687   6.722   7.106  1.4495 -1.4791  0.3911
   52MOL   H73448776   5.492   6.851   7.309 -0.4552  2.2870 -0.8357
   52MOL   H73548777   5.654   6.915   7.285  0.5868 -0.4965  0.8383
   52MOL   H73648778   5.583   6.932   7.042  0.2539 -0.5615 -0.2636
   52MOL   H73748779   5.490   7.023   7.142 -1.1953 -0.6073  0.0676
   52MOL   H73848780   5.326   6.806   7.139 -1.0049  2.1598  0.8484
   52MOL   H73948781   5.334   6.919   6.996 -0.0431 -0.3352 -0.3870
   52MOL   H74048782   5.443   6.803   6.853  2.4417 -0.4012 -0.2592
   52MOL   H74148783   5.517   6.697   6.970 -0.2286  0.2877  0.7234
   52MOL   H74248784   5.289   6.588   7.013 -2.4921  0.4826 -0.1631
   52MOL   H74348785   5.224   6.705   6.903 -0.5713 -1.6538 -0.0977
   52MOL   H74448786   5.356   6.610   6.710  0.7984 -1.9582 -0.3331
   52MOL   H74548787   5.428   6.503   6.828  0.9467  0.0924 -0.6870
   52MOL   H74648788   5.133   6.486   6.785 -0.3739  0.3268  2.6367
   52MOL   H74748789   5.245   6.396   6.883  0.0586  0.4473  0.4926
   52MOL   H74848790   5.358   6.300   6.695 -1.8481 -2.0747  0.8736
   52MOL   H74948791   5.310   6.409   6.579  1.8698 -1.0140 -0.6173
   52MOL   H75048792   5.038   6.110   6.300 -0.0918  2.1474 -1.1486
   52MOL   H75148793   4.801   6.058   6.255  0.1716 -1.3185  0.2987
   52MOL   H75248794   4.706   6.171   6.665 -0.9235  1.2728 -0.4316
   52MOL   H75348795   4.932   6.208   6.705  0.7913 -1.2277 -0.0476
   52MOL   O75448796   4.359   6.105   6.465  0.4111 -0.0848  0.1218
   52MOL   C75548797   4.314   5.993   6.523  0.6022  0.0260 -0.5896
   52MOL   C75648798   4.164   6.004   6.569  0.0999  0.3414  0.0993
   52MOL   C75748799   4.062   6.000   6.456  0.5916 -0.6056  0.3769
   52MOL   C75848800   3.922   6.043   6.500 -0.4552  0.7040  0.1255
   52MOL   C75948801   3.823   6.034   6.385  0.4261 -0.6516  0.3610
   52MOL   C76048802   3.679   6.075   6.428 -0.6056 -0.8432 -0.1512
   52MOL   C76148803   3.649   6.223   6.462 -0.3178 -0.5595  0.4423
   52MOL   C76248804   3.663   6.311   6.341  0.6150 -0.2149  0.4832
   52MOL   C76348805   3.596   6.449   6.369  0.6416  0.0032  0.4320
   52MOL   C76448806   3.600   6.541   6.246 -0.1812 -0.1044 -0.0548
   52MOL   O76548807   3.512   6.652   6.267 -0.1722 -0.2037  0.0693
   52MOL   C76648808   3.408   6.681   6.180  0.4287  0.3249 -0.5279
   52MOL   O76748809   3.384   6.604   6.088  0.4346 -0.5541  0.2951
   52MOL   C76848810   3.339   6.807   6.206 -0.4744 -0.1021 -0.1673
   52MOL   C76948811   3.243   6.870   6.117 -0.4296  0.5450  0.1276
   52MOL   C77048812   3.172   6.987   6.147  0.5108  0.0406 -0.4657
   52MOL   C77148813   3.205   7.062   6.262  0.8545  0.0711 -0.7370
   52MOL   C77248814   3.142   7.192   6.292  0.2323  0.9364 -0.3601
   52MOL   O77348815   3.086   7.265   6.207  0.5257  0.1062  0.3604
   52MOL   O77448816   3.167   7.222   6.419  0.9431 -0.6419  0.2800
   52MOL   C77548817   3.300   7.003   6.355 -0.0281  0.3679 -0.2319
   52MOL   C77648818   3.369   6.881   6.329  0.6197  0.1646  0.1524
   52MOL   H77748819   4.321   5.922   6.441 -0.2956  1.3284 -1.8227
   52MOL   H77848820   4.376   5.968   6.609 -1.0443  1.5134  1.0685
   52MOL   H77948821   4.145   6.093   6.629 -3.4332  0.2678 -0.8407
   52MOL   H78048822   4.143   5.922   6.638  1.0355 -0.1130 -0.1485
   52MOL   H78148823   4.089   6.064   6.372  1.2835 -1.6224 -0.1861
   52MOL   H78248824   4.058   5.898   6.419  0.6702 -0.9292  1.2455
   52MOL   H78348825   3.928   6.147   6.533 -0.0928  0.9149 -0.5940
   52MOL   H78448826   3.885   5.992   6.589  1.3667  2.2493  1.8199
   52MOL   H78548827   3.860   6.098   6.305 -1.1936 -1.2586 -0.8925
   52MOL   H78648828   3.823   5.928   6.359  1.1790 -0.6529  0.3454
   52MOL   H78748829   3.602   6.042   6.358 -0.7037  0.3755 -0.6328
   52MOL   H78848830   3.656   6.021   6.520  1.5311  0.2253  1.0516
   52MOL   H78948831   3.552   6.249   6.505 -0.9494  1.1162 -1.8872
   52MOL   H79048832   3.721   6.254   6.538 -0.6783  0.4521  0.3826
   52MOL   H79148833   3.765   6.337   6.311 -0.1246 -0.0210 -1.9754
   52MOL   H79248834   3.616   6.271   6.251  0.3730  0.8766  0.1103
   52MOL   H79348835   3.637   6.506   6.452  2.0562  0.0877 -0.3058
   52MOL   H79448836   3.494   6.433   6.406  0.9851  1.6136  2.1300
   52MOL   H79548837   3.568   6.478   6.163  0.0491 -1.3120  0.7593
   52MOL   H79648838   3.699   6.577   6.221 -1.1573  1.1688 -2.1439
   52MOL   H79748839   3.222   6.819   6.024 -0.1571 -1.7333  1.2640
   52MOL   H79848840   3.106   7.034   6.076 -0.0772  1.0207  0.7167
   52MOL   H79948841   3.331   7.049   6.448  0.4668  2.1573 -1.2734
   52MOL   H80048842   3.432   6.837   6.405 -0.7426 -1.4738  0.3817
   52MOL   O80148843   3.122   7.360   6.458  0.1048  0.3891  0.0675
   52MOL   C80248844   3.005   7.347   6.539 -0.4180  0.1865 -0.1293
   52MOL   C80348845   2.885   7.279   6.466 -0.3750 -0.3450  0.3371
   52MOL   C80448846   2.749   7.285   6.543 -0.2319  0.4929 -0.1132
   52MOL   C80548847   2.705   7.412   6.608  0.6980 -0.1966 -0.7962
   52MOL   C80648848   2.551   7.435   6.614 -0.7604  0.2868 -0.0857
   52MOL   C80748849   2.475   7.319   6.676  0.5758 -0.0218  0.4233
   52MOL   C80848850   2.331   7.351   6.701 -0.3922 -0.2432 -0.4593
   52MOL   C80948851   2.250   7.229   6.743 -0.1413 -0.5065  0.1829
   52MOL   C81048852   2.300   7.173   6.874  0.4609  0.0824  0.1440
   52MOL   C81148853   2.194   7.069   6.928  0.9895  0.1889  0.6913
   52MOL   O81248854   2.232   7.019   7.065 -0.6822  0.0117 -0.1590
   52MOL   C81348855   2.217   6.889   7.095 -0.0774  0.1538 -0.3505
   52MOL   O81448856   2.186   6.792   7.025 -0.3042 -0.6495 -0.9720
   52MOL   C81548857   2.255   6.868   7.236 -0.0431 -0.1115 -0.0234
   52MOL   C81648858   2.228   6.960   7.339 -0.0964  0.1874  0.0117
   52MOL   C81748859   2.281   6.934   7.469  0.1746  0.7795  0.5958
   52MOL   C81848860   2.354   6.815   7.501  0.1610  0.3915 -0.1811
   52MOL   C81948861   2.403   6.783   7.643 -0.6240 -0.0377  0.8110
   52MOL   O82048862   2.427   6.669   7.686 -0.0967 -0.3567 -0.5736
   52MOL   O82148863   2.420   6.894   7.707  0.6526 -0.5729  0.4020
   52MOL   C82248864   2.348   6.716   7.404  0.2009 -0.2409 -0.1824
   52MOL   C82348865   2.303   6.739   7.274  0.1401 -0.8919 -0.1958
   52MOL   H82448866   3.039   7.295   6.629 -0.6178 -0.9251 -0.6836
   52MOL   H82548867   2.980   7.449   6.569 -0.0987  0.6689 -1.4936
   52MOL   H82648868   2.907   7.175   6.442  2.7064  0.6190 -1.1887
   52MOL   H82748869   2.869   7.331   6.372  0.0500 -0.5377  0.1618
   52MOL   H82848870   2.672   7.265   6.468  1.0177 -3.0557 -0.5498
   52MOL   H82948871   2.742   7.198   6.608 -0.3985  2.1793  2.1719
   52MOL   H83048872   2.754   7.500   6.566 -0.4603 -0.1182 -1.9913
   52MOL   H83148873   2.738   7.424   6.712  1.9289  1.7847 -1.4015
   52MOL   H83248874   2.534   7.523   6.676 -0.6397 -0.0826  0.4710
   52MOL   H83348875   2.510   7.449   6.514 -0.0305 -1.3284 -0.6270
   52MOL   H83448876   2.482   7.228   6.617  1.2508  1.0554 -1.1711
   52MOL   H83548877   2.523   7.286   6.769 -1.4960 -0.1118  1.5096
   52MOL   H83648878   2.316   7.437   6.766  0.5343  0.6910 -1.4764
   52MOL   H83748879   2.301   7.393   6.606  4.8018 -0.1814 -2.1996
   52MOL   H83848880   2.149   7.268   6.752  0.6131  1.6624 -0.5851
   52MOL   H83948881   2.252   7.159   6.660 -0.9539  0.4408 -0.6465
   52MOL   H84048882   2.313   7.262   6.936 -0.3962  0.8992 -0.8456
   52MOL   H84148883   2.396   7.123   6.857  0.8432  1.3162 -1.4278
   52MOL   H84248884   2.173   6.993   6.853  1.2113  2.1020 -1.3686
   52MOL   H84348885   2.094   7.113   6.940  0.3158 -1.1011 -0.0834
   52MOL   H84448886   2.182   7.057   7.325 -1.3593 -0.2842  0.7913
   52MOL   H84548887   2.268   7.013   7.541 -0.6696  1.5542 -0.3932
   52MOL   H84648888   2.375   6.616   7.432 -1.8806 -1.7319 -3.1819
   52MOL   H84748889   2.296   6.654   7.207 -1.0727 -0.6424 -0.3941
   52MOL   O84848890   2.476   6.873   7.844 -0.3146  0.1529 -0.3302
   52MOL   C84948891   2.619   6.865   7.846 -0.0512  0.5577  0.2561
   52MOL   C85048892   2.667   6.848   0.013  0.0061 -0.8406  0.2537
   52MOL   C85148893   2.814   6.807   0.018 -0.3204 -0.0931 -0.5154
   52MOL   C85248894   2.857   6.771   0.161  0.3075 -0.4476  0.1833
   52MOL   C85348895   3.005   6.734   0.173 -0.1276 -0.8409  0.1720
   52MOL   C85448896   3.054   6.721   0.326 -0.6159 -0.0877 -0.3216
   52MOL   C85548897   3.162   6.619   0.352 -0.2514 -0.1158 -0.2279
   52MOL   C85648898   3.298   6.672   0.287 -0.5921 -0.0257 -0.1851
   52MOL   C85748899   3.429   6.590   0.308  0.1974 -0.0887 -0.0175
   52MOL   C85848900   3.552   6.651   0.241 -0.0838 -0.8333  0.6106
   52MOL   O85948901   3.672   6.577   0.265 -0.2029 -0.3163 -0.4598
   52MOL   C86048902   3.746   6.559   0.385 -0.2444 -0.0051  0.6349
   52MOL   O86148903   3.716   6.614   0.487 -1.0270 -0.2938  0.1995
   52MOL   C86248904   3.870   6.476   0.364  0.5589 -0.6020 -0.0554
   52MOL   C86348905   3.926   6.452   0.236  0.2141 -0.3588  0.1132
   52MOL   C86448906   4.044   6.385   0.220  0.3120  0.4360 -0.1579
   52MOL   C86548907   4.117   6.325   0.327  0.0086  0.6657 -0.1136
   52MOL   C86648908   4.245   6.258   0.305  0.1074  0.2018  0.8172
   52MOL   O86748909   4.307   6.196   0.397  0.0647  0.2887 -0.0488
   52MOL   O86848910   4.277   6.251   0.176  0.0941  0.5290 -0.4273
   52MOL   C86948911   4.051   6.332   0.451 -0.0142 -0.2630 -0.3967
   52MOL   C87048912   3.933   6.406   0.472  0.0259  0.0359 -0.3926
   52MOL   H87148913   2.639   6.771   7.795 -0.6825 -0.1615  1.3170
   52MOL   H87248914   2.668   6.955   7.808 -0.0661  0.0450 -0.9691
   52MOL   H87348915   2.609   6.783   0.079 -0.3144 -1.4191 -0.5925
   52MOL   H87448916   2.663   6.947   0.059 -1.3055 -0.1009 -1.3924
   52MOL   H87548917   2.844   6.735   7.920  1.0963  1.1715 -1.1957
   52MOL   H87648918   2.864   6.897   7.959 -1.3111  0.7860  0.2503
   52MOL   H87748919   2.800   6.691   0.208 -1.4120  0.6113 -0.0461
   52MOL   H87848920   2.845   6.856   0.228  1.1547 -0.9136  0.9306
   52MOL   H87948921   3.016   6.643   0.115 -0.2517  0.6658 -2.2886
   52MOL   H88048922   3.068   6.808   0.123 -1.8376  0.8767  0.5145
   52MOL   H88148923   3.079   6.819   0.366  2.2443 -1.5057  1.5175
   52MOL   H88248924   2.971   6.690   0.389  0.8610 -0.3780  1.5277
   52MOL   H88348925   3.176   6.619   0.460 -0.3888 -0.8705 -0.2059
   52MOL   H88448926   3.132   6.519   0.318 -0.0758  0.3914 -1.9198
   52MOL   H88548927   3.280   6.681   0.179  1.8649  0.4832 -0.5902
   52MOL   H88648928   3.309   6.773   0.325 -1.0453 -0.1605  0.2975
   52MOL   H88748929   3.414   6.491   0.265  0.5988 -0.6692  1.1602
   52MOL   H88848930   3.442   6.576   0.415  2.0492  0.6807 -0.1331
   52MOL   H88948931   3.560   6.759   0.244  2.4633 -0.9732 -0.1131
   52MOL   H89048932   3.545   6.632   0.134  3.2755  1.7678 -0.1635
   52MOL   H89148933   3.869   6.477   0.148 -2.2913 -1.8147  1.2592
   52MOL   H89248934   4.063   6.373   0.114  0.8123 -2.5046  0.2391
   52MOL   H89348935   4.104   6.300   0.540  0.6054  0.5684 -0.4644
   52MOL   H89448936   3.894   6.411   0.572  0.5654 -1.6213 -0.0867
   52MOL   O89548937   4.396   6.161   0.144  0.5341  0.7798  0.0966
   52MOL   C89648938   4.339   6.034   0.119  0.1814 -0.0697  0.0328
   52MOL   C89748939   4.294   5.996   7.954 -0.4224  0.3094  0.2553
   52MOL   C89848940   4.164   6.066   7.911 -0.4954 -0.2311  0.1251
   52MOL   C89948941   4.128   6.037   7.762 -0.5551  0.8498  0.6027
   52MOL   C90048942   4.140   6.151   7.659 -0.3334  0.2159  0.5045
   52MOL   C90148943   4.289   6.207   7.667 -0.5569  0.1148  0.0406
   52MOL   C90248944   4.326   6.310   7.565  0.1409  0.0839 -0.1458
   52MOL   C90348945   4.454   6.385   7.606 -0.5819  0.4758  0.4394
   52MOL   C90448946   4.499   6.469   7.485 -0.5502  0.1910 -0.2227
   52MOL   C90548947   4.630   6.537   7.521 -0.2842 -0.8381 -0.3093
   52MOL   O90648948   4.722   6.436   7.523  0.2343  0.2984 -0.2733
   52MOL   C90748949   4.850   6.457   7.546  0.1536  0.2024  0.2948
   52MOL   O90848950   4.905   6.571   7.548  0.0497  0.3268 -0.1298
   52MOL   C90948951   4.916   6.326   7.562  0.0649 -0.8817 -0.6316
   52MOL   C91048952   4.836   6.217   7.600  0.1928  0.5119 -0.1053
   52MOL   C91148953   4.903   6.096   7.637 -0.0433 -0.4801 -0.2486
   52MOL   C91248954   5.048   6.076   7.617  0.2804  0.5444 -0.3029
   52MOL   C91348955   5.109   5.940   7.629  0.1348 -0.6128 -0.2417
   52MOL   O91448956   5.042   5.850   7.674  0.3865  0.0637 -0.5839
   52MOL   O91548957   5.241   5.929   7.595 -0.5608 -0.4076 -0.1771
   52MOL   C91648958   5.114   6.185   7.563 -0.3277  0.8110 -0.6648
   52MOL   C91748959   5.053   6.310   7.554 -0.0541 -0.3003  0.3755
   52MOL   H91848960   4.408   5.960   0.161 -0.8320 -1.6722 -1.1330
   52MOL   H91948961   4.258   6.025   0.192  1.5131 -3.2258  1.1889
   52MOL   H92048962   4.281   5.889   7.943  0.5872  0.4308 -2.6498
   52MOL   H92148963   4.379   6.017   7.889 -0.8681  1.3894  0.0031
   52MOL   H92248964   4.086   6.038   0.003  0.1641 -0.2322  0.8570
   52MOL   H92348965   4.182   6.172   7.930  2.9570 -0.6939 -0.1803
   52MOL   H92448966   4.025   6.001   7.765 -0.3446  0.3360  1.8174
   52MOL   H92548967   4.193   5.953   7.738 -1.7350  0.0606  0.1765
   52MOL   H92648968   4.122   6.112   7.559  0.9676 -0.4180  0.5070
   52MOL   H92748969   4.069   6.232   7.677  1.6913  2.1280  0.0685
   52MOL   H92848970   4.302   6.242   7.770 -2.4062 -0.6668  0.5565
   52MOL   H92948971   4.364   6.128   7.665 -1.1575 -0.4203 -2.0487
   52MOL   H93048972   4.356   6.258   7.474  1.4538 -0.2804  0.4827
   52MOL   H93148973   4.246   6.381   7.546  0.3741 -0.1204 -1.9919
   52MOL   H93248974   4.427   6.448   7.691 -3.6808 -1.1922  0.7290
   52MOL   H93348975   4.540   6.326   7.639  1.1584  3.2556  1.0809
   52MOL   H93448976   4.420   6.544   7.474 -0.4430  0.6763  2.2258
   52MOL   H93548977   4.510   6.424   7.386 -0.9553 -0.7116  0.1351
   52MOL   H93648978   4.624   6.594   7.613  0.1739  0.6896 -1.2102
   52MOL   H93748979   4.657   6.609   7.444 -1.5239  0.6620  0.6288
   52MOL   H93848980   4.729   6.211   7.611  0.3528 -0.2766  1.1183
   52MOL   H93948981   4.849   6.006   7.663  2.0269 -2.2308 -1.7960
   52MOL   H94048982   5.220   6.175   7.545 -0.0848  0.4845  0.8714
   52MOL   H94148983   5.114   6.389   7.512  0.1981 -0.6773  0.0237
   52MOL   H94248984   5.272   5.840   7.593  1.7361  0.3907 -0.8515
   53MOL     O148985   7.918   5.056   7.537  0.3492  0.2945  0.0066
   53MOL     C248986   7.835   5.158   7.476  0.7582 -0.1854 -0.2756
   53MOL     C348987   7.801   5.105   7.344  1.0390 -0.6028  0.3211
   53MOL     C448988   7.705   5.187   7.265  0.1161  0.7707  0.3915
   53MOL     C548989   7.776   5.328   7.220 -0.1178  0.0355 -0.0268
   53MOL     C648990   7.707   5.401   7.107 -0.5929  0.1852 -0.2617
   53MOL     C748991   7.780   5.534   7.063  1.5320 -0.1124  0.1995
   53MOL     C848992   7.701   5.622   6.960 -0.4135  0.5324 -0.2380
   53MOL     C948993   7.795   5.729   6.900  0.7124  0.2523  0.6998
   53MOL    C1048994   7.712   5.818   6.801 -0.6093  0.3592 -0.1089
   53MOL    C1148995   7.804   5.912   6.724 -0.1213 -0.0614  0.3032
   53MOL    O1248996   7.866   5.998   6.823 -0.8080  0.1114 -0.1547
   53MOL    C1348997   7.935   6.111   6.786  0.0351  0.1848 -0.0304
   53MOL    O1448998   7.942   6.153   6.670  0.5280  0.1911 -0.3726
   53MOL    C1548999   0.031   6.169   6.896  0.2772  0.0606 -0.6065
   53MOL    C1649000   0.139   6.256   6.874 -1.2324 -0.2442  0.0486
   53MOL    C1749001   0.222   6.302   6.977  0.3195 -1.0899 -0.3984
   53MOL    C1849002   0.194   6.274   7.112  0.4138  0.4937  0.4029
   53MOL    C1949003   0.280   6.337   7.217  0.3974 -0.1369 -0.4537
   53MOL    O2049004   0.380   6.403   7.190 -0.1443 -0.1495 -0.5444
   53MOL    O2149005   0.243   6.297   7.345  0.7141 -0.7046  0.4384
   53MOL    C2249006   0.091   6.180   7.138  0.4393  0.0553  0.4867
   53MOL    C2349007   0.009   6.128   7.031  0.8309  0.0143  0.0973
   53MOL    H2449008   7.747   5.170   7.539 -0.6606  0.0314 -2.2175
   53MOL    H2549009   7.892   5.250   7.464  1.7272 -0.8678 -0.9718
   53MOL    H2649010   7.772   5.000   7.357  0.4800 -0.3990  0.7059
   53MOL    H2749011   7.898   5.091   7.295 -0.7532 -2.9619 -2.7700
   53MOL    H2849012   7.676   5.131   7.175 -0.6625  0.6301  0.7241
   53MOL    H2949013   7.610   5.202   7.316 -0.3516 -1.2068  0.1585
   53MOL    H3049014   7.878   5.317   7.184  0.6540  2.5319  1.2760
   53MOL    H3149015   7.790   5.395   7.304  3.2337  1.0274 -1.3002
   53MOL    H3249016   7.688   5.331   7.027 -1.1305  0.6209 -0.5165
   53MOL    H3349017   7.611   5.429   7.151 -2.2562 -0.3609 -3.4090
   53MOL    H3449018   7.802   5.597   7.149 -1.1023  1.5761 -0.2847
   53MOL    H3549019   7.875   5.517   7.013  0.4477 -1.7499 -1.3631
   53MOL    H3649020   7.661   5.560   6.879 -3.1281  0.1263  1.3390
   53MOL    H3749021   7.611   5.664   7.006 -0.3123  1.2149 -0.6684
   53MOL    H3849022   7.842   5.794   6.974  0.5052  0.9179  0.2559
   53MOL    H3949023   7.885   5.693   6.851  0.2751  0.2176 -0.0943
   53MOL    H4049024   7.627   5.860   6.854  1.9733  2.5688  2.4456
   53MOL    H4149025   7.675   5.753   6.722 -0.8029  1.4640 -0.9347
   53MOL    H4249026   7.750   5.977   6.655 -2.2852 -1.4254  0.6653
   53MOL    H4349027   7.879   5.858   6.665  0.6667  1.3842 -0.0475
   53MOL    H4449028   0.154   6.287   6.771  0.5675  2.0906  0.9749
   53MOL    H4549029   0.294   6.379   6.952 -0.7166 -0.1912 -0.6736
   53MOL    H4649030   0.065   6.153   7.239 -0.3084 -0.9750  0.0411
   53MOL    H4749031   7.911   6.055   7.055 -1.6835  1.7495 -2.3927
   53MOL    H4849032   7.862   4.982   7.556 -0.2483  0.2012 -1.9520
   53MOL    O4949033   0.332   6.346   7.459 -0.1964 -0.5363 -0.5230
   53MOL    C5049034   0.397   6.236   7.523  0.7714 -0.4331  0.2376
   53MOL    C5149035   0.313   6.162   7.627  0.2747 -0.5646 -0.0361
   53MOL    C5249036   0.384   6.051   7.697  0.1928  0.0816 -0.2140
   53MOL    C5349037   0.327   6.009   7.830  0.1372 -0.0554  0.1092
   53MOL    C5449038   0.180   5.951   7.838 -0.2415 -0.2710  0.2885
   53MOL    C5549039   0.153   5.844   7.732 -0.0702 -0.4830 -0.6619
   53MOL    C5649040   0.013   5.781   7.747 -0.4282 -0.3512 -0.0645
   53MOL    C5749041   7.935   5.691   7.637 -0.3618 -0.4251  0.3659
   53MOL    C5849042   7.799   5.626   7.655  0.9493 -0.1416 -0.6019
   53MOL    C5949043   7.762   5.526   7.547  0.3800 -0.6911  0.7814
   53MOL    O6049044   7.638   5.468   7.580 -0.2747  0.6451 -0.1431
   53MOL    C6149045   7.524   5.495   7.512  0.4755 -0.5962 -0.3234
   53MOL    O6249046   7.520   5.567   7.410 -0.9623  0.2463 -0.4812
   53MOL    C6349047   7.400   5.427   7.562  0.9956 -0.0930 -0.2350
   53MOL    C6449048   7.409   5.329   7.667  0.9407 -0.6261  0.2632
   53MOL    C6549049   7.295   5.264   7.718  0.7287  0.1363  0.3503
   53MOL    C6649050   7.168   5.302   7.671 -0.0955  0.4492  0.2246
   53MOL    C6749051   7.048   5.224   7.731 -0.4598 -0.3262  0.9765
   53MOL    O6849052   7.057   5.125   7.800 -0.8875  0.5439  0.6445
   53MOL    O6949053   6.924   5.285   7.703  0.1655 -0.3971  0.3476
   53MOL    C7049054   7.162   5.395   7.565  0.1498 -0.0969 -0.0594
   53MOL    C7149055   7.275   5.457   7.506 -0.5882  0.4667  0.0028
   53MOL    H7249056   0.415   6.167   7.440 -1.7776  1.6172 -2.0962
   53MOL    H7349057   0.490   6.275   7.563  1.3519 -0.1584 -1.3519
   53MOL    H7449058   0.227   6.113   7.583  1.4739 -0.1300 -2.9888
   53MOL    H7549059   0.278   6.242   7.693 -0.7404 -2.1472  1.3639
   53MOL    H7649060   0.381   5.967   7.628 -0.2194 -0.1626  0.0961
   53MOL    H7749061   0.488   6.079   7.711 -0.0167 -0.2645  2.4193
   53MOL    H7849062   0.344   6.076   7.914  1.0438  1.5000 -1.2859
   53MOL    H7949063   0.402   5.933   7.853 -0.1866  0.2192  2.1407
   53MOL    H8049064   0.174   5.908   7.938  0.4381  1.2636  1.0056
   53MOL    H8149065   0.106   6.031   7.834  1.9190  1.7547 -1.3760
   53MOL    H8249066   0.161   5.885   7.631 -0.2466 -0.4995 -0.6829
   53MOL    H8349067   0.223   5.764   7.753  0.6442  0.6039  1.2595
   53MOL    H8449068   7.975   5.732   7.844 -1.1292  0.5843  0.3096
   53MOL    H8549069   7.926   5.869   7.752 -1.2035 -0.8291 -1.5684
   53MOL    H8649070   7.913   5.756   7.551  0.2574  0.9754  1.2396
   53MOL    H8749071   0.031   5.613   7.621  0.8010  0.5150  1.1235
   53MOL    H8849072   7.723   5.704   7.653  1.8863  0.7739 -1.6684
   53MOL    H8949073   7.802   5.571   7.748 -0.6716 -0.5218 -0.7679
   53MOL    H9049074   7.847   5.461   7.527 -0.7646 -1.8778 -0.3606
   53MOL    H9149075   7.752   5.590   7.459  2.0317 -0.7250  0.5603
   53MOL    H9249076   7.510   5.301   7.693  0.6474 -0.6388  1.4401
   53MOL    H9349077   7.293   5.195   7.801  2.4613  1.0443  1.1908
   53MOL    H9449078   7.066   5.413   7.517 -0.1175 -1.5022 -0.0873
   53MOL    H9549079   7.272   5.533   7.428  1.0460  1.1839  0.6269
   53MOL    O9649080   6.817   5.225   7.781 -0.8364  0.1359  0.3883
   53MOL    C9749081   6.766   5.117   7.713  0.2152  0.1131  0.0069
   53MOL    C9849082   6.711   5.150   7.570 -0.1672  0.4168 -0.1213
   53MOL    C9949083   6.636   5.024   7.525  0.3934  1.1092  0.7033
   53MOL   C10049084   6.726   4.922   7.455 -0.7618 -0.4339 -0.3213
   53MOL   C10149085   6.655   4.789   7.419 -0.4475 -0.5694 -0.7910
   53MOL   C10249086   6.661   4.684   7.530  0.2325  0.6400  0.1575
   53MOL   C10349087   6.692   4.547   7.460  0.3830 -0.3211 -0.1739
   53MOL   C10449088   6.676   4.427   7.553  0.7704  0.0030  0.2053
   53MOL   C10549089   6.812   4.382   7.599  0.6629  0.1629  0.1514
   53MOL   C10649090   6.809   4.274   7.702 -0.5835  0.4242 -0.2340
   53MOL   O10749091   6.951   4.251   7.724  0.3496 -0.0277  0.2412
   53MOL   C10849092   6.991   4.162   7.808 -0.4047 -0.5861  0.5474
   53MOL   O10949093   6.924   4.061   7.846  0.1120 -0.1103  0.7794
   53MOL   C11049094   7.127   4.196   7.862 -0.0998  0.3381 -0.0096
   53MOL   C11149095   7.204   4.302   7.816  0.4679 -0.7149 -0.7921
   53MOL   C11249096   7.338   4.324   7.865  0.0035  0.3662  0.5279
   53MOL   C11349097   7.393   4.241   7.958 -0.3274 -0.0893  0.1911
   53MOL   C11449098   7.529   4.274   0.033 -0.4572  0.7837 -0.4863
   53MOL   O11549099   7.601   4.360   7.968 -0.5547 -0.0343 -0.7606
   53MOL   O11649100   7.559   4.192   0.138  0.4633  0.3231 -0.3064
   53MOL   C11749101   7.312   4.140   0.032  0.6974 -0.2550 -0.6560
   53MOL   C11849102   7.181   4.118   7.961 -0.5622 -0.1363 -1.0660
   53MOL   H11949103   6.841   5.037   7.712 -0.4376 -0.5051 -0.1123
   53MOL   H12049104   6.688   5.072   7.774 -0.3379 -0.8930 -1.3962
   53MOL   H12149105   6.790   5.181   7.502 -1.7091  0.7665 -1.7801
   53MOL   H12249106   6.636   5.229   7.580 -1.5110 -0.5915 -1.7800
   53MOL   H12349107   6.571   4.980   7.601 -2.5351  2.3461 -0.9684
   53MOL   H12449108   6.567   5.056   7.446 -0.0966 -0.2548  0.5589
   53MOL   H12549109   6.820   4.903   7.506 -0.5343  0.8097 -0.2591
   53MOL   H12649110   6.759   4.967   7.361 -0.3373  2.1214  1.0173
   53MOL   H12749111   6.548   4.804   7.405 -0.9138 -1.6380  1.3012
   53MOL   H12849112   6.687   4.749   7.323 -1.2066  0.3383 -1.4317
   53MOL   H12949113   6.745   4.713   7.594  0.7124 -2.2090  0.8741
   53MOL   H13049114   6.575   4.675   7.596 -1.7496 -0.5321 -2.5070
   53MOL   H13149115   6.611   4.534   7.388  1.3022 -0.0072 -1.2723
   53MOL   H13249116   6.780   4.554   7.397 -0.1801 -0.2377 -0.9582
   53MOL   H13349117   6.624   4.464   7.641  2.2715 -0.8485  1.4920
   53MOL   H13449118   6.611   4.352   7.507 -0.5519  0.4229  1.3685
   53MOL   H13549119   6.859   4.474   7.633 -0.7740  1.3184 -0.9473
   53MOL   H13649120   6.869   4.345   7.514 -1.7385 -1.3410 -0.8453
   53MOL   H13749121   6.744   4.192   7.672  2.0149 -1.6965 -0.2275
   53MOL   H13849122   6.778   4.310   7.800 -0.8815  2.0504 -0.9118
   53MOL   H13949123   7.174   4.368   7.736  2.5567  0.4513 -0.6408
   53MOL   H14049124   7.394   4.406   7.823  0.6078 -0.4711 -0.3027
   53MOL   H14149125   7.351   4.062   0.096 -0.0796  0.2099  0.3820
   53MOL   H14249126   7.133   4.033   0.030 -1.3320  1.0827  0.4072
   53MOL   O14349127   7.692   4.205   0.193 -0.8646  0.3180 -0.2666
   53MOL   C14449128   7.689   4.300   0.301  0.2664 -0.4453 -0.2886
   53MOL   C14549129   7.834   4.344   0.329  0.2746 -0.1343 -0.1471
   53MOL   C14649130   7.881   4.451   0.237  0.3085 -0.3768  0.0464
   53MOL   C14749131   0.049   4.496   0.268  0.8631  0.0270  0.3512
   53MOL   C14849132   0.043   4.584   0.389 -0.9149 -1.1474 -0.1078
   53MOL   C14949133   0.158   4.693   0.390 -0.1055 -0.6758  0.3002
   53MOL   C15049134   0.296   4.650   0.436 -0.3995 -0.2125  0.0318
   53MOL   C15149135   0.398   4.770   0.435 -0.6713 -0.1113 -0.2305
   53MOL   C15249136   0.531   4.756   0.511 -0.0391  0.9179  0.1137
   53MOL   C15349137   0.629   4.854   0.455  0.6331  0.2017 -0.1295
   53MOL   O15449138   0.758   4.841   0.520 -0.0564  0.0480 -0.5477
   53MOL   C15549139   0.858   4.928   0.491  0.0109 -0.2002  0.4219
   53MOL   O15649140   0.847   5.009   0.398 -0.0265 -0.0919 -0.0986
   53MOL   C15749141   0.977   4.919   0.577  0.0209  0.3218 -0.7104
   53MOL   C15849142   0.975   4.838   0.694  1.0335  0.1088  0.0339
   53MOL   C15949143   1.084   4.838   0.778 -0.3301 -0.2279 -1.0859
   53MOL   C16049144   1.194   4.921   0.751  0.5135 -0.0290  0.0143
   53MOL   C16149145   1.318   4.900   0.835 -0.1733  0.6895 -0.5436
   53MOL   O16249146   1.325   4.827   0.935 -0.0229  0.2673 -0.1343
   53MOL   O16349147   1.426   4.969   0.798  0.3213  0.2583 -0.1223
   53MOL   C16449148   1.188   5.009   0.643  0.6873  0.0539  0.4838
   53MOL   C16549149   1.078   5.011   0.557  0.6170  0.2679 -0.4283
   53MOL   H16649150   7.637   4.385   0.257 -1.1269 -2.1045 -1.9022
   53MOL   H16749151   7.638   4.278   0.395 -1.8954  0.8095 -1.1165
   53MOL   H16849152   7.899   4.257   0.324  0.5180  0.0181  0.3488
   53MOL   H16949153   7.839   4.375   0.434  0.0433  0.8451 -0.4203
   53MOL   H17049154   7.892   4.406   0.139  0.3078 -0.0746 -0.0934
   53MOL   H17149155   7.809   4.533   0.229  0.5142 -0.1691  0.3161
   53MOL   H17249156   0.099   4.557   0.194 -1.0484 -1.5003 -2.2780
   53MOL   H17349157   0.112   4.412   0.295  0.2821 -0.3618  0.5157
   53MOL   H17449158   7.932   4.645   0.372 -0.6561 -0.7234  0.0617
   53MOL   H17549159   0.034   4.529   0.482 -1.6676  1.1625  1.2093
   53MOL   H17649160   0.167   4.744   0.295 -1.2623  1.4700  1.3118
   53MOL   H17749161   0.142   4.781   0.452  0.2720 -1.1119  1.0212
   53MOL   H17849162   0.280   4.624   0.541  0.4419 -0.7150  0.0385
   53MOL   H17949163   0.340   4.567   0.380 -0.2826  0.8984 -1.5625
   53MOL   H18049164   0.414   4.796   0.330  2.4284 -1.6954 -0.2253
   53MOL   H18149165   0.351   4.860   0.476  0.8276 -0.2498  1.8741
   53MOL   H18249166   0.585   4.662   0.494  0.3621  1.0689  0.5464
   53MOL   H18349167   0.526   4.768   0.619 -1.5857  1.1913  0.0148
   53MOL   H18449168   0.586   4.954   0.460 -1.9076 -0.8003 -0.9387
   53MOL   H18549169   0.636   4.849   0.346  0.0624  4.1738 -0.3967
   53MOL   H18649170   0.886   4.781   0.717  1.4717 -0.5884 -0.0232
   53MOL   H18749171   1.075   4.768   0.860  1.8162  1.0796  0.3337
   53MOL   H18849172   1.263   5.085   0.625  1.9018 -1.2261  0.0780
   53MOL   H18949173   1.077   5.075   0.471  2.0580  0.2985 -0.4290
   53MOL   O19049174   1.550   4.953   0.888  0.1327  0.7157  0.4980
   53MOL   C19149175   1.623   4.848   0.846  0.3219 -0.0647 -0.0657
   53MOL   C19249176   1.773   4.881   0.853 -0.2911 -0.4717 -0.4920
   53MOL   C19349177   1.863   4.779   0.801 -0.2710 -0.4733  0.1483
   53MOL   C19449178   2.010   4.801   0.838  0.8213 -0.7536 -0.4320
   53MOL   C19549179   2.083   4.893   0.741  0.2974  0.5533 -0.2641
   53MOL   C19649180   2.223   4.933   0.792 -0.4706 -0.1573  0.1308
   53MOL   C19749181   2.216   5.048   0.891 -0.3671  0.3854 -0.3911
   53MOL   C19849182   2.185   5.186   0.834 -0.3967 -0.3832  0.2493
   53MOL   C19949183   2.097   5.272   0.922 -0.0989 -0.5427 -0.4368
   53MOL   C20049184   2.061   5.403   0.868  0.2035  0.0474  0.7701
   53MOL   O20149185   1.990   5.481   0.969  0.2939 -0.5353 -0.6585
   53MOL   C20249186   1.966   5.605   0.948  0.3165  0.1549 -0.0429
   53MOL   O20349187   2.006   5.668   0.850 -0.0591 -0.7814  0.1437
   53MOL   C20449188   1.894   5.671   1.057 -0.1208  1.0805  1.1296
   53MOL   C20549189   1.826   5.597   1.158 -0.0167  1.0061  0.3322
   53MOL   C20649190   1.756   5.655   1.263 -0.3600  0.4450  0.9113
   53MOL   C20749191   1.757   5.792   1.273 -0.3801 -0.2500 -0.0796
   53MOL   C20849192   1.698   5.855   1.394 -0.2306 -0.1671 -0.5048
   53MOL   O20949193   1.708   5.974   1.421 -0.3080 -0.0745 -0.0094
   53MOL   O21049194   1.627   5.775   1.485 -0.8709  0.2500 -0.2193
   53MOL   C21149195   1.809   5.876   1.168  0.2913  1.3145 -0.4422
   53MOL   C21249196   1.885   5.810   1.068  0.4636 -0.1598  0.6011
   53MOL   H21349197   1.604   4.759   0.906  1.1310 -1.1707 -1.4060
   53MOL   H21449198   1.599   4.821   0.743  2.1472 -0.2766 -0.4684
   53MOL   H21549199   1.791   4.884   0.961 -2.2231  2.3277 -0.1800
   53MOL   H21649200   1.792   4.978   0.807  1.1799  0.8606  2.7958
   53MOL   H21749201   1.827   4.680   0.829 -1.5078  0.0496  0.4031
   53MOL   H21849202   1.860   4.775   0.692  1.5747 -0.5760  0.0712
   53MOL   H21949203   2.067   4.708   0.834 -0.0476 -1.3578  1.1726
   53MOL   H22049204   2.023   4.834   0.941 -0.5519  0.1907 -0.5512
   53MOL   H22149205   2.104   4.837   0.650  1.2078 -1.0846  0.9278
   53MOL   H22249206   2.016   4.974   0.714 -2.3290 -1.7293 -0.8892
   53MOL   H22349207   2.272   4.842   0.827 -0.4453  0.5323  1.9109
   53MOL   H22449208   2.281   4.957   0.702 -0.2969 -0.0860  0.2611
   53MOL   H22549209   2.133   5.029   0.958 -0.7653  1.2210 -0.6424
   53MOL   H22649210   2.305   5.044   0.954 -0.5283 -1.2918 -0.2310
   53MOL   H22749211   2.268   5.253   0.814 -1.5491  0.4860 -1.6874
   53MOL   H22849212   2.148   5.175   0.732 -1.4162  1.4855  0.3927
   53MOL   H22949213   2.151   5.293   1.014  1.5343  0.2187 -1.5393
   53MOL   H23049214   2.004   5.227   0.954 -1.2153 -0.2728 -3.1847
   53MOL   H23149215   1.998   5.393   0.779  0.2691 -1.0906  0.8519
   53MOL   H23249216   2.149   5.460   0.839 -0.6542  1.2283  0.4273
   53MOL   H23349217   1.836   5.489   1.163  1.6258  1.1098 -0.4737
   53MOL   H23449218   1.712   5.592   1.339  2.6216 -0.3154  2.1129
   53MOL   H23549219   1.803   5.984   1.167 -1.5170  1.2304 -0.1535
   53MOL   H23649220   1.922   5.868   0.985 -1.5965 -0.2511 -0.4259
   53MOL   O23749221   1.577   5.843   1.610 -0.0553 -0.7893 -0.3428
   53MOL   C23849222   1.437   5.831   1.611 -0.9022 -0.2282 -0.2753
   53MOL   C23949223   1.393   5.705   1.692  0.0074 -0.5552 -0.2371
   53MOL   C24049224   1.477   5.672   1.817  0.8322 -0.0270  0.5506
   53MOL   C24149225   1.470   5.770   1.935 -0.0286 -0.0793 -0.2519
   53MOL   C24249226   1.534   5.722   2.069  0.3873 -0.0242 -0.6792
   53MOL   C24349227   1.449   5.611   2.147 -0.6205 -0.2139  0.5201
   53MOL   C24449228   1.541   5.542   2.242 -0.6240  0.2537  0.2213
   53MOL   C24549229   1.582   5.639   2.363  0.3734 -0.2014  0.3401
   53MOL   C24649230   1.651   5.569   2.476  0.1287 -0.5031  0.0102
   53MOL   C24749231   1.689   5.662   2.586 -0.5663 -0.0057 -0.3897
   53MOL   O24849232   1.724   5.590   2.708  0.3303 -0.1012  0.3218
   53MOL   C24949233   1.635   5.569   2.806  0.3476 -0.2270  0.0945
   53MOL   O25049234   1.521   5.615   2.815  0.3082 -0.3836  0.0314
   53MOL   C25149235   1.686   5.494   2.922 -0.4983 -0.3311 -0.1638
   53MOL   C25249236   1.827   5.488   2.946 -0.2642  0.6442  0.2192
   53MOL   C25349237   1.881   5.420   3.056 -0.1665  0.3924  0.0357
   53MOL   C25449238   1.795   5.359   3.156  0.2380 -0.0032 -0.6440
   53MOL   C25549239   1.845   5.297   3.278  0.8957 -0.2944  0.1162
   53MOL   O25649240   1.788   5.208   3.344  0.2096 -0.1403 -0.4883
   53MOL   O25749241   1.970   5.345   3.311 -0.4059  0.0723  0.0429
   53MOL   C25849242   1.654   5.363   3.130  0.6525  0.0071 -0.6462
   53MOL   C25949243   1.602   5.427   3.014 -0.0132 -0.6202 -0.5865
   53MOL   H26049244   1.404   5.923   1.659  1.6823  0.0516  1.0531
   53MOL   H26149245   1.398   5.836   1.509 -1.4944  2.6861  0.0601
   53MOL   H26249246   1.397   5.615   1.630 -2.0821  0.6743 -2.2516
   53MOL   H26349247   1.288   5.725   1.715 -0.3106 -1.6772 -0.6982
   53MOL   H26449248   1.441   5.574   1.845 -1.1901  0.7588  0.8179
   53MOL   H26549249   1.579   5.652   1.786  1.3543  1.1007  1.4927
   53MOL   H26649250   1.369   5.810   1.945  0.2487  0.3733  0.8191
   53MOL   H26749251   1.526   5.851   1.888  0.0394  0.0823  0.1011
   53MOL   H26849252   1.631   5.679   2.043  0.1607 -0.6068 -0.5692
   53MOL   H26949253   1.542   5.806   2.139  0.2773 -1.6079  1.2973
   53MOL   H27049254   1.363   5.660   2.194  0.1663  1.6392  0.0933
   53MOL   H27149255   1.424   5.541   2.068  0.3684 -0.6364  0.5754
   53MOL   H27249256   1.483   5.458   2.278 -1.0104  1.9107  3.7276
   53MOL   H27349257   1.630   5.504   2.193 -0.5562  1.1076 -0.3262
   53MOL   H27449258   1.632   5.729   2.331 -1.7776  1.0823  0.4737
   53MOL   H27549259   1.488   5.679   2.402 -0.6185  0.5131 -2.6692
   53MOL   H27649260   1.747   5.532   2.439  0.4122  0.5305 -0.2878
   53MOL   H27749261   1.583   5.493   2.515  0.4723 -0.2441  1.1394
   53MOL   H27849262   1.611   5.736   2.604  0.4210  0.7709  0.8561
   53MOL   H27949263   1.773   5.730   2.565 -0.1617 -0.1312  0.7539
   53MOL   H28049264   1.890   5.548   2.881  1.0427 -0.4836  0.4194
   53MOL   H28149265   1.989   5.414   3.056 -0.1267  0.2431  3.5696
   53MOL   H28249266   1.593   5.314   3.205  2.5643 -0.1313  0.8592
   53MOL   H28349267   1.495   5.428   2.998 -0.1736 -0.0857  0.5074
   53MOL   O28449268   2.025   5.279   3.436 -0.2052 -0.1225 -0.1550
   53MOL   C28549269   2.002   5.374   3.534  0.6086 -0.0883  0.2061
   53MOL   C28649270   2.130   5.385   3.621  0.1678  0.4699  0.6351
   53MOL   C28749271   2.178   5.261   3.700  0.1820  0.4880 -0.5784
   53MOL   C28849272   2.330   5.227   3.689 -0.3299 -0.1204  0.5487
   53MOL   C28949273   2.367   5.160   3.560 -0.5300  0.5731  0.6094
   53MOL   C29049274   2.502   5.071   3.548 -0.4934  0.0432 -0.7370
   53MOL   C29149275   2.525   5.011   3.407  0.2051  0.4150 -0.2183
   53MOL   C29249276   2.635   4.907   3.399  0.0919  0.6370  0.0822
   53MOL   C29349277   2.683   4.877   3.253 -0.0032 -0.2800  0.0008
   53MOL   C29449278   2.813   4.794   3.258  0.1342 -0.1588  0.6671
   53MOL   O29549279   2.846   4.760   3.124 -0.2504 -0.0479  0.3323
   53MOL   C29649280   2.970   4.716   3.098  0.4348  0.3227  0.0005
   53MOL   O29749281   3.065   4.717   3.176 -0.8405  0.1437  0.4291
   53MOL   C29849282   2.988   4.687   2.954  0.7641  0.2531 -0.2242
   53MOL   C29949283   2.871   4.694   2.866 -0.2225 -0.0987  0.0521
   53MOL   C30049284   2.895   4.667   2.730 -0.0866  0.1096  0.0945
   53MOL   C30149285   3.022   4.630   2.683  0.0961 -0.6298 -0.6381
   53MOL   C30249286   3.047   4.602   2.540  0.3526  0.1950 -0.2225
   53MOL   O30349287   2.958   4.597   2.450 -0.0313  0.6452 -0.0079
   53MOL   O30449288   3.181   4.573   2.510 -0.5010 -0.1412  0.5292
   53MOL   C30549289   3.129   4.613   2.774  0.4277 -0.3956 -0.3526
   53MOL   C30649290   3.109   4.646   2.910 -0.4142  1.3044  0.4757
   53MOL   H30749291   1.992   5.475   3.495  2.2372 -0.2277 -0.5917
   53MOL   H30849292   1.919   5.351   3.601 -0.2883  2.7425  0.1209
   53MOL   H30949293   2.130   5.474   3.684  0.9466  1.2259 -0.4228
   53MOL   H31049294   2.205   5.417   3.549  0.3835  0.0545  0.6725
   53MOL   H31149295   2.150   5.262   3.805 -0.5684 -4.1465 -0.6237
   53MOL   H31249296   2.119   5.176   3.668 -0.1738  0.3778  0.3554
   53MOL   H31349297   2.347   5.147   3.761 -3.4247 -1.2221  0.1427
   53MOL   H31449298   2.397   5.305   3.728  0.1376 -0.7697  1.0597
   53MOL   H31549299   2.282   5.104   3.520  2.3709 -2.6914 -1.1980
   53MOL   H31649300   2.372   5.245   3.492  2.8337  0.7959  1.0644
   53MOL   H31749301   2.582   5.144   3.560 -2.6403  2.2934  0.4212
   53MOL   H31849302   2.508   4.992   3.622 -1.3904  3.8064  3.5400
   53MOL   H31949303   2.435   4.960   3.372 -1.2603  3.4458 -1.0339
   53MOL   H32049304   2.551   5.092   3.339 -2.1875  0.8255 -0.6821
   53MOL   H32149305   2.723   4.944   3.451 -0.8704  2.1814  0.6372
   53MOL   H32249306   2.615   4.813   3.451 -2.3619  0.2701 -1.4636
   53MOL   H32349307   2.696   4.968   3.195 -1.2838  0.8310  1.4002
   53MOL   H32449308   2.604   4.824   3.200 -1.7380  0.8136  1.4109
   53MOL   H32549309   2.801   4.703   3.317  1.9545  0.0502  1.3888
   53MOL   H32649310   2.892   4.853   3.305  0.3248 -1.3412  1.8924
   53MOL   H32749311   2.766   4.701   2.892 -0.4212 -2.2854 -0.0439
   53MOL   H32849312   2.809   4.675   2.665  0.7857 -2.2283 -1.4030
   53MOL   H32949313   3.227   4.582   2.742  0.0420  0.6904 -2.7074
   53MOL   H33049314   3.185   4.639   2.986 -0.0033  1.8942  0.1166
   53MOL   O33149315   3.210   4.550   2.365 -0.7143 -0.4328  0.1100
   53MOL   C33249316   3.236   4.413   2.345 -0.3029 -0.5474  0.3737
   53MOL   C33349317   3.232   4.377   2.197  0.0334  1.0437 -0.2286
   53MOL   C33449318   3.091   4.384   2.146 -0.4353 -0.0388 -0.2385
   53MOL   C33549319   3.066   4.359   1.998  0.2363  0.3403  0.2241
   53MOL   C33649320   3.115   4.470   1.911  0.2366 -1.2061 -0.2605
   53MOL   C33749321   3.098   4.445   1.754 -0.0405 -0.4489 -0.4017
   53MOL   C33849322   3.095   4.574   1.675 -0.0438 -0.0855  0.4326
   53MOL   C33949323   3.233   4.652   1.669 -0.1567 -0.2206 -0.1962
   53MOL   C34049324   3.222   4.777   1.581  0.8820 -0.0138  0.4412
   53MOL   C34149325   3.359   4.837   1.571  0.8690  0.0797 -0.2009
   53MOL   O34249326   3.437   4.754   1.487 -0.1985 -0.7637 -0.3443
   53MOL   C34349327   3.571   4.766   1.491 -0.5412  0.3545 -0.3434
   53MOL   O34449328   3.632   4.857   1.555 -0.1555 -0.6285  0.1759
   53MOL   C34549329   3.642   4.663   1.409 -0.4692 -0.0910  0.0842
   53MOL   C34649330   3.563   4.564   1.349 -0.8110  0.3087  0.0754
   53MOL   C34749331   3.623   4.475   1.259  0.8260 -0.0845  0.0265
   53MOL   C34849332   3.762   4.461   1.245  0.5514  0.3724 -0.2355
   53MOL   C34949333   3.810   4.345   1.159 -0.1398  0.3313  0.1463
   53MOL   O35049334   3.741   4.275   1.085 -0.3432  0.3238  0.1062
   53MOL   O35149335   3.948   4.334   1.169  0.5220  0.9488  0.0361
   53MOL   C35249336   3.846   4.552   1.318  0.5851  0.1403  0.0502
   53MOL   C35349337   3.783   4.650   1.398  0.1592 -0.8911  0.3926
   53MOL   H35449338   3.334   4.395   2.389  0.7889  1.9194 -0.9247
   53MOL   H35549339   3.159   4.353   2.392 -1.9396  0.9155 -0.3797
   53MOL   H35649340   3.276   4.279   2.180 -1.6906  0.2416 -0.1562
   53MOL   H35749341   3.300   4.451   2.154  1.4506 -0.1987 -0.1712
   53MOL   H35849342   3.040   4.309   2.207  0.9215  0.7954  1.9922
   53MOL   H35949343   3.044   4.478   2.175  3.1086  1.3725  1.1759
   53MOL   H36049344   2.960   4.348   1.977 -0.2620  0.6199  2.4700
   53MOL   H36149345   3.119   4.267   1.973  0.1888  0.1382  0.8569
   53MOL   H36249346   3.068   4.566   1.927 -0.0443 -0.8854 -2.7076
   53MOL   H36349347   3.222   4.478   1.930  0.0054 -0.5528  0.7785
   53MOL   H36449348   3.166   4.378   1.702  0.2935  1.7376 -2.8625
   53MOL   H36549349   2.999   4.399   1.751  0.6473 -2.0854  1.0194
   53MOL   H36649350   3.057   4.551   1.575  0.2030 -1.1549  0.5843
   53MOL   H36749351   3.017   4.633   1.723  0.0067  0.9809 -0.7586
   53MOL   H36849352   3.256   4.684   1.771  0.7478 -1.4192 -0.0142
   53MOL   H36949353   3.312   4.586   1.634 -0.3631 -0.7273  0.2935
   53MOL   H37049354   3.145   4.853   1.597 -2.3951 -3.6440  2.9413
   53MOL   H37149355   3.191   4.748   1.481  2.9209  0.5271 -0.3735
   53MOL   H37249356   3.403   4.856   1.668 -0.2371  2.3471 -0.1149
   53MOL   H37349357   3.333   4.930   1.519 -0.7181 -0.0084  0.4395
   53MOL   H37449358   3.457   4.550   1.366 -0.5664  0.6138  1.8693
   53MOL   H37549359   3.555   4.407   1.211 -0.5109  0.3262  1.3053
   53MOL   H37649360   3.953   4.543   1.334  0.5771  1.1698  0.7343
   53MOL   H37749361   3.846   4.720   1.450  1.1597  0.1935 -2.2130
   53MOL   O37849362   4.018   4.250   1.070 -0.6171  0.3459 -0.0012
   53MOL   C37949363   4.082   4.346   0.983 -0.0672 -0.0957 -0.0964
   53MOL   C38049364   4.205   4.281   0.921  0.0182  0.3556 -0.1202
   53MOL   C38149365   4.286   4.375   0.823  0.5562 -0.5318 -0.0554
   53MOL   C38249366   4.213   4.398   0.696 -0.4048  0.1486 -0.2294
   53MOL   C38349367   4.293   4.502   0.611  0.1161  0.3253 -0.5007
   53MOL   C38449368   4.212   4.586   0.510  0.1698  0.3696  0.3161
   53MOL   C38549369   4.286   4.711   0.453  0.4555 -0.3099 -0.3615
   53MOL   C38649370   4.374   4.683   0.328  0.0887 -0.6545  0.2116
   53MOL   C38749371   4.456   4.807   0.279 -0.1743 -0.5841 -0.2861
   53MOL   C38849372   4.527   4.775   0.152 -0.9024 -0.2648 -0.3709
   53MOL   O38949373   4.435   4.752   0.042 -0.3386  0.1513 -0.0736
   53MOL   C39049374   4.477   4.731   7.891 -0.3369 -0.2764 -0.7133
   53MOL   O39149375   4.593   4.707   7.858  0.6807  0.1698 -0.5199
   53MOL   C39249376   4.361   4.747   7.799 -0.7863  0.6421 -0.5584
   53MOL   C39349377   4.383   4.753   7.660 -0.0625 -0.2991  0.3612
   53MOL   C39449378   4.275   4.782   7.572 -0.6031  0.1394 -0.6201
   53MOL   C39549379   4.146   4.800   7.627 -1.1028 -0.5576 -0.1668
   53MOL   C39649380   4.032   4.844   7.532 -0.0635  0.5819  0.1409
   53MOL   O39749381   4.032   4.826   7.406 -0.2321  0.3361 -0.8742
   53MOL   O39849382   3.923   4.891   7.592  0.1452 -0.5848 -0.0705
   53MOL   C39949383   4.118   4.771   7.761 -0.2004  0.5793  0.8239
   53MOL   C40049384   4.225   4.750   7.844  0.3099 -0.5283  0.6533
   53MOL   H40149385   4.010   4.363   0.903 -0.0710 -1.2012 -0.3348
   53MOL   H40249386   4.101   4.442   1.031 -1.3854 -0.0912  0.4309
   53MOL   H40349387   4.168   4.188   0.877 -0.4297 -0.5065  2.0162
   53MOL   H40449388   4.275   4.256   1.001 -1.4945  1.6807  1.6700
   53MOL   H40549389   4.316   4.463   0.881 -1.0717 -1.2866  2.0159
   53MOL   H40649390   4.384   4.331   0.804  0.8204 -0.3031  0.7455
   53MOL   H40749391   4.117   4.434   0.732  0.1966 -0.3651  1.9951
   53MOL   H40849392   4.192   4.307   0.640  0.7855 -0.9267  1.0132
   53MOL   H40949393   4.345   4.569   0.679 -1.1573 -0.0761  0.8823
   53MOL   H41049394   4.368   4.442   0.559 -0.2208  0.4636 -1.1537
   53MOL   H41149395   4.170   4.520   0.434 -0.2271  0.5778  0.3529
   53MOL   H41249396   4.124   4.630   0.556  0.8734 -1.1204  3.2378
   53MOL   H41349397   4.214   4.783   0.415 -0.2115 -1.5896 -1.5447
   53MOL   H41449398   4.346   4.755   0.533 -1.6761  2.4123 -0.1802
   53MOL   H41549399   4.443   4.601   0.348  1.8363  0.6322 -0.4615
   53MOL   H41649400   4.313   4.649   0.245 -0.7571 -2.6220  1.5782
   53MOL   H41749401   4.529   4.837   0.354 -2.1954  3.8161  0.0948
   53MOL   H41849402   4.385   4.890   0.276 -1.1511 -1.3479  1.2164
   53MOL   H41949403   4.590   4.687   0.160 -2.0721 -1.1062 -0.2636
   53MOL   H42049404   4.597   4.854   0.125 -1.4795  0.6878  0.8401
   53MOL   H42149405   4.481   4.735   7.620  0.4586 -2.5805  2.5370
   53MOL   H42249406   4.284   4.778   7.464 -0.0573 -1.6649 -0.5097
   53MOL   H42349407   4.018   4.777   7.801 -0.7092  0.2244 -0.3880
   53MOL   H42449408   4.202   4.737   7.949 -2.1604 -1.4187  0.0314
   53MOL   O42549409   3.805   4.925   7.496 -0.5427  0.1065 -0.2816
   53MOL   C42649410   3.694   4.843   7.544 -0.4524  0.1334 -0.4815
   53MOL   C42749411   3.566   4.917   7.519 -0.1231 -0.6532  0.5103
   53MOL   C42849412   3.444   4.841   7.545  0.3274 -0.8659  0.1505
   53MOL   C42949413   3.322   4.928   7.537 -0.5750 -0.2781 -0.3549
   53MOL   C43049414   3.188   4.851   7.571  0.3512  0.0549 -0.8488
   53MOL   C43149415   3.144   4.747   7.465  0.1100 -0.3483  1.1101
   53MOL   C43249416   2.995   4.726   7.487 -1.3768 -0.2013 -0.1439
   53MOL   C43349417   2.928   4.634   7.378  0.8574 -0.2556  0.3168
   53MOL   C43449418   2.774   4.637   7.404 -0.2646 -0.3836  0.1928
   53MOL   C43549419   2.693   4.584   7.291 -0.4115 -0.6382 -0.3298
   53MOL   O43649420   2.556   4.589   7.336 -0.2378 -0.0808  0.1615
   53MOL   C43749421   2.467   4.682   7.294  0.7802 -0.3588 -0.1172
   53MOL   O43849422   2.491   4.777   7.221  0.1973  0.1269 -0.6572
   53MOL   C43949423   2.329   4.649   7.323  0.1543  0.4233 -0.4833
   53MOL   C44049424   2.306   4.589   7.448 -0.0760 -0.3708 -0.6838
   53MOL   C44149425   2.171   4.563   7.478  0.4982  0.0833  0.9359
   53MOL   C44249426   2.065   4.582   7.386 -0.7520 -0.0259  0.5196
   53MOL   C44349427   1.923   4.539   7.425 -0.8351  0.3575 -0.8124
   53MOL   O44449428   1.819   4.559   7.360 -0.0298 -0.0692 -0.1625
   53MOL   O44549429   1.923   4.474   7.540  0.6217 -0.0877 -0.3552
   53MOL   C44649430   2.097   4.641   7.263  0.0103  0.0515 -1.1835
   53MOL   C44749431   2.228   4.684   7.233  0.2259 -0.0727  0.6763
   53MOL   H44849432   3.694   4.748   7.491  1.4140  0.7965 -1.7452
   53MOL   H44949433   3.707   4.811   7.647  0.3706 -0.7240 -0.8466
   53MOL   H45049434   3.587   4.950   7.417 -0.1733 -0.1854  0.6519
   53MOL   H45149435   3.557   5.007   7.579  0.6136 -0.8499  0.9194
   53MOL   H45249436   3.441   4.758   7.474 -0.0961  0.5760 -1.5226
   53MOL   H45349437   3.453   4.803   7.647  0.8219 -0.2849  0.3273
   53MOL   H45449438   3.316   4.970   7.437  1.6102 -0.0792 -0.4166
   53MOL   H45549439   3.342   5.009   7.606 -0.2312 -0.8413  0.2112
   53MOL   H45649440   3.200   4.801   7.667  0.8572  3.0032  0.6551
   53MOL   H45749441   3.105   4.921   7.574  0.1285 -0.1946 -1.1927
   53MOL   H45849442   3.165   4.795   7.370  1.4361  0.9022  2.0096
   53MOL   H45949443   3.197   4.652   7.466  2.5048  0.8863 -1.4129
   53MOL   H46049444   2.979   4.686   7.587  0.9873 -2.2788 -0.5578
   53MOL   H46149445   2.947   4.824   7.500  2.6731  1.9905 -0.9359
   53MOL   H46249446   2.946   4.670   7.277  0.3354  0.4512  0.4733
   53MOL   H46349447   2.957   4.529   7.378  1.5269 -0.1147 -2.4858
   53MOL   H46449448   2.737   4.738   7.422  0.5947 -0.0223 -0.0435
   53MOL   H46549449   2.743   4.588   7.497 -2.1591 -0.0618 -0.2402
   53MOL   H46649450   2.717   4.478   7.282  0.3951 -0.6868  1.9475
   53MOL   H46749451   2.712   4.632   7.195  1.1870 -0.7696 -0.0848
   53MOL   H46849452   2.389   4.572   7.515  0.5165 -0.5381 -1.4468
   53MOL   H46949453   2.162   4.523   7.578  1.5733 -0.1552  0.9453
   53MOL   H47049454   2.020   4.653   7.189 -0.6084  1.1283 -0.3911
   53MOL   H47149455   2.244   4.741   7.142 -0.3921  1.4229  1.4865
   53MOL   O47249456   1.784   4.437   7.602 -0.0943 -0.1214  0.8623
   53MOL   C47349457   1.745   4.312   7.565  0.5982  0.6322  0.0210
   53MOL   C47449458   1.602   4.301   7.612  0.1498 -0.4415 -0.1211
   53MOL   C47549459   1.534   4.172   7.578  0.4740  1.1915  0.0606
   53MOL   C47649460   1.385   4.173   7.621 -0.1545 -0.8052 -0.3806
   53MOL   C47749461   1.331   4.032   7.583  0.4993 -0.2281 -0.0754
   53MOL   C47849462   1.189   3.999   7.640  0.3150  0.4863 -0.6266
   53MOL   C47949463   1.072   4.089   7.587  0.5422  0.0123 -0.6822
   53MOL   C48049464   0.960   4.089   7.692 -0.3878  0.2263 -0.1063
   53MOL   C48149465   0.854   3.980   7.669  0.2165  0.0015 -0.7540
   53MOL   C48249466   0.756   3.963   7.789 -0.9476  0.0048 -0.2653
   53MOL   O48349467   0.631   3.899   7.757  0.0159  0.2096 -0.3231
   53MOL   C48449468   0.525   3.978   7.712  0.2436 -0.7684  0.0311
   53MOL   O48549469   0.520   4.102   7.705  0.0796 -0.2319  0.1828
   53MOL   C48649470   0.412   3.892   7.666  0.1521  0.0994 -0.2363
   53MOL   C48749471   0.281   3.941   7.645  0.0938  0.5717 -0.3878
   53MOL   C48849472   0.179   3.851   7.610 -0.6650 -0.0852  0.5238
   53MOL   C48949473   0.205   3.716   7.587  1.3505  0.3700 -0.7185
   53MOL   C49049474   0.101   3.614   7.543 -0.2207  0.0002  0.3618
   53MOL   O49149475   0.129   3.494   7.523 -0.5600 -0.8087  0.4643
   53MOL   O49249476   7.953   3.667   7.533  0.0643 -0.6055 -0.3358
   53MOL   C49349477   0.335   3.671   7.609  0.3064 -0.0727  0.3682
   53MOL   C49449478   0.439   3.758   7.651 -0.3392  0.8406  0.2455
   53MOL   H49549479   1.751   4.303   7.456 -1.8951  2.4540 -0.2926
   53MOL   H49649480   1.804   4.229   7.604  1.8935  0.4062 -2.2885
   53MOL   H49749481   1.538   4.381   7.574 -0.7987 -1.5596 -0.8845
   53MOL   H49849482   1.597   4.316   7.720 -3.0940  0.3393 -0.3248
   53MOL   H49949483   1.535   4.141   7.473  0.1534  1.7364 -0.1061
   53MOL   H50049484   1.596   4.092   7.619 -0.5532  0.5561  0.3914
   53MOL   H50149485   1.331   4.257   7.576  0.9424 -0.4413 -1.0318
   53MOL   H50249486   1.380   4.190   7.729  1.4063  2.1038 -0.7048
   53MOL   H50349487   1.340   4.026   7.474 -1.3206  0.3115 -0.2626
   53MOL   H50449488   1.398   3.957   7.625  1.8570  1.0198  0.0569
   53MOL   H50549489   1.177   3.891   7.627 -0.4586  0.7392 -2.0132
   53MOL   H50649490   1.206   4.006   7.748 -2.8930  0.1655 -0.0260
   53MOL   H50749491   1.108   4.192   7.586  1.9318 -0.4776 -1.4440
   53MOL   H50849492   1.047   4.064   7.484  2.3049 -0.1054 -1.0971
   53MOL   H50949493   0.997   4.089   7.794 -0.8912 -1.1356  0.0898
   53MOL   H51049494   0.908   4.184   7.682  1.4766  1.2696 -0.0510
   53MOL   H51149495   0.893   3.886   7.628  0.2810 -0.6885  0.8618
   53MOL   H51249496   0.788   4.009   7.587 -0.6276 -0.1250 -0.1281
   53MOL   H51349497   0.745   4.066   7.823  0.9525  0.3190 -0.5175
   53MOL   H51449498   0.808   3.925   7.877 -2.3780 -0.0241  0.5766
   53MOL   H51549499   0.255   4.045   7.659  0.6512  0.5037  1.1965
   53MOL   H51649500   0.081   3.892   7.589 -0.7007 -1.0165 -1.2326
   53MOL   H51749501   0.369   3.570   7.597 -0.4663 -0.4901  1.6030
   53MOL   H51849502   0.538   3.719   7.665 -1.0315 -0.8573  0.5687
   53MOL   O51949503   7.848   3.580   7.481 -0.4398 -0.3928  0.3363
   53MOL   C52049504   7.784   3.518   7.586 -0.4885  0.4252  0.6375
   53MOL   C52149505   7.697   3.399   7.537 -0.0213 -0.0903 -0.0285
   53MOL   C52249506   7.624   3.335   7.657  0.5350 -0.0722  0.5756
   53MOL   C52349507   7.504   3.244   7.615 -0.0466 -0.1415  0.1007
   53MOL   C52449508   7.541   3.113   7.550  0.6651  0.1930 -0.6338
   53MOL   C52549509   7.415   3.029   7.538 -0.2438 -0.1873  0.2696
   53MOL   C52649510   7.448   2.889   7.489 -1.1310  0.9354 -0.2078
   53MOL   C52749511   7.331   2.789   7.505  0.1393  0.3672  0.9541
   53MOL   C52849512   7.338   2.670   7.414  0.5477  0.3657 -0.3761
   53MOL   C52949513   7.231   2.558   7.442 -0.4333 -0.7081  0.0682
   53MOL   O53049514   7.100   2.597   7.416 -0.4225 -0.7181  0.2195
   53MOL   C53149515   7.017   2.638   7.516 -0.5505 -0.1126  0.1254
   53MOL   O53249516   7.046   2.627   7.638 -0.6249  0.3032  0.5149
   53MOL   C53349517   6.888   2.688   7.464 -0.2745  0.1678  0.0923
   53MOL   C53449518   6.800   2.746   7.563  0.2211 -0.2953 -0.2674
   53MOL   C53549519   6.675   2.794   7.527  0.1688 -0.3807 -0.3310
   53MOL   C53649520   6.638   2.796   7.392  0.1932  0.2798  0.0336
   53MOL   C53749521   6.500   2.844   7.350  0.0443 -0.3134 -0.1909
   53MOL   O53849522   6.482   2.897   7.242 -0.3755 -0.1890 -0.0711
   53MOL   O53949523   6.403   2.822   7.449 -0.5157  0.2535 -0.1909
   53MOL   C54049524   6.722   2.741   7.293 -0.0839 -0.8382 -0.3351
   53MOL   C54149525   6.848   2.683   7.331  0.2667  0.5134  0.4613
   53MOL   H54249526   7.854   3.482   7.661 -0.6379 -1.3408 -0.0526
   53MOL   H54349527   7.724   3.590   7.642 -1.3187 -0.4779  0.9167
   53MOL   H54449528   7.763   3.326   7.491 -0.5647 -0.0388 -0.9159
   53MOL   H54549529   7.624   3.435   7.463 -1.3965  1.6084  2.1007
   53MOL   H54649530   7.698   3.278   7.712 -0.7420  0.1711  2.6155
   53MOL   H54749531   7.591   3.417   7.722 -3.2832 -1.1523  0.1408
   53MOL   H54849532   7.448   3.299   7.540  0.4017  0.2503  0.0570
   53MOL   H54949533   7.427   3.227   7.691 -1.0921 -0.8516 -1.1058
   53MOL   H55049534   7.577   3.136   7.450 -1.9067 -0.1692 -1.6963
   53MOL   H55149535   7.627   3.066   7.598  0.4895 -0.2477 -0.7521
   53MOL   H55249536   7.349   3.028   7.625  1.4463  0.3375  1.5828
   53MOL   H55349537   7.352   3.083   7.467 -1.3128  0.8819  1.9692
   53MOL   H55449538   7.480   2.888   7.385  1.1173 -1.3322  0.4493
   53MOL   H55549539   7.526   2.847   7.553 -1.6435 -1.5086 -1.1133
   53MOL   H55649540   7.329   2.752   7.608 -0.1531  0.8027  1.1084
   53MOL   H55749541   7.236   2.840   7.488  0.5694 -0.0819 -3.2286
   53MOL   H55849542   7.433   2.627   7.444 -0.8384 -1.4801  1.4892
   53MOL   H55949543   7.339   2.703   7.310 -1.1076 -2.0380 -1.2024
   53MOL   H56049544   7.247   2.533   7.547 -2.2718  0.5371  0.6718
   53MOL   H56149545   7.274   2.487   7.372  0.9604  1.2445 -1.0947
   53MOL   H56249546   6.845   2.760   7.660  1.5247 -0.4333 -0.8334
   53MOL   H56349547   6.614   2.844   7.600  1.3500  1.0976 -0.3277
   53MOL   H56449548   6.684   2.731   7.193 -0.3959 -2.3096 -0.0897
   53MOL   H56549549   6.908   2.626   7.261 -2.7345 -1.4464 -0.6013
   53MOL   O56649550   6.272   2.893   7.426 -0.0385  0.7184 -0.3540
   53MOL   C56749551   6.191   2.802   7.357  0.4713  0.4095  0.1689
   53MOL   C56849552   6.172   2.668   7.420 -0.0754  0.4793  0.0480
   53MOL   C56949553   6.063   2.580   7.338 -0.1409  0.3940 -0.3791
   53MOL   C57049554   6.016   2.460   7.418  0.5253 -0.5809 -0.8565
   53MOL   C57149555   5.886   2.393   7.368  0.1310 -0.0906  0.6523
   53MOL   C57249556   5.752   2.475   7.400  0.2688  0.0950  0.2510
   53MOL   C57349557   5.628   2.386   7.374 -0.1570  0.0969 -0.3993
   53MOL   C57449558   5.502   2.461   7.393  0.2761 -0.3368  0.2409
   53MOL   C57549559   5.377   2.381   7.347 -0.1105  0.1007 -0.3831
   53MOL   C57649560   5.254   2.469   7.370  0.4619 -0.5448 -0.0813
   53MOL   O57749561   5.137   2.402   7.334  0.8490 -0.1444  0.0046
   53MOL   C57849562   5.088   2.403   7.210 -0.5718 -0.1926 -0.0451
   53MOL   O57949563   5.144   2.464   7.119  0.2627  0.3840  0.2977
   53MOL   C58049564   4.960   2.324   7.191 -0.3483 -0.0769  0.9373
   53MOL   C58149565   4.921   2.286   7.058  0.1428 -0.9876 -0.1012
   53MOL   C58249566   4.810   2.203   7.052 -0.3663 -0.2625 -0.0365
   53MOL   C58349567   4.738   2.152   7.164  0.1698 -0.0757  0.6965
   53MOL   C58449568   4.628   2.048   7.165  0.3099  0.3219 -0.0793
   53MOL   O58549569   4.543   2.048   7.249  0.0728  0.2677 -0.1583
   53MOL   O58649570   4.626   1.972   7.059 -0.1819  0.4176 -0.1931
   53MOL   C58749571   4.771   2.205   7.287 -0.4004 -0.2468 -0.3817
   53MOL   C58849572   4.884   2.291   7.299 -0.4469  0.0839 -0.0608
   53MOL   H58949573   6.099   2.860   7.359  0.0713 -0.2453  1.4830
   53MOL   H59049574   6.214   2.792   7.251  1.4055 -1.9723  0.5674
   53MOL   H59149575   6.132   2.685   7.520 -0.6361  0.1711 -0.1219
   53MOL   H59249576   6.272   2.623   7.423  0.3554  1.4077 -0.1420
   53MOL   H59349577   5.975   2.643   7.328  0.0924  0.7082 -0.4566
   53MOL   H59449578   6.099   2.541   7.243  0.9486 -0.1492  0.2391
   53MOL   H59549579   5.994   2.506   7.515  0.6440 -0.5711 -0.8353
   53MOL   H59649580   6.108   2.402   7.430  0.7466 -0.1186 -0.3081
   53MOL   H59749581   5.897   2.387   7.260  1.5398 -0.2420  0.7956
   53MOL   H59849582   5.875   2.292   7.406  1.4304 -0.5850 -0.2356
   53MOL   H59949583   5.758   2.513   7.502  0.2114  0.4018  0.1406
   53MOL   H60049584   5.751   2.560   7.332 -0.6888  1.2048  1.6247
   53MOL   H60149585   5.632   2.360   7.268  2.0081 -1.2295 -0.0263
   53MOL   H60249586   5.628   2.294   7.434 -1.0748 -0.5474 -1.3720
   53MOL   H60349587   5.479   2.479   7.498 -1.6351  1.7992 -0.4918
   53MOL   H60449588   5.508   2.558   7.344 -3.9430 -0.9176 -1.6264
   53MOL   H60549589   5.366   2.296   7.415  0.6587 -1.2850 -1.9806
   53MOL   H60649590   5.375   2.358   7.241  0.7185 -0.2149 -0.3363
   53MOL   H60749591   5.261   2.563   7.316 -1.8176  0.8703  1.9786
   53MOL   H60849592   5.240   2.494   7.475 -0.4399  1.6296 -0.6911
   53MOL   H60949593   4.973   2.319   6.969  0.5508  2.0187  1.2072
   53MOL   H61049594   4.791   2.160   6.955 -1.8270  0.8677 -0.2579
   53MOL   H61149595   4.711   2.175   7.372 -0.4891 -2.0861 -1.0740
   53MOL   H61249596   4.902   2.336   7.396  1.3063 -1.7013  0.4517
   53MOL   O61349597   4.501   1.911   7.021  0.2072 -0.4614 -0.2495
   53MOL   C61449598   4.501   1.773   7.061  0.7980 -0.5148 -0.5146
   53MOL   C61549599   4.375   1.702   7.035  0.7896  0.0386 -0.3781
   53MOL   C61649600   4.244   1.772   7.090  0.4700  0.6926 -0.4533
   53MOL   C61749601   4.112   1.691   7.090  0.7853  0.1111  0.1705
   53MOL   C61849602   3.971   1.767   7.113 -0.3613 -0.6902  0.0919
   53MOL   C61949603   3.919   1.852   6.999 -0.0318  0.1959  0.4425
   53MOL   C62049604   3.816   1.961   7.038 -0.6376  0.3265  0.8145
   53MOL   C62149605   3.856   2.068   7.141  0.4579  0.2080 -0.1120
   53MOL   C62249606   3.767   2.200   7.135 -0.2179  0.2594  0.1804
   53MOL   C62349607   3.818   2.288   7.253  0.8391  0.6009 -0.2948
   53MOL   O62449608   3.776   2.426   7.253 -0.2556  0.3962 -0.2215
   53MOL   C62549609   3.653   2.464   7.273 -0.1791 -0.6508 -0.0135
   53MOL   O62649610   3.565   2.386   7.319  0.5118  0.6106  0.0207
   53MOL   C62749611   3.618   2.609   7.237 -0.5396  0.1509 -0.4144
   53MOL   C62849612   3.720   2.689   7.195  0.5536 -0.3554  0.2645
   53MOL   C62949613   3.696   2.829   7.178 -0.3081  0.1287 -0.1913
   53MOL   C63049614   3.561   2.881   7.178 -0.0219  0.6231 -0.7092
   53MOL   C63149615   3.535   3.025   7.154  0.0238  0.5180  0.4111
   53MOL   O63249616   3.622   3.113   7.130 -0.0206  0.2835 -0.2254
   53MOL   O63349617   3.401   3.054   7.161  0.0161  0.1610  0.0343
   53MOL   C63449618   3.459   2.792   7.217 -0.8571 -0.4856  0.5903
   53MOL   C63549619   3.487   2.658   7.248  0.0793  0.2875 -0.7216
   53MOL   H63649620   4.579   1.716   7.009 -2.5243 -3.2421 -2.7971
   53MOL   H63749621   4.523   1.773   7.167 -2.2452  3.3459  0.2332
   53MOL   H63849622   4.370   1.599   7.072  0.7972  0.5033  0.9175
   53MOL   H63949623   4.375   1.690   6.926 -3.5308  0.7487 -0.5509
   53MOL   H64049624   4.262   1.800   7.194 -1.3104  0.7565 -0.1453
   53MOL   H64149625   4.229   1.863   7.032 -0.6454  1.6166  1.2325
   53MOL   H64249626   4.123   1.615   7.167  0.5397  0.5317  0.6265
   53MOL   H64349627   4.093   1.646   6.992  2.6686  0.9333 -0.5954
   53MOL   H64449628   3.900   1.686   7.133 -0.4559 -0.5767  0.2206
   53MOL   H64549629   3.991   1.832   7.198  0.0664  0.3611 -0.8137
   53MOL   H64649630   4.004   1.908   6.959  0.3894 -1.5157 -1.1366
   53MOL   H64749631   3.889   1.786   6.918 -0.0271  1.1634 -0.3667
   53MOL   H64849632   3.782   2.008   6.945 -0.7609  3.0395  2.1538
   53MOL   H64949633   3.725   1.917   7.079 -1.1762 -0.3486 -1.0769
   53MOL   H65049634   3.846   2.031   7.243  2.4400  0.6424  0.2608
   53MOL   H65149635   3.958   2.100   7.125  0.0715  1.3658 -0.2720
   53MOL   H65249636   3.664   2.180   7.164 -0.0742 -0.3885  0.2590
   53MOL   H65349637   3.774   2.259   7.044  0.6122 -0.4724 -0.2342
   53MOL   H65449638   3.926   2.297   7.261  0.8349 -0.2064  0.8766
   53MOL   H65549639   3.776   2.239   7.341 -1.9749  2.3648 -0.5858
   53MOL   H65649640   3.818   2.644   7.183  1.4552  1.8489 -1.0056
   53MOL   H65749641   3.771   2.903   7.156 -0.9856  1.5555  2.1355
   53MOL   H65849642   3.355   2.820   7.220 -0.4147  1.2862  0.0043
   53MOL   H65949643   3.413   2.584   7.275  1.5993 -1.2110 -0.5657
   53MOL   O66049644   3.378   3.200   7.130  0.7295 -0.4050 -0.1129
   53MOL   C66149645   3.330   3.218   7.000  0.5251  0.2500 -0.2869
   53MOL   C66249646   3.175   3.194   6.984  0.0629 -0.8046 -0.1175
   53MOL   C66349647   3.108   3.048   7.005 -0.0438 -0.4656 -0.5647
   53MOL   C66449648   3.188   2.948   6.923  0.2456  0.6602 -0.6269
   53MOL   C66549649   3.127   2.810   6.899  0.2029 -0.0919  0.4124
   53MOL   C66649650   3.104   2.738   7.032 -0.1538  0.2224  0.1428
   53MOL   C66749651   3.056   2.592   7.041 -0.5643  0.3882  0.1451
   53MOL   C66849652   3.140   2.492   6.960  0.0087  0.2294 -0.2431
   53MOL   C66949653   3.290   2.494   7.007  0.4805 -0.5584  0.0413
   53MOL   C67049654   3.368   2.367   6.963 -0.5760 -0.0715  0.2426
   53MOL   O67149655   3.328   2.260   7.053 -0.4447  0.5917 -0.2863
   53MOL   C67249656   3.388   2.140   7.048 -0.0283 -0.3640  0.8417
   53MOL   O67349657   3.479   2.116   6.970  0.0146  0.5084 -0.5372
   53MOL   C67449658   3.331   2.039   7.145  0.3667 -0.8632  0.0638
   53MOL   C67549659   3.233   2.074   7.249 -0.0527  0.3202  0.6199
   53MOL   C67649660   3.173   1.973   7.331 -0.2200  0.4607  0.0456
   53MOL   C67749661   3.223   1.838   7.322  0.7233 -0.8654  0.2177
   53MOL   C67849662   3.162   1.732   7.411 -0.8337 -0.2237  0.7087
   53MOL   O67949663   3.216   1.624   7.432  0.6083 -0.0369 -0.4902
   53MOL   O68049664   3.049   1.770   7.461 -0.4439  0.0333 -0.0622
   53MOL   C68149665   3.333   1.808   7.241 -0.1191 -0.5515  0.4741
   53MOL   C68249666   3.383   1.904   7.147  0.1782  0.1678  0.2600
   53MOL   H68349667   3.351   3.323   6.981  0.5186  0.5508  1.3604
   53MOL   H68449668   3.389   3.163   6.926  0.7630  0.0589  0.0447
   53MOL   H68549669   3.139   3.217   6.884  2.0093  0.8464 -0.4878
   53MOL   H68649670   3.119   3.267   7.042  0.7497 -1.5454  1.5104
   53MOL   H68749671   3.095   3.020   7.110  0.3453  0.4557 -0.2633
   53MOL   H68849672   3.006   3.053   6.967 -0.3765 -0.5442  0.3005
   53MOL   H68949673   3.290   2.928   6.955  0.6051 -0.6033 -2.4670
   53MOL   H69049674   3.194   2.995   6.825  1.1606 -2.4600 -2.1270
   53MOL   H69149675   3.033   2.822   6.845 -0.8431 -0.6499  2.0689
   53MOL   H69249676   3.186   2.750   6.829 -0.2766  0.0533 -0.1183
   53MOL   H69349677   3.202   2.733   7.080  0.0541  1.9869 -0.0530
   53MOL   H69449678   3.045   2.809   7.090  1.1404  1.7255 -0.3346
   53MOL   H69549679   3.068   2.564   7.146  0.6392  0.1108 -0.0626
   53MOL   H69649680   2.956   2.568   7.004 -0.2535 -0.6529 -0.0202
   53MOL   H69749681   3.103   2.393   6.985  1.3493  0.1290  1.4412
   53MOL   H69849682   3.127   2.493   6.852 -2.7723  3.2291  0.0174
   53MOL   H69949683   3.287   2.488   7.115 -0.1357 -0.2394  0.0410
   53MOL   H70049684   3.350   2.583   6.984  1.7966 -1.2517  0.7088
   53MOL   H70149685   3.470   2.386   6.997 -0.8918  1.6868  0.2505
   53MOL   H70249686   3.380   2.344   6.857 -1.9031  0.0074  0.0669
   53MOL   H70349687   3.205   2.177   7.258 -1.2353 -0.0230  0.9027
   53MOL   H70449688   3.101   2.013   7.401 -0.2161  1.3839 -0.4626
   53MOL   H70549689   3.368   1.706   7.245 -0.0893 -0.5958 -0.7693
   53MOL   H70649690   3.454   1.871   7.073 -0.0224 -0.1252  0.1961
   53MOL   O70749691   2.999   1.678   7.567 -0.4596 -0.5722  0.5190
   53MOL   C70849692   3.000   1.743   7.694 -0.6959  0.8671 -0.5215
   53MOL   C70949693   2.863   1.803   7.730  0.3683  0.1057 -0.0953
   53MOL   C71049694   2.831   1.953   7.678 -0.3550  0.1642  0.1028
   53MOL   C71149695   2.687   1.993   7.702  0.3544 -0.0023 -0.5249
   53MOL   C71249696   2.636   1.982   7.851  0.2497  0.2477  0.1081
   53MOL   C71349697   2.507   2.053   7.878 -0.7372  0.0173 -0.1852
   53MOL   C71449698   2.478   2.065   0.047  0.0805  0.2677 -0.4593
   53MOL   C71549699   2.379   2.177   0.085  0.0714 -0.5962 -0.3833
   53MOL   C71649700   2.367   2.191   0.239 -0.3299  0.1913  0.1918
   53MOL   C71749701   2.285   2.309   0.280 -0.1322 -1.2849  0.0760
   53MOL   O71849702   2.358   2.425   0.244 -0.1186  0.0110 -0.2671
   53MOL   C71949703   2.302   2.546   0.252  0.5631 -0.0205 -0.4785
   53MOL   O72049704   2.185   2.559   0.276  0.2146  0.8564  0.2523
   53MOL   C72149705   2.394   2.662   0.226  0.5244  0.2395 -0.5104
   53MOL   C72249706   2.536   2.651   0.238  0.5673 -0.2682 -0.5699
   53MOL   C72349707   2.612   2.764   0.209  0.8921  0.3825  0.4979
   53MOL   C72449708   2.555   2.885   0.172 -0.1464  0.1838 -0.1438
   53MOL   C72549709   2.651   2.996   0.146 -0.9644  0.5130  0.0204
   53MOL   O72649710   2.776   2.984   0.146 -0.0627  0.0500 -0.4170
   53MOL   O72749711   2.595   3.113   0.111 -0.1253 -0.2252 -0.0713
   53MOL   C72849712   2.416   2.895   0.161 -0.1775 -0.2637  0.9329
   53MOL   C72949713   2.336   2.785   0.192  0.7295  0.0018 -0.3484
   53MOL   H73049714   3.016   1.667   7.770  0.6237  2.4090  0.7676
   53MOL   H73149715   3.084   1.811   7.709  1.1576 -0.9657 -2.2718
   53MOL   H73249716   2.857   1.802   7.839 -0.7870 -1.1582 -0.1708
   53MOL   H73349717   2.783   1.739   7.695 -1.3643  2.0490  0.1643
   53MOL   H73449718   2.896   2.015   7.741 -1.9458  2.5146 -0.4834
   53MOL   H73549719   2.876   1.972   7.580  1.2397  0.3094  0.8413
   53MOL   H73649720   2.629   1.921   7.644 -1.2992  1.3318 -0.5613
   53MOL   H73749721   2.665   2.086   7.649  0.5257  0.2069 -0.2309
   53MOL   H73849722   2.620   1.875   7.865  0.2045  0.3998  1.2485
   53MOL   H73949723   2.715   2.005   7.922  0.9594 -0.4601 -0.4471
   53MOL   H74049724   2.528   2.154   7.844 -0.1797 -0.1205 -0.2434
   53MOL   H74149725   2.423   2.008   7.825 -0.4902  0.4439 -0.9441
   53MOL   H74249726   2.431   1.972   0.079  1.6529 -0.4431 -0.1891
   53MOL   H74349727   2.564   2.074   0.113 -0.7993  3.9017  0.2900
   53MOL   H74449728   2.411   2.274   0.048  0.1822 -0.5253 -0.1009
   53MOL   H74549729   2.282   2.150   0.042 -0.4323 -0.1497  0.4821
   53MOL   H74649730   2.467   2.205   0.280  0.1237 -0.8466 -0.5302
   53MOL   H74749731   2.329   2.098   0.281  2.5523 -0.7523  0.8815
   53MOL   H74849732   2.266   2.306   0.388  2.1164  0.1724  0.5486
   53MOL   H74949733   2.195   2.305   0.219 -1.1190 -1.2486  1.4864
   53MOL   H75049734   2.595   2.564   0.264  0.2739 -0.7040 -1.3288
   53MOL   H75149735   2.720   2.759   0.207  0.9576  1.1441  1.6831
   53MOL   H75249736   2.371   2.992   0.145  0.9275  0.1300  0.1837
   53MOL   H75349737   2.229   2.797   0.183  0.7671  2.2061  1.7401
   53MOL   O75449738   2.693   3.213   0.076 -0.3324  0.0506  0.4061
   53MOL   C75549739   2.730   3.292   0.186 -0.7354 -0.2925  0.2622
   53MOL   C75649740   2.847   3.372   0.142  0.2707  1.0078 -0.1981
   53MOL   C75749741   2.983   3.296   0.156 -0.3937  0.5327 -0.0404
   53MOL   C75849742   3.035   3.312   0.299 -0.4211  0.3324 -0.0916
   53MOL   C75949743   3.175   3.228   0.315  0.1997  0.2994  0.3922
   53MOL   C76049744   3.228   3.246   0.459 -0.8304 -1.0479  0.1217
   53MOL   C76149745   3.350   3.152   0.494 -0.1499  0.0362 -0.2880
   53MOL   C76249746   3.379   3.166   0.644 -0.3137  0.5793 -0.2163
   53MOL   C76349747   3.304   3.072   0.737 -0.7005 -0.3567 -0.5305
   53MOL   C76449748   3.307   3.108   0.892  0.5803 -0.2304  0.1873
   53MOL   O76549749   3.437   3.107   0.938  0.4155  0.0684 -0.1830
   53MOL   C76649750   3.473   3.080   1.062 -0.0554 -0.4759 -0.8324
   53MOL   O76749751   3.390   3.052   1.149  0.2941  0.5706  0.4060
   53MOL   C76849752   3.619   3.062   1.084 -0.5653  0.6515 -0.5340
   53MOL   C76949753   3.657   3.006   1.210  0.2883 -0.7313  0.0798
   53MOL   C77049754   3.792   2.979   1.237  0.0924 -0.1773  0.1321
   53MOL   C77149755   3.895   3.010   1.144 -0.2096  0.1928  0.1548
   53MOL   C77249756   4.038   2.974   1.174  0.0612 -0.4223  0.2790
   53MOL   O77349757   4.129   2.979   1.091  0.2228 -0.0486 -0.0934
   53MOL   O77449758   4.053   2.947   1.302  0.5262  0.4084 -0.4874
   53MOL   C77549759   3.857   3.067   1.019 -0.0069 -0.1435  0.3605
   53MOL   C77649760   3.719   3.088   0.984 -0.5391  0.2775 -0.3953
   53MOL   H77749761   2.647   3.353   0.222 -0.1624 -1.0900  3.0421
   53MOL   H77849762   2.747   3.237   0.279 -1.8972 -0.2148  0.5292
   53MOL   H77949763   2.857   3.473   0.181 -0.3450  1.0478 -0.1375
   53MOL   H78049764   2.818   3.387   0.038 -1.4715  2.1006  0.4337
   53MOL   H78149765   2.987   3.193   0.122 -0.3030  0.1208  1.1885
   53MOL   H78249766   3.053   3.346   0.090  0.4167  0.0176  0.4278
   53MOL   H78349767   2.954   3.288   0.369 -1.6296  0.4022 -1.4468
   53MOL   H78449768   3.065   3.415   0.322  1.9709 -0.2801 -0.3579
   53MOL   H78549769   3.168   3.125   0.282  3.5801  0.8876 -2.4728
   53MOL   H78649770   3.236   3.266   0.233 -1.4719  0.5935 -0.7443
   53MOL   H78749771   3.250   3.350   0.482 -0.6228 -0.8575 -0.9102
   53MOL   H78849772   3.138   3.213   0.510 -1.8388  2.3364  0.6806
   53MOL   H78949773   3.323   3.050   0.467 -0.2366 -0.4978  1.7157
   53MOL   H79049774   3.438   3.188   0.440  1.0568  1.8715  2.7457
   53MOL   H79149775   3.485   3.141   0.656 -0.7436 -1.1081  0.1208
   53MOL   H79249776   3.362   3.268   0.679  1.1852  0.6287  0.4419
   53MOL   H79349777   3.323   2.970   0.705  0.4074 -0.9560  1.8822
   53MOL   H79449778   3.203   3.086   0.699 -0.9194  0.7800  0.4225
   53MOL   H79549779   3.251   3.031   0.946  3.0686 -1.5980  0.8901
   53MOL   H79649780   3.264   3.206   0.911  0.0310 -0.4334 -0.0081
   53MOL   H79749781   3.581   2.991   1.286  0.7106  2.0591  1.1169
   53MOL   H79849782   3.812   2.940   1.336 -2.0995  0.2953  0.7854
   53MOL   H79949783   3.941   3.081   0.953 -0.3243  0.6745  0.1175
   53MOL   H80049784   3.686   3.132   0.891  0.0008 -2.1582 -1.7757
   53MOL   O80149785   4.188   2.887   1.333  0.3296 -0.3828  0.0700
   53MOL   C80249786   4.270   2.990   1.372  0.0795 -0.5334 -0.0254
   53MOL   C80349787   4.411   2.950   1.409  0.1547  0.4675 -0.2704
   53MOL   C80449788   4.425   2.918   1.561 -0.0479  0.5113 -0.2472
   53MOL   C80549789   4.573   2.901   1.596  0.2844 -0.0172 -0.1805
   53MOL   C80649790   4.585   2.908   1.753 -0.5147  0.6902 -0.9051
   53MOL   C80749791   4.732   2.917   1.796  0.6423 -0.0153 -0.0130
   53MOL   C80849792   4.749   2.928   1.951 -0.5012 -0.4046  0.4353
   53MOL   C80949793   4.898   2.921   1.990  0.3938 -0.5179 -0.0533
   53MOL   C81049794   4.942   2.777   2.047 -0.0163 -0.1587 -0.6255
   53MOL   C81149795   4.997   2.671   1.948  0.2996  0.0627  0.8716
   53MOL   O81249796   4.898   2.601   1.875 -0.1384 -0.4753 -0.2775
   53MOL   C81349797   4.840   2.489   1.928  0.3917  0.1599  0.1216
   53MOL   O81449798   4.873   2.429   2.033 -0.3975  0.3543  0.2938
   53MOL   C81549799   4.725   2.444   1.845 -0.6358  0.4994  0.1804
   53MOL   C81649800   4.704   2.497   1.720 -0.5373  0.2616  0.1272
   53MOL   C81749801   4.600   2.452   1.637  0.2679  0.3836 -0.4217
   53MOL   C81849802   4.511   2.358   1.679 -0.2078 -0.1557 -0.1165
   53MOL   C81949803   4.399   2.321   1.577  0.1733 -0.3529 -0.3923
   53MOL   O82049804   4.396   2.362   1.459  0.3064 -0.6908 -0.4524
   53MOL   O82149805   4.302   2.235   1.621  0.4845 -0.3725 -0.0202
   53MOL   C82249806   4.523   2.298   1.806 -0.6839  0.4095  0.2713
   53MOL   C82349807   4.625   2.353   1.890 -0.0482  0.1280 -0.2601
   53MOL   H82449808   4.280   3.066   1.294  0.7394 -0.8466 -0.2507
   53MOL   H82549809   4.223   3.039   1.457 -1.8128 -1.6209 -0.4311
   53MOL   H82649810   4.484   3.028   1.387  0.9245  0.0650  0.7925
   53MOL   H82749811   4.452   2.869   1.349 -0.3706  0.5915 -0.7935
   53MOL   H82849812   4.368   2.990   1.621 -1.4139 -0.4939 -0.3327
   53MOL   H82949813   4.365   2.828   1.573 -0.2368  0.8142  1.2495
   53MOL   H83049814   4.632   2.982   1.554  0.6665 -1.2435 -2.0880
   53MOL   H83149815   4.619   2.816   1.546  0.9316 -0.7953  1.7020
   53MOL   H83249816   4.540   3.002   1.783  1.5606  0.5667  2.7922
   53MOL   H83349817   4.533   2.835   1.816  2.0452  0.2752  0.7750
   53MOL   H83449818   4.781   2.826   1.762  0.2200  0.0508 -0.7973
   53MOL   H83549819   4.785   3.003   1.755 -1.7681  1.4219 -0.2206
   53MOL   H83649820   4.706   3.025   1.977  0.5739 -0.1753  1.3739
   53MOL   H83749821   4.687   2.853   1.999 -0.6555 -1.1752 -0.9297
   53MOL   H83849822   4.968   2.945   1.909  1.2277  0.8899  1.0691
   53MOL   H83949823   4.914   3.008   2.053 -0.5220 -1.4335  1.4632
   53MOL   H84049824   4.875   2.737   2.123 -0.3291 -0.0543 -0.8500
   53MOL   H84149825   5.024   2.803   2.114 -0.4738  0.3548 -0.2552
   53MOL   H84249826   5.068   2.605   1.999  1.1610 -0.6937 -1.2345
   53MOL   H84349827   5.065   2.718   1.877 -0.8724  0.8216  0.2440
   53MOL   H84449828   4.760   2.582   1.684 -0.2731  2.2285  4.7779
   53MOL   H84549829   4.584   2.508   1.546  1.3211 -0.3703 -1.0784
   53MOL   H84649830   4.451   2.224   1.837 -1.0281  1.0470  0.9824
   53MOL   H84749831   4.636   2.307   1.987 -2.2244  0.6042  0.2215
   53MOL   O84849832   4.198   2.205   1.513 -0.2923  0.4664  0.4816
   53MOL   C84949833   4.231   2.074   1.465  0.6249 -0.3864  0.0331
   53MOL   C85049834   4.169   2.056   1.326  0.1554 -0.3875  0.4153
   53MOL   C85149835   4.243   2.132   1.213 -0.2910  0.0976 -0.1061
   53MOL   C85249836   4.189   2.110   1.075  0.0582 -0.0713  0.3794
   53MOL   C85349837   4.269   2.189   0.970 -0.2134 -0.7281  0.2850
   53MOL   C85449838   4.195   2.195   0.837  0.1071 -0.2956  0.0335
   53MOL   C85549839   4.051   2.237   0.841  0.6833  0.8911 -0.0562
   53MOL   C85649840   3.995   2.261   0.695  0.6293 -0.3472 -1.0796
   53MOL   C85749841   3.841   2.270   0.688  0.2232  0.0645 -0.0153
   53MOL   C85849842   3.787   2.315   0.550 -0.2953 -0.8750 -0.1747
   53MOL   O85949843   3.807   2.458   0.535 -0.3031  0.4028  0.2708
   53MOL   C86049844   3.704   2.530   0.495  0.2764  0.7779  0.1625
   53MOL   O86149845   3.592   2.488   0.457  0.3180  0.1938 -0.3325
   53MOL   C86249846   3.730   2.684   0.497  0.2529 -0.4715  0.4078
   53MOL   C86349847   3.626   2.774   0.465 -0.3704  0.0335  0.3155
   53MOL   C86449848   3.635   2.915   0.476 -0.3713 -0.0172 -0.0264
   53MOL   C86549849   3.756   2.973   0.525  0.2545 -0.2392  1.2734
   53MOL   C86649850   3.765   3.124   0.531  0.2570  0.4534 -0.1382
   53MOL   O86749851   3.677   3.199   0.477  0.0573 -0.5983  0.2138
   53MOL   O86849852   3.884   3.179   0.574  0.0082  0.2968  0.4719
   53MOL   C86949853   3.865   2.885   0.558  0.5645  0.2098 -0.6463
   53MOL   C87049854   3.854   2.744   0.535 -0.3254  0.3661 -0.2648
   53MOL   H87149855   4.338   2.054   1.470  0.5089 -0.7153  1.5088
   53MOL   H87249856   4.193   2.000   1.536  1.4996 -0.4346  0.4667
   53MOL   H87349857   4.065   2.088   1.322  0.3984  0.4741  0.7699
   53MOL   H87449858   4.187   1.952   1.303  1.4629  0.3409 -1.9541
   53MOL   H87549859   4.241   2.238   1.240  0.0659 -0.1489  0.9075
   53MOL   H87649860   4.350   2.115   1.219 -0.0474  1.3199 -0.8041
   53MOL   H87749861   4.081   2.120   1.072 -0.1208 -1.8798  0.0051
   53MOL   H87849862   4.200   2.002   1.062 -0.9474  0.0517 -1.7642
   53MOL   H87949863   4.299   2.289   1.001  1.9422 -1.8166  1.8437
   53MOL   H88049864   4.364   2.136   0.958  0.5674  0.6193  0.3903
   53MOL   H88149865   4.242   2.265   0.767  1.6085 -1.2621  0.0582
   53MOL   H88249866   4.212   2.101   0.784  2.5419  1.0713 -1.6966
   53MOL   H88349867   3.984   2.166   0.889  1.6723  0.8783  1.3291
   53MOL   H88449868   4.045   2.323   0.909 -2.0665 -1.1297  2.3664
   53MOL   H88549869   4.047   2.355   0.673  0.2475 -0.3036 -1.8172
   53MOL   H88649870   4.041   2.189   0.627 -0.7823 -1.0399 -1.3029
   53MOL   H88749871   3.810   2.343   0.763  1.3109  0.9381 -0.4057
   53MOL   H88849872   3.809   2.166   0.691  1.0321 -0.1977 -0.3913
   53MOL   H88949873   3.683   2.281   0.549  0.0597 -1.9503 -0.9612
   53MOL   H89049874   3.825   2.248   0.472 -0.7771 -2.6562  1.0985
   53MOL   H89149875   3.530   2.739   0.429 -0.9086  0.9580  0.8204
   53MOL   H89249876   3.543   2.968   0.453  0.5604  1.9486  0.6026
   53MOL   H89349877   3.957   2.924   0.599  0.5673 -2.3297  1.9553
   53MOL   H89449878   3.930   2.680   0.578 -1.5141 -0.7192  0.2533
   53MOL   O89549879   3.889   3.326   0.554 -0.0245  0.1474  0.6624
   53MOL   C89649880   3.997   3.344   0.469 -0.2369 -0.1005  0.2930
   53MOL   C89749881   4.008   3.486   0.404 -0.7119  0.0874  0.5981
   53MOL   C89849882   4.136   3.516   0.334 -0.4794  0.7530  0.0018
   53MOL   C89949883   4.153   3.651   0.276 -0.3335 -0.0893 -0.1039
   53MOL   C90049884   4.299   3.660   0.218  0.7231  0.2535  0.3363
   53MOL   C90149885   4.362   3.803   0.208 -0.5057 -0.3643 -0.7028
   53MOL   C90249886   4.404   3.845   0.347  0.3410 -0.9420  0.2618
   53MOL   C90349887   4.507   3.961   0.360 -0.3118 -0.2355 -0.2688
   53MOL   C90449888   4.534   3.984   0.500 -0.4117 -0.8079 -0.8798
   53MOL   C90549889   4.651   4.084   0.526  0.7741  0.7765  0.5316
   53MOL   O90649890   4.649   4.113   0.668 -0.7222  0.1535 -0.0770
   53MOL   C90749891   4.634   4.249   0.705  0.1471 -0.8405  0.1201
   53MOL   O90849892   4.613   4.342   0.626 -0.1404 -0.1408 -0.3639
   53MOL   C90949893   4.649   4.273   0.848  1.0327 -0.0872  0.4990
   53MOL   C91049894   4.645   4.170   0.946  0.9854 -0.5487  1.2286
   53MOL   C91149895   4.654   4.204   1.080 -0.2712  0.1625 -0.1636
   53MOL   C91249896   4.651   4.339   1.122  0.1034 -0.1517  0.1825
   53MOL   C91349897   4.665   4.378   1.268 -0.1993 -0.6578 -0.3389
   53MOL   O91449898   4.660   4.497   1.301 -0.0560  0.3139 -0.6302
   53MOL   O91549899   4.684   4.278   1.357  0.0495 -0.2668  0.0891
   53MOL   C91649900   4.638   4.440   1.027 -0.3815  0.7554 -0.0445
   53MOL   C91749901   4.644   4.405   0.889 -0.5406  0.0299  0.3266
   53MOL   H91849902   4.083   3.329   0.534  2.6522 -0.9361 -3.5378
   53MOL   H91949903   3.997   3.275   0.385 -2.2752  1.0540 -0.7079
   53MOL   H92049904   3.990   3.560   0.482  2.6374 -0.9042  2.4213
   53MOL   H92149905   3.933   3.484   0.325  1.1402 -2.2034 -1.1697
   53MOL   H92249906   4.216   3.500   0.406  1.1326 -0.2433 -1.9528
   53MOL   H92349907   4.134   3.447   0.249  2.1865  0.7014 -0.0493
   53MOL   H92449908   4.126   3.721   0.355 -3.2051 -0.5498 -0.6502
   53MOL   H92549909   4.080   3.673   0.198 -1.2213 -2.1684  0.0983
   53MOL   H92649910   4.372   3.607   0.279  0.1659 -2.5174 -1.3183
   53MOL   H92749911   4.314   3.600   0.128  0.9355  0.3678  0.2945
   53MOL   H92849912   4.450   3.798   0.143 -0.3073 -0.3284 -0.4422
   53MOL   H92949913   4.304   3.876   0.153 -1.9503  0.6580  2.1076
   53MOL   H93049914   4.315   3.870   0.405 -0.3997 -0.9334 -0.8498
   53MOL   H93149915   4.430   3.759   0.409  0.2085  0.3105  2.0904
   53MOL   H93249916   4.594   3.936   0.298  0.2730 -0.2851  0.5625
   53MOL   H93349917   4.465   4.055   0.324  1.5172  0.5944 -0.3185
   53MOL   H93449918   4.536   3.891   0.557  0.4633 -2.5878 -3.7039
   53MOL   H93549919   4.451   4.041   0.540 -0.0268 -0.9902  0.1926
   53MOL   H93649920   4.626   4.166   0.458  0.6875 -1.3341 -2.0548
   53MOL   H93749921   4.745   4.047   0.485  0.6505  2.7198 -1.6250
   53MOL   H93849922   4.641   4.066   0.918 -1.3925 -0.6042  1.6633
   53MOL   H93949923   4.659   4.124   1.153  1.7472  2.0722  1.8813
   53MOL   H94049924   4.639   4.542   1.060 -0.8893  1.1495 -1.2223
   53MOL   H94149925   4.645   4.478   0.809 -0.9147 -1.9073 -1.5062
   53MOL   H94249926   4.727   4.306   1.436  2.1276 -1.4357 -0.5672
   7.97801   7.97801   7.97801
